 Gaussian 16, Revision A.03,
 Gaussian 16:  EM64L-G16RevA.03 25-Dec-2016

 -------------
 #p 6-31g* mp2
 -------------

 ------------------------------------------------------
 Input file generated by CHIRIPA (05-May-2021 14:53:16)
 ------------------------------------------------------
 Symbolic Z-matrix:
 Charge =  0 Multiplicity = 1

                         Standard orientation:
 ---------------------------------------------------------------------
 Center     Atomic      Atomic             Coordinates (Angstroms)
 Number     Number       Type             X           Y           Z
 ---------------------------------------------------------------------
      1          6           0        2.402487    1.064631    0.403600
      2          6           0        1.699533    2.312226   -0.132449
      3          6           0        1.015664    3.124204    0.967919
      4          1           0        1.669389    0.433921    0.924864
      5          1           0        3.146102    1.365412    1.154575
      6          1           0        0.958432    2.009294   -0.883193
      7          1           0        2.434352    2.939947   -0.652663
      8          1           0        1.746197    3.454659    1.713386
      9          1           0        0.261891    2.518718    1.481547
     10          1           0        0.519458    4.011536    0.562600
     11          6           0        3.090851    0.242487   -0.684501
     12          6           0        3.793805   -1.005108   -0.148453
     13          6           0        4.477674   -1.817086   -1.248820
     14          1           0        2.347236   -0.058293   -1.435476
     15          1           0        3.823949    0.873197   -1.205766
     16          1           0        3.058986   -1.632829    0.371762
     17          1           0        4.534906   -0.702175    0.602291
     18          1           0        5.231447   -1.211600   -1.762448
     19          1           0        3.747141   -2.147541   -1.994287
     20          1           0        4.973880   -2.704417   -0.843501
     21          6           0       -3.380635    1.018837   -1.472056
     22          6           0       -2.798906    1.535781   -0.309781
     23          6           0       -2.112352    0.697674    0.573829
     24          6           0       -2.026459   -0.658453    0.262648
     25          6           0       -2.595386   -1.203515   -0.887360
     26          6           0       -3.277201   -0.346755   -1.756634
     27          1           0       -3.912126    1.677143   -2.152897
     28          1           0       -2.877648    2.595905   -0.086217
     29          1           0       -1.652589    1.071387    1.480677
     30          1           0       -2.500169   -2.264633   -1.083274
     31          1           0       -3.727993   -0.750996   -2.658532
     32          7           0       -1.302144   -1.555593    1.190498
     33          8           0       -1.240592   -2.746684    0.893598
     34          8           0       -0.809693   -1.050694    2.197078
 ---------------------------------------------------------------------

 SCF Done:  E(RHF) =  -669.535989449     A.U. after   15 cycles
 E2 =    -0.2092889131D+01 EUMP2 =    -0.67162887857947D+03

 The electronic state is 1-A.
 Alpha  occ. eigenvalues --  -20.60972 -20.60964 -15.85992 -11.31300 -11.27861
 Alpha  occ. eigenvalues --  -11.27854 -11.27591 -11.26867 -11.26856 -11.21562
 Alpha  occ. eigenvalues --  -11.21298 -11.21095 -11.21037 -11.20974 -11.20651
 Alpha  occ. eigenvalues --   -1.60025  -1.39581  -1.19470  -1.08874  -1.08138
 Alpha  occ. eigenvalues --   -1.04864  -1.03312  -0.95793  -0.95708  -0.86810
 Alpha  occ. eigenvalues --   -0.86263  -0.82548  -0.79375  -0.77910  -0.77599
 Alpha  occ. eigenvalues --   -0.72211  -0.71338  -0.70588  -0.65122  -0.64920
 Alpha  occ. eigenvalues --   -0.64728  -0.62255  -0.60688  -0.59166  -0.57368
 Alpha  occ. eigenvalues --   -0.55404  -0.55056  -0.53177  -0.52963  -0.52507
 Alpha  occ. eigenvalues --   -0.52185  -0.49736  -0.48976  -0.48967  -0.47686
 Alpha  occ. eigenvalues --   -0.46394  -0.45514  -0.45417  -0.44827  -0.43538
 Alpha  occ. eigenvalues --   -0.37444  -0.36441
 Alpha virt. eigenvalues --    0.04881   0.11128   0.16361   0.20536   0.23116
 Alpha virt. eigenvalues --    0.24251   0.26016   0.27040   0.27455   0.28167
 Alpha virt. eigenvalues --    0.29432   0.30186   0.31475   0.31762   0.32202

 Mulliken charges:
               1
     1  C   -0.305101
     2  C   -0.300241
     3  C   -0.477013
     4  H    0.161769
     5  H    0.149997
     6  H    0.149946
     7  H    0.151381
     8  H    0.159583
     9  H    0.150173
    10  H    0.154411
    11  C   -0.297935
    12  C   -0.301695
    13  C   -0.475328
    14  H    0.146775
    15  H    0.147002
    16  H    0.161585
    17  H    0.151527
    18  H    0.152504
    19  H    0.154028
    20  H    0.161223
    21  C   -0.170776
    22  C   -0.219307
    23  C   -0.172838
    24  C    0.158190
    25  C   -0.170978
    26  C   -0.218462
    27  H    0.226211
    28  H    0.225214
    29  H    0.279780
    30  H    0.275761
    31  H    0.223908
    32  N    0.487570
    33  O   -0.458826
    34  O   -0.460036
 Sum of Mulliken charges =  -0.00000

 Dipole moment (field-independent basis, Debye):
    X=             -2.6129    Y=              3.0292    Z=             -3.2043  Tot=              5.1255
 Quadrupole moment (field-independent basis, Debye-Ang):
   XX=            -84.4187   YY=            -96.5804   ZZ=            -95.6500
   XY=             -3.2245   XZ=              7.6544   YZ=              5.1973

 Normal termination of Gaussian 16 at Thu May  6 12:13:47 2021.
