 Gaussian 16, Revision A.03,
 Gaussian 16:  EM64L-G16RevA.03 25-Dec-2016

 -------------
 #p 6-31g* mp2
 -------------

 ------------------------------------------------------
 Input file generated by CHIRIPA (05-May-2021 14:57:26)
 ------------------------------------------------------
 Symbolic Z-matrix:
 Charge =  0 Multiplicity = 1

                         Standard orientation:
 ---------------------------------------------------------------------
 Center     Atomic      Atomic             Coordinates (Angstroms)
 Number     Number       Type             X           Y           Z
 ---------------------------------------------------------------------
      1          6           0       -0.894849   -0.187943    0.248319
      2          6           0       -1.691274   -1.208429    0.778257
      3          6           0       -3.080078   -1.179779    0.620296
      4          6           0       -3.641655   -0.110840   -0.076332
      5          6           0       -2.874997    0.920816   -0.615972
      6          6           0       -1.488206    0.871555   -0.445881
      7          1           0        0.183226   -0.218204    0.375738
      8          1           0       -1.233203   -2.032483    1.317842
      9          1           0       -3.720327   -1.956641    1.020277
     10          1           0       -3.360472    1.729277   -1.149004
     11          1           0       -0.872174    1.665458   -0.858515
     12          7           0       -5.110854   -0.069600   -0.249979
     13          8           0       -5.581251    0.883110   -0.867805
     14          8           0       -5.764196   -0.990765    0.235031
     15          6           0        2.578007    2.376356    0.815332
     16          6           0        2.386793    1.250420    1.622938
     17          6           0        2.837823   -0.006050    1.207724
     18          6           0        3.478933   -0.100728   -0.026498
     19          6           0        3.684395    1.002403   -0.853648
     20          6           0        3.225058    2.248979   -0.418208
     21          1           0        2.224410    3.348568    1.145736
     22          1           0        1.884614    1.346361    2.581404
     23          1           0        2.702983   -0.894182    1.813081
     24          1           0        4.188463    0.875353   -1.804012
     25          1           0        3.374940    3.121669   -1.047487
     26          7           0        3.960817   -1.425659   -0.476772
     27          8           0        4.522704   -1.482550   -1.568415
     28          8           0        3.767505   -2.382160    0.270470
 ---------------------------------------------------------------------

 SCF Done:  E(RHF) =  -868.337174583     A.U. after   16 cycles
 E2 =    -0.2601750470D+01 EUMP2 =    -0.87093892505241D+03

 The electronic state is 1-A.
 Alpha  occ. eigenvalues --  -20.61819 -20.61800 -20.60833 -20.60826 -15.86874
 Alpha  occ. eigenvalues --  -15.85888 -11.32476 -11.31245 -11.29025 -11.28966
 Alpha  occ. eigenvalues --  -11.28733 -11.28069 -11.28025 -11.27845 -11.27811
 Alpha  occ. eigenvalues --  -11.27407 -11.26832 -11.26784  -1.60886  -1.59909
 Alpha  occ. eigenvalues --   -1.40432  -1.39463  -1.20659  -1.19416  -1.09977
 Alpha  occ. eigenvalues --   -1.08800  -1.06071  -1.04827  -0.96779  -0.95637
 Alpha  occ. eigenvalues --   -0.87419  -0.86216  -0.83592  -0.82479  -0.78618
 Alpha  occ. eigenvalues --   -0.77537  -0.73075  -0.72230  -0.72103  -0.71676
 Alpha  occ. eigenvalues --   -0.71234  -0.70525  -0.66259  -0.65994  -0.65060
 Alpha  occ. eigenvalues --   -0.64839  -0.63363  -0.62181  -0.56478  -0.55721
 Alpha  occ. eigenvalues --   -0.54092  -0.53980  -0.53153  -0.52911  -0.49854
 Alpha  occ. eigenvalues --   -0.49824  -0.48863  -0.48859  -0.45785  -0.44870
 Alpha  occ. eigenvalues --   -0.38652  -0.37749  -0.37270  -0.36448
 Alpha virt. eigenvalues --    0.03866   0.05002   0.09877   0.11212   0.15292
 Alpha virt. eigenvalues --    0.16553   0.20211   0.21595   0.26056   0.26865
 Alpha virt. eigenvalues --    0.27549   0.28629   0.30013   0.31326   0.31439

 Mulliken charges:
               1
     1  C   -0.177248
     2  C   -0.223168
     3  C   -0.170196
     4  C    0.157849
     5  C   -0.170803
     6  C   -0.224320
     7  H    0.237805
     8  H    0.224727
     9  H    0.276117
    10  H    0.274357
    11  H    0.220130
    12  N    0.488035
    13  O   -0.461168
    14  O   -0.459938
    15  C   -0.174414
    16  C   -0.218563
    17  C   -0.192859
    18  C    0.164276
    19  C   -0.171117
    20  C   -0.219397
    21  H    0.230874
    22  H    0.229897
    23  H    0.277431
    24  H    0.280116
    25  H    0.228482
    26  N    0.488097
    27  O   -0.455452
    28  O   -0.459549
 Sum of Mulliken charges =  -0.00000

 Dipole moment (field-independent basis, Debye):
    X=              3.8354    Y=              4.5787    Z=              2.1701  Tot=              6.3548
 Quadrupole moment (field-independent basis, Debye-Ang):
   XX=           -154.2741   YY=           -101.4793   ZZ=           -100.7875
   XY=             18.0867   XZ=              0.8069   YZ=             -4.7762

 Normal termination of Gaussian 16 at Thu May  6 13:10:08 2021.
