 Gaussian 16, Revision A.03,
 Gaussian 16:  EM64L-G16RevA.03 25-Dec-2016

 -------------
 #p 6-31g* mp2
 -------------

 ------------------------------------------------------
 Input file generated by CHIRIPA (05-May-2021 14:57:24)
 ------------------------------------------------------
 Symbolic Z-matrix:
 Charge =  0 Multiplicity = 1

                         Standard orientation:
 ---------------------------------------------------------------------
 Center     Atomic      Atomic             Coordinates (Angstroms)
 Number     Number       Type             X           Y           Z
 ---------------------------------------------------------------------
      1          6           0        1.086572   -1.224636    1.516135
      2          6           0        1.947143   -1.997048    0.729167
      3          6           0        2.991268   -1.396457    0.019491
      4          6           0        3.146506   -0.014760    0.120012
      5          6           0        2.305649    0.781894    0.895636
      6          6           0        1.268251    0.159929    1.596716
      7          1           0        0.278083   -1.699492    2.064089
      8          1           0        1.808432   -3.072525    0.664716
      9          1           0        3.672099   -1.970537   -0.597209
     10          1           0        2.469042    1.851818    0.940163
     11          1           0        0.601451    0.762299    2.207103
     12          7           0        4.248314    0.632374   -0.626740
     13          8           0        4.363871    1.851478   -0.521532
     14          8           0        4.975490   -0.091761   -1.303113
     15          6           0       -2.878892   -2.378876   -0.570296
     16          6           0       -4.109410   -1.738199   -0.391754
     17          6           0       -4.169031   -0.353349   -0.209583
     18          6           0       -2.973231    0.363134   -0.211452
     19          6           0       -1.731812   -0.246299   -0.386843
     20          6           0       -1.696105   -1.632198   -0.567276
     21          1           0       -2.841865   -3.455068   -0.711137
     22          1           0       -5.029584   -2.315539   -0.393649
     23          1           0       -5.108050    0.168134   -0.069161
     24          1           0       -0.831458    0.355976   -0.380199
     25          1           0       -0.739042   -2.127085   -0.705702
     26          7           0       -3.023691    1.829768   -0.019515
     27          8           0       -1.955905    2.438404   -0.025176
     28          8           0       -4.130072    2.342907    0.132952
 ---------------------------------------------------------------------

 SCF Done:  E(RHF) =  -868.336547257     A.U. after   16 cycles
 E2 =    -0.2603574052D+01 EUMP2 =    -0.87094012130840D+03

 The electronic state is 1-A.
 Alpha  occ. eigenvalues --  -20.61295 -20.61270 -20.61089 -20.61066 -15.86334
 Alpha  occ. eigenvalues --  -15.86144 -11.31699 -11.31669 -11.28388 -11.28249
 Alpha  occ. eigenvalues --  -11.28248 -11.28145 -11.28092 -11.28013 -11.27430
 Alpha  occ. eigenvalues --  -11.27260 -11.27212 -11.27191  -1.60360  -1.60154
 Alpha  occ. eigenvalues --   -1.39914  -1.39700  -1.19969  -1.19840  -1.09326
 Alpha  occ. eigenvalues --   -1.09249  -1.05360  -1.05237  -0.96123  -0.96052
 Alpha  occ. eigenvalues --   -0.86824  -0.86561  -0.82972  -0.82831  -0.78008
 Alpha  occ. eigenvalues --   -0.77859  -0.72550  -0.72354  -0.71690  -0.71485
 Alpha  occ. eigenvalues --   -0.71012  -0.70963  -0.65601  -0.65500  -0.65323
 Alpha  occ. eigenvalues --   -0.65207  -0.62644  -0.62621  -0.55844  -0.55798
 Alpha  occ. eigenvalues --   -0.53853  -0.53404  -0.53372  -0.53314  -0.49307
 Alpha  occ. eigenvalues --   -0.49301  -0.49131  -0.49095  -0.45323  -0.45063
 Alpha  occ. eigenvalues --   -0.38228  -0.37887  -0.37009  -0.36482
 Alpha virt. eigenvalues --    0.04281   0.04858   0.10068   0.11198   0.15554
 Alpha virt. eigenvalues --    0.16464   0.20505   0.21488   0.26254   0.27392
 Alpha virt. eigenvalues --    0.27768   0.28119   0.30432   0.30957   0.31933

 Mulliken charges:
               1
     1  C   -0.172227
     2  C   -0.229034
     3  C   -0.170561
     4  C    0.157602
     5  C   -0.169117
     6  C   -0.228765
     7  H    0.229973
     8  H    0.221587
     9  H    0.277273
    10  H    0.284085
    11  H    0.235550
    12  N    0.488167
    13  O   -0.455683
    14  O   -0.460365
    15  C   -0.172767
    16  C   -0.218825
    17  C   -0.170866
    18  C    0.156284
    19  C   -0.177052
    20  C   -0.226982
    21  H    0.225102
    22  H    0.224603
    23  H    0.276654
    24  H    0.282560
    25  H    0.225690
    26  N    0.487860
    27  O   -0.462634
    28  O   -0.458114
 Sum of Mulliken charges =  -0.00000

 Dipole moment (field-independent basis, Debye):
    X=             -3.5530    Y=             -7.2156    Z=              2.0334  Tot=              8.2960
 Quadrupole moment (field-independent basis, Debye-Ang):
   XX=           -125.0185   YY=           -105.4004   ZZ=           -104.4891
   XY=              7.5371   XZ=              9.0197   YZ=              2.4752

 Normal termination of Gaussian 16 at Wed May  5 22:43:26 2021.
