 Gaussian 16, Revision A.03,
 Gaussian 16:  EM64L-G16RevA.03 25-Dec-2016

 -------------
 #p 6-31g* mp2
 -------------

 ------------------------------------------------------
 Input file generated by CHIRIPA (05-May-2021 14:55:22)
 ------------------------------------------------------
 Symbolic Z-matrix:
 Charge =  0 Multiplicity = 1

                         Standard orientation:
 ---------------------------------------------------------------------
 Center     Atomic      Atomic             Coordinates (Angstroms)
 Number     Number       Type             X           Y           Z
 ---------------------------------------------------------------------
      1          6           0       -0.987680    1.078407    1.529013
      2          6           0       -2.249626    1.657505    1.359727
      3          6           0       -3.253195    0.980967    0.659945
      4          6           0       -2.959030   -0.278726    0.140396
      5          6           0       -1.711607   -0.882169    0.292322
      6          6           0       -0.723164   -0.187350    0.995711
      7          1           0       -0.213959    1.611058    2.074022
      8          1           0       -2.457885    2.640378    1.772806
      9          1           0       -4.238874    1.405926    0.514119
     10          1           0       -1.533847   -1.863321   -0.130950
     11          1           0        0.255966   -0.639534    1.125633
     12          7           0       -4.013457   -1.004623   -0.602341
     13          8           0       -3.729103   -2.113252   -1.050360
     14          8           0       -5.104305   -0.451207   -0.722415
     15          6           0        3.642340   -0.554671   -0.286985
     16          6           0        4.950856   -0.989124    0.374092
     17          6           0        5.090761   -2.508937    0.465679
     18          1           0        2.797348   -0.968592    0.280115
     19          1           0        3.586183   -0.990344   -1.294175
     20          1           0        5.005166   -0.551631    1.379212
     21          1           0        5.792828   -0.573961   -0.194537
     22          1           0        5.062445   -2.959216   -0.531842
     23          1           0        4.270307   -2.936759    1.050851
     24          1           0        6.033238   -2.797393    0.941482
     25          6           0        3.487895    0.961940   -0.385804
     26          6           0        2.179379    1.396392   -1.046882
     27          6           0        2.039475    2.916206   -1.138468
     28          1           0        3.544052    1.397613    0.621385
     29          1           0        4.332887    1.375861   -0.952905
     30          1           0        1.337407    0.981231   -0.478252
     31          1           0        2.125069    0.958899   -2.052002
     32          1           0        2.859929    3.344028   -1.723640
     33          1           0        2.067790    3.366485   -0.140947
     34          1           0        1.096998    3.204662   -1.614272
 ---------------------------------------------------------------------

 SCF Done:  E(RHF) =  -669.534622870     A.U. after   15 cycles
 E2 =    -0.2093157319D+01 EUMP2 =    -0.67162778018886D+03

 The electronic state is 1-A.
 Alpha  occ. eigenvalues --  -20.60796 -20.60790 -15.85849 -11.31240 -11.27807
 Alpha  occ. eigenvalues --  -11.27801 -11.27562 -11.26827 -11.26815 -11.22273
 Alpha  occ. eigenvalues --  -11.22208 -11.22148 -11.22079 -11.21678 -11.21636
 Alpha  occ. eigenvalues --   -1.59870  -1.39423  -1.19421  -1.09153  -1.08810
 Alpha  occ. eigenvalues --   -1.04830  -1.04163  -0.96629  -0.95639  -0.87641
 Alpha  occ. eigenvalues --   -0.86234  -0.82470  -0.80230  -0.78979  -0.77508
 Alpha  occ. eigenvalues --   -0.72069  -0.71193  -0.70524  -0.65884  -0.65070
 Alpha  occ. eigenvalues --   -0.64780  -0.62181  -0.61566  -0.59985  -0.58233
 Alpha  occ. eigenvalues --   -0.55952  -0.55318  -0.53317  -0.53166  -0.53027
 Alpha  occ. eigenvalues --   -0.52916  -0.50582  -0.48834  -0.48821  -0.48537
 Alpha  occ. eigenvalues --   -0.47280  -0.46489  -0.46434  -0.44823  -0.44444
 Alpha  occ. eigenvalues --   -0.37349  -0.36379
 Alpha virt. eigenvalues --    0.05013   0.11084   0.16463   0.19214   0.22969
 Alpha virt. eigenvalues --    0.23369   0.24747   0.26153   0.27264   0.28425
 Alpha virt. eigenvalues --    0.29124   0.30773   0.31273   0.31428   0.31742

 Mulliken charges:
               1
     1  C   -0.170236
     2  C   -0.218368
     3  C   -0.170843
     4  C    0.158657
     5  C   -0.173179
     6  C   -0.221952
     7  H    0.226472
     8  H    0.223891
     9  H    0.275885
    10  H    0.276398
    11  H    0.230167
    12  N    0.488081
    13  O   -0.460087
    14  O   -0.460315
    15  C   -0.299731
    16  C   -0.299847
    17  C   -0.475939
    18  H    0.140208
    19  H    0.154137
    20  H    0.151100
    21  H    0.155017
    22  H    0.157437
    23  H    0.153317
    24  H    0.162686
    25  C   -0.298496
    26  C   -0.308855
    27  C   -0.474957
    28  H    0.145014
    29  H    0.153298
    30  H    0.155251
    31  H    0.155395
    32  H    0.157751
    33  H    0.149100
    34  H    0.163548
 Sum of Mulliken charges =  -0.00000

 Dipole moment (field-independent basis, Debye):
    X=              3.7570    Y=              2.5470    Z=              2.5395  Tot=              5.2011
 Quadrupole moment (field-independent basis, Debye-Ang):
   XX=           -114.4663   YY=            -94.7020   ZZ=            -93.7525
   XY=            -11.3840   XZ=             -8.5561   YZ=              0.4578

 Normal termination of Gaussian 16 at Wed May  5 20:39:32 2021.
