 Gaussian 16, Revision A.03,
 Gaussian 16:  EM64L-G16RevA.03 25-Dec-2016

 -------------
 #p 6-31g* mp2
 -------------

 ------------------------------------------------------
 Input file generated by CHIRIPA (05-May-2021 14:53:13)
 ------------------------------------------------------
 Symbolic Z-matrix:
 Charge =  0 Multiplicity = 1

                         Standard orientation:
 ---------------------------------------------------------------------
 Center     Atomic      Atomic             Coordinates (Angstroms)
 Number     Number       Type             X           Y           Z
 ---------------------------------------------------------------------
      1          6           0       -3.634661    0.217519   -0.073326
      2          6           0       -2.929472    1.558217    0.134576
      3          6           0       -1.419456    1.409002    0.322670
      4          1           0       -3.433626   -0.432884    0.788942
      5          1           0       -3.202739   -0.283903   -0.950489
      6          1           0       -3.363541    2.057584    1.010266
      7          1           0       -3.132367    2.205574   -0.728198
      8          1           0       -0.967218    0.933436   -0.553640
      9          1           0       -1.199705    0.784606    1.194702
     10          1           0       -0.935354    2.379517    0.469660
     11          6           0       -5.144695    0.350241   -0.262826
     12          6           0       -5.849883   -0.990456   -0.470728
     13          6           0       -7.359900   -0.841241   -0.658822
     14          1           0       -5.576616    0.851663    0.614337
     15          1           0       -5.345729    1.000645   -1.125093
     16          1           0       -5.646988   -1.637813    0.392046
     17          1           0       -5.415815   -1.489824   -1.346418
     18          1           0       -7.579650   -0.216845   -1.530854
     19          1           0       -7.812137   -0.365675    0.217488
     20          1           0       -7.844001   -1.811756   -0.805812
     21          6           0        5.341472    0.229250   -1.451919
     22          6           0        4.930918   -1.085215   -1.206662
     23          6           0        3.872675   -1.346909   -0.331342
     24          6           0        3.244587   -0.265385    0.284370
     25          6           0        3.630461    1.055322    0.060489
     26          6           0        4.691080    1.293447   -0.818677
     27          1           0        6.164464    0.423385   -2.133382
     28          1           0        5.434179   -1.913648   -1.697041
     29          1           0        3.534391   -2.354751   -0.123408
     30          1           0        3.109377    1.860448    0.564138
     31          1           0        5.007779    2.315300   -1.007251
     32          7           0        2.123015   -0.529954    1.213067
     33          8           0        1.586053    0.440345    1.743002
     34          8           0        1.802126   -1.702611    1.393463
 ---------------------------------------------------------------------

 SCF Done:  E(RHF) =  -669.535909399     A.U. after   15 cycles
 E2 =    -0.2091150511D+01 EUMP2 =    -0.67162705990933D+03

 The electronic state is 1-A.
 Alpha  occ. eigenvalues --  -20.60878 -20.60841 -15.85881 -11.31230 -11.27797
 Alpha  occ. eigenvalues --  -11.27791 -11.27540 -11.26810 -11.26800 -11.21058
 Alpha  occ. eigenvalues --  -11.20750 -11.20669 -11.20629 -11.20553 -11.19765
 Alpha  occ. eigenvalues --   -1.59916  -1.39472  -1.19401  -1.08802  -1.07697
 Alpha  occ. eigenvalues --   -1.04801  -1.02749  -0.95645  -0.95173  -0.86207
 Alpha  occ. eigenvalues --   -0.86179  -0.82473  -0.78829  -0.77537  -0.77476
 Alpha  occ. eigenvalues --   -0.72109  -0.71222  -0.70510  -0.65056  -0.64806
 Alpha  occ. eigenvalues --   -0.64333  -0.62148  -0.60148  -0.58590  -0.56795
 Alpha  occ. eigenvalues --   -0.55308  -0.54459  -0.53133  -0.52894  -0.51873
 Alpha  occ. eigenvalues --   -0.51602  -0.49201  -0.48866  -0.48791  -0.47135
 Alpha  occ. eigenvalues --   -0.45876  -0.45131  -0.44972  -0.44682  -0.43000
 Alpha  occ. eigenvalues --   -0.37380  -0.36403
 Alpha virt. eigenvalues --    0.04989   0.11250   0.16470   0.21366   0.23559
 Alpha virt. eigenvalues --    0.25076   0.27261   0.27375   0.28074   0.28210
 Alpha virt. eigenvalues --    0.28908   0.30918   0.32141   0.32223   0.32554

 Mulliken charges:
               1
     1  C   -0.297944
     2  C   -0.300905
     3  C   -0.474625
     4  H    0.153759
     5  H    0.147297
     6  H    0.150167
     7  H    0.145637
     8  H    0.144936
     9  H    0.178059
    10  H    0.154351
    11  C   -0.297597
    12  C   -0.299206
    13  C   -0.475295
    14  H    0.148776
    15  H    0.147182
    16  H    0.152978
    17  H    0.150774
    18  H    0.153780
    19  H    0.154748
    20  H    0.158855
    21  C   -0.170705
    22  C   -0.218618
    23  C   -0.170925
    24  C    0.158446
    25  C   -0.170453
    26  C   -0.218619
    27  H    0.225727
    28  H    0.223552
    29  H    0.275680
    30  H    0.276046
    31  H    0.223615
    32  N    0.488531
    33  O   -0.457813
    34  O   -0.460192
 Sum of Mulliken charges =  -0.00000

 Dipole moment (field-independent basis, Debye):
    X=              4.1912    Y=              0.8642    Z=             -3.1260  Tot=              5.2995
 Quadrupole moment (field-independent basis, Debye-Ang):
   XX=            -71.8610   YY=            -90.6825   ZZ=            -96.2216
   XY=              1.6421   XZ=            -10.5043   YZ=              2.0420

 Normal termination of Gaussian 16 at Thu May  6 10:28:13 2021.
