 Gaussian 16, Revision A.03,
 Gaussian 16:  EM64L-G16RevA.03 25-Dec-2016

 -------------
 #p 6-31g* mp2
 -------------

 ------------------------------------------------------
 Input file generated by CHIRIPA (05-May-2021 14:53:14)
 ------------------------------------------------------
 Symbolic Z-matrix:
 Charge =  0 Multiplicity = 1

                         Standard orientation:
 ---------------------------------------------------------------------
 Center     Atomic      Atomic             Coordinates (Angstroms)
 Number     Number       Type             X           Y           Z
 ---------------------------------------------------------------------
      1          6           0       -3.128604    1.067371   -0.524502
      2          6           0       -1.610537    1.249977   -0.535170
      3          6           0       -1.191072    2.697865   -0.791028
      4          1           0       -3.538913    1.405030   -1.486051
      5          1           0       -3.563760    1.717908    0.246754
      6          1           0       -1.178244    0.598261   -1.305238
      7          1           0       -1.203773    0.911665    0.426445
      8          1           0       -1.595032    3.358476   -0.017070
      9          1           0       -1.569358    3.043291   -1.758592
     10          1           0       -0.101932    2.805673   -0.794483
     11          6           0       -3.563537   -0.374762   -0.269913
     12          6           0       -5.081603   -0.557368   -0.259245
     13          6           0       -5.501068   -2.005256   -0.003387
     14          1           0       -3.128380   -1.025299   -1.041169
     15          1           0       -3.153227   -0.712422    0.691636
     16          1           0       -5.488367   -0.219056   -1.220860
     17          1           0       -5.513896    0.094348    0.510823
     18          1           0       -5.122782   -2.350683    0.964178
     19          1           0       -5.097108   -2.665867   -0.777345
     20          1           0       -6.590208   -2.113065    0.000068
     21          6           0        4.221100   -0.954825   -1.510478
     22          6           0        3.440268   -1.920444   -0.866737
     23          6           0        2.546544   -1.552748    0.143513
     24          6           0        2.458760   -0.204397    0.486346
     25          6           0        3.223167    0.781080   -0.136397
     26          6           0        4.110253    0.390483   -1.143899
     27          1           0        4.912788   -1.249354   -2.294196
     28          1           0        3.524258   -2.965967   -1.149354
     29          1           0        1.930090   -2.279644    0.658315
     30          1           0        3.117361    1.815525    0.167159
     31          1           0        4.715403    1.142561   -1.642114
     32          7           0        1.516128    0.196988    1.554398
     33          8           0        1.457432    1.391458    1.838006
     34          8           0        0.853838   -0.690476    2.087705
 ---------------------------------------------------------------------

 SCF Done:  E(RHF) =  -669.536370529     A.U. after   15 cycles
 E2 =    -0.2091992808D+01 EUMP2 =    -0.67162836333682D+03

 The electronic state is 1-A.
 Alpha  occ. eigenvalues --  -20.60919 -20.60910 -15.85934 -11.31264 -11.27828
 Alpha  occ. eigenvalues --  -11.27820 -11.27565 -11.26834 -11.26824 -11.21080
 Alpha  occ. eigenvalues --  -11.20810 -11.20742 -11.20680 -11.20629 -11.20352
 Alpha  occ. eigenvalues --   -1.59975  -1.39528  -1.19430  -1.08834  -1.07778
 Alpha  occ. eigenvalues --   -1.04827  -1.02901  -0.95677  -0.95358  -0.86379
 Alpha  occ. eigenvalues --   -0.86227  -0.82512  -0.78980  -0.77599  -0.77565
 Alpha  occ. eigenvalues --   -0.72159  -0.71296  -0.70540  -0.65086  -0.64831
 Alpha  occ. eigenvalues --   -0.64394  -0.62175  -0.60281  -0.58734  -0.56971
 Alpha  occ. eigenvalues --   -0.55333  -0.54638  -0.53154  -0.52920  -0.52067
 Alpha  occ. eigenvalues --   -0.51794  -0.49303  -0.48933  -0.48922  -0.47293
 Alpha  occ. eigenvalues --   -0.45979  -0.45153  -0.45022  -0.44914  -0.43153
 Alpha  occ. eigenvalues --   -0.37404  -0.36426
 Alpha virt. eigenvalues --    0.04919   0.11197   0.16411   0.21288   0.23533
 Alpha virt. eigenvalues --    0.24738   0.27101   0.27306   0.27766   0.28300
 Alpha virt. eigenvalues --    0.28692   0.30642   0.31667   0.32015   0.32395

 Mulliken charges:
               1
     1  C   -0.297117
     2  C   -0.309934
     3  C   -0.471369
     4  H    0.145636
     5  H    0.151293
     6  H    0.143949
     7  H    0.170221
     8  H    0.158947
     9  H    0.148678
    10  H    0.156850
    11  C   -0.299733
    12  C   -0.299215
    13  C   -0.475482
    14  H    0.145231
    15  H    0.157906
    16  H    0.149528
    17  H    0.152514
    18  H    0.156878
    19  H    0.152867
    20  H    0.158468
    21  C   -0.170548
    22  C   -0.218658
    23  C   -0.170642
    24  C    0.159684
    25  C   -0.171445
    26  C   -0.218549
    27  H    0.225903
    28  H    0.223748
    29  H    0.275927
    30  H    0.275956
    31  H    0.223806
    32  N    0.488406
    33  O   -0.459525
    34  O   -0.460181
 Sum of Mulliken charges =  -0.00000

 Dipole moment (field-independent basis, Debye):
    X=              3.4644    Y=             -1.4342    Z=             -3.5872  Tot=              5.1891
 Quadrupole moment (field-independent basis, Debye-Ang):
   XX=            -79.2530   YY=            -90.7443   ZZ=            -98.3033
   XY=             -3.2798   XZ=             -8.4659   YZ=              0.0617

 Normal termination of Gaussian 16 at Thu May  6 17:08:59 2021.
