 Gaussian 16, Revision A.03,
 Gaussian 16:  EM64L-G16RevA.03 25-Dec-2016

 -------------
 #p 6-31g* mp2
 -------------

 ------------------------------------------------------
 Input file generated by CHIRIPA (05-May-2021 14:57:22)
 ------------------------------------------------------
 Symbolic Z-matrix:
 Charge =  0 Multiplicity = 1

                         Standard orientation:
 ---------------------------------------------------------------------
 Center     Atomic      Atomic             Coordinates (Angstroms)
 Number     Number       Type             X           Y           Z
 ---------------------------------------------------------------------
      1          6           0        2.333843    0.042274    0.987317
      2          6           0        2.783477    1.106722    0.199090
      3          6           0        4.080286    1.105149   -0.323244
      4          6           0        4.904496    0.018165   -0.036135
      5          6           0        4.485652   -1.057161    0.745871
      6          6           0        3.184866   -1.034372    1.257715
      7          1           0        1.324906    0.051737    1.389004
      8          1           0        2.124752    1.944182   -0.012542
      9          1           0        4.454086    1.916159   -0.936396
     10          1           0        5.165382   -1.878051    0.939582
     11          1           0        2.838369   -1.862404    1.869555
     12          7           0        6.279475    0.005270   -0.583554
     13          8           0        6.986118   -0.964127   -0.316042
     14          8           0        6.624504    0.964803   -1.269766
     15          6           0       -2.198155    0.068548    0.403056
     16          6           0       -3.012926    1.151675    0.748753
     17          6           0       -4.388163    1.113428    0.500139
     18          6           0       -4.917614   -0.028879   -0.098281
     19          6           0       -4.132054   -1.124074   -0.454277
     20          6           0       -2.759330   -1.063873   -0.196299
     21          1           0       -1.130814    0.106787    0.599823
     22          1           0       -2.579854    2.032427    1.214337
     23          1           0       -5.042064    1.937787    0.757557
     24          1           0       -4.592669   -1.988361   -0.917158
     25          1           0       -2.128992   -1.906527   -0.465840
     26          7           0       -6.372186   -0.080990   -0.366435
     27          8           0       -6.814228   -1.098922   -0.894688
     28          8           0       -7.042695    0.897083   -0.043283
 ---------------------------------------------------------------------

 SCF Done:  E(RHF) =  -868.336297880     A.U. after   16 cycles
 E2 =    -0.2599635640D+01 EUMP2 =    -0.87093593351948D+03

 The electronic state is 1-A.
 Alpha  occ. eigenvalues --  -20.61364 -20.61359 -20.61289 -20.61284 -15.86422
 Alpha  occ. eigenvalues --  -15.86347 -11.31961 -11.31861 -11.28529 -11.28518
 Alpha  occ. eigenvalues --  -11.28462 -11.28436 -11.28422 -11.28356 -11.27661
 Alpha  occ. eigenvalues --  -11.27629 -11.27551 -11.27520  -1.60435  -1.60360
 Alpha  occ. eigenvalues --   -1.39983  -1.39910  -1.20159  -1.20058  -1.09557
 Alpha  occ. eigenvalues --   -1.09455  -1.05575  -1.05474  -0.96364  -0.96256
 Alpha  occ. eigenvalues --   -0.86983  -0.86882  -0.83183  -0.83070  -0.78160
 Alpha  occ. eigenvalues --   -0.78073  -0.72639  -0.72563  -0.71759  -0.71684
 Alpha  occ. eigenvalues --   -0.71549  -0.71072  -0.65823  -0.65723  -0.65596
 Alpha  occ. eigenvalues --   -0.65486  -0.62907  -0.62809  -0.56472  -0.55813
 Alpha  occ. eigenvalues --   -0.53904  -0.53804  -0.53678  -0.53577  -0.49412
 Alpha  occ. eigenvalues --   -0.49381  -0.49335  -0.49308  -0.45349  -0.45281
 Alpha  occ. eigenvalues --   -0.38199  -0.38090  -0.37162  -0.37063
 Alpha virt. eigenvalues --    0.04340   0.04448   0.10472   0.10579   0.15667
 Alpha virt. eigenvalues --    0.15880   0.17680   0.21847   0.24722   0.26432
 Alpha virt. eigenvalues --    0.26716   0.29272   0.29746   0.31682   0.31946

 Mulliken charges:
               1
     1  C   -0.176565
     2  C   -0.218433
     3  C   -0.169988
     4  C    0.159744
     5  C   -0.170084
     6  C   -0.218414
     7  H    0.220087
     8  H    0.222022
     9  H    0.278164
    10  H    0.278120
    11  H    0.224997
    12  N    0.487837
    13  O   -0.458290
    14  O   -0.458323
    15  C   -0.173819
    16  C   -0.219526
    17  C   -0.169929
    18  C    0.159413
    19  C   -0.169939
    20  C   -0.219493
    21  H    0.218941
    22  H    0.222441
    23  H    0.277650
    24  H    0.277943
    25  H    0.224824
    26  N    0.487840
    27  O   -0.458473
    28  O   -0.458743
 Sum of Mulliken charges =  -0.00000

 Dipole moment (field-independent basis, Debye):
    X=              0.3224    Y=              0.1895    Z=              2.7868  Tot=              2.8118
 Quadrupole moment (field-independent basis, Debye-Ang):
   XX=           -201.4876   YY=            -96.7979   ZZ=           -104.8708
   XY=             -2.3293   XZ=              4.7002   YZ=             -0.2186

 Normal termination of Gaussian 16 at Wed May  5 22:35:32 2021.
