 Gaussian 16, Revision A.03,
 Gaussian 16:  EM64L-G16RevA.03 25-Dec-2016

 -------------
 #p 6-31g* mp2
 -------------

 ------------------------------------------------------
 Input file generated by CHIRIPA (05-May-2021 14:53:14)
 ------------------------------------------------------
 Symbolic Z-matrix:
 Charge =  0 Multiplicity = 1

                         Standard orientation:
 ---------------------------------------------------------------------
 Center     Atomic      Atomic             Coordinates (Angstroms)
 Number     Number       Type             X           Y           Z
 ---------------------------------------------------------------------
      1          6           0        4.961361   -0.223823   -0.163783
      2          6           0        5.131522   -1.195346    1.004623
      3          6           0        6.556668   -1.736979    1.120324
      4          1           0        5.239242   -0.731250   -1.097723
      5          1           0        5.663618    0.612404   -0.041493
      6          1           0        4.428186   -2.028788    0.880891
      7          1           0        4.853021   -0.685606    1.935869
      8          1           0        7.268919   -0.918797    1.268236
      9          1           0        6.841671   -2.269611    0.207264
     10          1           0        6.655868   -2.429464    1.962038
     11          6           0        3.541992    0.326221   -0.292517
     12          6           0        3.371831    1.297744   -1.460923
     13          6           0        1.946685    1.839377   -1.576624
     14          1           0        2.839735   -0.510006   -0.414807
     15          1           0        3.264111    0.833648    0.641423
     16          1           0        3.650332    0.788004   -2.392169
     17          1           0        4.075167    2.131186   -1.337191
     18          1           0        1.661682    2.372009   -0.663564
     19          1           0        1.234434    1.021195   -1.724536
     20          1           0        1.847485    2.531863   -2.418339
     21          6           0       -2.029991    1.805245    1.315206
     22          6           0       -3.216849    1.329488    1.882256
     23          6           0       -3.940732    0.307424    1.261026
     24          6           0       -3.446492   -0.218390    0.068325
     25          6           0       -2.267295    0.234336   -0.521439
     26          6           0       -1.559831    1.257117    0.117279
     27          1           0       -1.474038    2.599487    1.804585
     28          1           0       -3.584368    1.753294    2.812505
     29          1           0       -4.862467   -0.079670    1.678136
     30          1           0       -1.926085   -0.207917   -1.449559
     31          1           0       -0.638408    1.624628   -0.325393
     32          7           0       -4.204144   -1.300784   -0.598601
     33          8           0       -3.747484   -1.747325   -1.648696
     34          8           0       -5.240305   -1.682126   -0.058615
 ---------------------------------------------------------------------

 SCF Done:  E(RHF) =  -669.535113362     A.U. after   15 cycles
 E2 =    -0.2091463094D+01 EUMP2 =    -0.67162657645609D+03

 The electronic state is 1-A.
 Alpha  occ. eigenvalues --  -20.60690 -20.60685 -15.85741 -11.31080 -11.27640
 Alpha  occ. eigenvalues --  -11.27618 -11.27360 -11.26663 -11.26525 -11.22440
 Alpha  occ. eigenvalues --  -11.22306 -11.22060 -11.21997 -11.21868 -11.21382
 Alpha  occ. eigenvalues --   -1.59766  -1.39320  -1.19238  -1.09059  -1.08639
 Alpha  occ. eigenvalues --   -1.04637  -1.04201  -0.96689  -0.95484  -0.87730
 Alpha  occ. eigenvalues --   -0.86030  -0.82319  -0.80295  -0.78830  -0.77361
 Alpha  occ. eigenvalues --   -0.71960  -0.71088  -0.70359  -0.65683  -0.64888
 Alpha  occ. eigenvalues --   -0.64663  -0.62029  -0.61597  -0.60049  -0.58259
 Alpha  occ. eigenvalues --   -0.55987  -0.55152  -0.53440  -0.53276  -0.52968
 Alpha  occ. eigenvalues --   -0.52475  -0.50642  -0.48757  -0.48718  -0.48509
 Alpha  occ. eigenvalues --   -0.47296  -0.46375  -0.46270  -0.44732  -0.44425
 Alpha  occ. eigenvalues --   -0.37223  -0.36232
 Alpha virt. eigenvalues --    0.05156   0.11410   0.16648   0.20564   0.22415
 Alpha virt. eigenvalues --    0.23843   0.25465   0.25793   0.27119   0.27626
 Alpha virt. eigenvalues --    0.29191   0.30377   0.30789   0.31292   0.32147

 Mulliken charges:
               1
     1  C   -0.298880
     2  C   -0.300199
     3  C   -0.476111
     4  H    0.151686
     5  H    0.150129
     6  H    0.153687
     7  H    0.151439
     8  H    0.155297
     9  H    0.156350
    10  H    0.161673
    11  C   -0.299289
    12  C   -0.299346
    13  C   -0.482549
    14  H    0.151333
    15  H    0.147672
    16  H    0.156703
    17  H    0.154854
    18  H    0.149355
    19  H    0.152794
    20  H    0.166746
    21  C   -0.173980
    22  C   -0.218248
    23  C   -0.171812
    24  C    0.159050
    25  C   -0.175531
    26  C   -0.226700
    27  H    0.224887
    28  H    0.222747
    29  H    0.275059
    30  H    0.274638
    31  H    0.240132
    32  N    0.488092
    33  O   -0.460851
    34  O   -0.460827
 Sum of Mulliken charges =  -0.00000

 Dipole moment (field-independent basis, Debye):
    X=              2.9526    Y=              3.8021    Z=              2.2937  Tot=              5.3325
 Quadrupole moment (field-independent basis, Debye-Ang):
   XX=           -111.5105   YY=            -96.7671   ZZ=            -91.6728
   XY=            -13.2997   XZ=            -11.1209   YZ=              0.3985

 Normal termination of Gaussian 16 at Thu May  6 13:46:43 2021.
