 Gaussian 16, Revision A.03,
 Gaussian 16:  EM64L-G16RevA.03 25-Dec-2016

 -------------
 #p 6-31g* mp2
 -------------

 ------------------------------------------------------
 Input file generated by CHIRIPA (05-May-2021 14:51:13)
 ------------------------------------------------------
 Symbolic Z-matrix:
 Charge =  0 Multiplicity = 1

                         Standard orientation:
 ---------------------------------------------------------------------
 Center     Atomic      Atomic             Coordinates (Angstroms)
 Number     Number       Type             X           Y           Z
 ---------------------------------------------------------------------
      1          6           0        3.358526   -0.117167   -0.031972
      2          6           0        3.670636   -1.057022   -1.196980
      3          6           0        4.426112   -2.311812   -0.758173
      4          1           0        4.297640    0.171620    0.459568
      5          1           0        2.766590   -0.658969    0.718666
      6          1           0        4.260630   -0.513206   -1.945837
      7          1           0        2.730684   -1.343453   -1.685923
      8          1           0        3.839807   -2.878840   -0.027881
      9          1           0        5.378446   -2.043876   -0.289271
     10          1           0        4.638923   -2.969591   -1.606642
     11          6           0        2.603517    1.141777   -0.454763
     12          6           0        2.291408    2.081632    0.710246
     13          6           0        1.535932    3.336422    0.271438
     14          1           0        3.195453    1.683579   -1.205401
     15          1           0        1.664403    0.852990   -0.946303
     16          1           0        3.231359    2.368063    1.199188
     17          1           0        1.701413    1.537816    1.459102
     18          1           0        0.583597    3.068486   -0.197464
     19          1           0        2.122236    3.903450   -0.458854
     20          1           0        1.323120    3.994201    1.119907
     21          6           0       -3.741860   -0.532791    0.179041
     22          6           0       -4.275288    0.309697   -0.980119
     23          6           0       -5.799030    0.258593   -1.095846
     24          1           0       -4.066251   -1.574057    0.046828
     25          1           0       -4.193737   -0.181323    1.116950
     26          1           0       -3.821484   -0.042356   -1.915393
     27          1           0       -3.949428    1.349042   -0.845232
     28          1           0       -6.267697    0.629431   -0.178552
     29          1           0       -6.139026   -0.769872   -1.254791
     30          1           0       -6.158886    0.867752   -1.930885
     31          6           0       -2.220183   -0.491819    0.307694
     32          6           0       -1.686755   -1.334307    1.466854
     33          6           0       -0.163013   -1.283203    1.582582
     34          1           0       -1.768307   -0.843287   -0.630214
     35          1           0       -1.895792    0.549447    0.439907
     36          1           0       -2.012616   -2.373652    1.331968
     37          1           0       -2.140560   -0.982254    2.402127
     38          1           0        0.176982   -0.254738    1.741527
     39          1           0        0.305655   -1.654042    0.665287
     40          1           0        0.196843   -1.892362    2.417620
 ---------------------------------------------------------------------

 SCF Done:  E(RHF) =  -470.732896989     A.U. after   11 cycles
 E2 =    -0.1583944510D+01 EUMP2 =    -0.47231684149923D+03

 The electronic state is 1-A.
 Alpha  occ. eigenvalues --  -11.21686 -11.21643 -11.21554 -11.21546 -11.21480
 Alpha  occ. eigenvalues --  -11.21413 -11.21308 -11.21224 -11.21172 -11.21101
 Alpha  occ. eigenvalues --  -11.21059 -11.21027  -1.08504  -1.08355  -1.03602
 Alpha  occ. eigenvalues --   -1.03484  -0.96066  -0.95918  -0.87080  -0.86945
 Alpha  occ. eigenvalues --   -0.79680  -0.79548  -0.78324  -0.78152  -0.65142
 Alpha  occ. eigenvalues --   -0.65005  -0.61129  -0.60779  -0.59416  -0.59297
 Alpha  occ. eigenvalues --   -0.57663  -0.57536  -0.55370  -0.55201  -0.52756
 Alpha  occ. eigenvalues --   -0.52646  -0.52471  -0.52347  -0.50128  -0.49761
 Alpha  occ. eigenvalues --   -0.48041  -0.47855  -0.46803  -0.46456  -0.45984
 Alpha  occ. eigenvalues --   -0.45772  -0.45662  -0.45420  -0.43849  -0.43722
 Alpha virt. eigenvalues --    0.20280   0.22753   0.23352   0.24871   0.25653
 Alpha virt. eigenvalues --    0.26357   0.26658   0.27884   0.28303   0.29645
 Alpha virt. eigenvalues --    0.30081   0.31157   0.31623   0.32009   0.32394

 Mulliken charges:
               1
     1  C   -0.304351
     2  C   -0.299822
     3  C   -0.475709
     4  H    0.148865
     5  H    0.158455
     6  H    0.151701
     7  H    0.151008
     8  H    0.155226
     9  H    0.155176
    10  H    0.159853
    11  C   -0.298231
    12  C   -0.304938
    13  C   -0.476098
    14  H    0.149202
    15  H    0.150452
    16  H    0.152076
    17  H    0.156002
    18  H    0.155140
    19  H    0.155464
    20  H    0.159756
    21  C   -0.298304
    22  C   -0.299768
    23  C   -0.475759
    24  H    0.149896
    25  H    0.149814
    26  H    0.151973
    27  H    0.152089
    28  H    0.155296
    29  H    0.155237
    30  H    0.160464
    31  C   -0.298923
    32  C   -0.300366
    33  C   -0.483282
    34  H    0.149293
    35  H    0.149698
    36  H    0.152327
    37  H    0.152341
    38  H    0.161623
    39  H    0.156319
    40  H    0.160805
 Sum of Mulliken charges =  -0.00000

 Dipole moment (field-independent basis, Debye):
    X=             -0.0384    Y=             -0.0184    Z=              0.0276  Tot=              0.0507
 Quadrupole moment (field-independent basis, Debye-Ang):
   XX=            -85.5162   YY=            -84.8788   ZZ=            -84.4434
   XY=              0.9592   XZ=             -0.4474   YZ=              0.5687

 Normal termination of Gaussian 16 at Wed May  5 15:21:54 2021.
