 Gaussian 16, Revision A.03,
 Gaussian 16:  EM64L-G16RevA.03 25-Dec-2016

 -------------
 #p 6-31g* mp2
 -------------

 ------------------------------------------------------
 Input file generated by CHIRIPA (05-May-2021 14:53:15)
 ------------------------------------------------------
 Symbolic Z-matrix:
 Charge =  0 Multiplicity = 1

                         Standard orientation:
 ---------------------------------------------------------------------
 Center     Atomic      Atomic             Coordinates (Angstroms)
 Number     Number       Type             X           Y           Z
 ---------------------------------------------------------------------
      1          6           0       -4.388103    0.396971   -0.240628
      2          6           0       -3.648643    1.541054    0.453820
      3          6           0       -2.291639    1.840983   -0.183656
      4          1           0       -3.761746   -0.505219   -0.214630
      5          1           0       -4.527859    0.650014   -1.300737
      6          1           0       -3.511546    1.286532    1.512612
      7          1           0       -4.276914    2.440575    0.426335
      8          1           0       -2.413290    2.120139   -1.235261
      9          1           0       -1.643574    0.959539   -0.142813
     10          1           0       -1.780252    2.662077    0.328348
     11          6           0       -5.746359    0.085296    0.385253
     12          6           0       -6.485819   -1.058787   -0.309196
     13          6           0       -7.842823   -1.358716    0.328281
     14          1           0       -5.606603   -0.167747    1.445362
     15          1           0       -6.372716    0.987486    0.359254
     16          1           0       -5.857549   -1.958307   -0.281710
     17          1           0       -6.622916   -0.804264   -1.367987
     18          1           0       -8.490889   -0.477271    0.287438
     19          1           0       -7.721172   -1.637871    1.379886
     20          1           0       -8.354211   -2.179809   -0.183723
     21          6           0        1.488184   -0.110862   -0.562556
     22          6           0        2.133592   -1.342667   -0.412134
     23          6           0        3.502113   -1.397615   -0.131633
     24          6           0        4.197622   -0.195880   -0.007570
     25          6           0        3.582966    1.046965   -0.151873
     26          6           0        2.213652    1.077927   -0.432175
     27          1           0        0.424776   -0.077494   -0.780378
     28          1           0        1.572709   -2.267498   -0.512850
     29          1           0        4.026808   -2.337500   -0.010272
     30          1           0        4.168680    1.952008   -0.045785
     31          1           0        1.715045    2.036002   -0.548479
     32          7           0        5.646833   -0.241355    0.289278
     33          8           0        6.237122    0.831621    0.393775
     34          8           0        6.164996   -1.349112    0.411829
 ---------------------------------------------------------------------

 SCF Done:  E(RHF) =  -669.535560567     A.U. after   15 cycles
 E2 =    -0.2090781553D+01 EUMP2 =    -0.67162634212004D+03

 The electronic state is 1-A.
 Alpha  occ. eigenvalues --  -20.60720 -20.60715 -15.85774 -11.31129 -11.27699
 Alpha  occ. eigenvalues --  -11.27691 -11.27404 -11.26710 -11.26688 -11.22527
 Alpha  occ. eigenvalues --  -11.22330 -11.22205 -11.22162 -11.22014 -11.21532
 Alpha  occ. eigenvalues --   -1.59796  -1.39350  -1.19298  -1.09186  -1.08692
 Alpha  occ. eigenvalues --   -1.04700  -1.04312  -0.96787  -0.95530  -0.87810
 Alpha  occ. eigenvalues --   -0.86094  -0.82366  -0.80387  -0.78968  -0.77414
 Alpha  occ. eigenvalues --   -0.71991  -0.71119  -0.70423  -0.65813  -0.64948
 Alpha  occ. eigenvalues --   -0.64703  -0.62049  -0.61710  -0.60163  -0.58384
 Alpha  occ. eigenvalues --   -0.56156  -0.55169  -0.53479  -0.53187  -0.53027
 Alpha  occ. eigenvalues --   -0.52788  -0.50717  -0.48760  -0.48747  -0.48682
 Alpha  occ. eigenvalues --   -0.47399  -0.46521  -0.46416  -0.44758  -0.44552
 Alpha  occ. eigenvalues --   -0.37271  -0.36307
 Alpha virt. eigenvalues --    0.05111   0.11345   0.16573   0.19985   0.22313
 Alpha virt. eigenvalues --    0.23747   0.25319   0.26181   0.26675   0.27381
 Alpha virt. eigenvalues --    0.28826   0.29866   0.30947   0.31445   0.32266

 Mulliken charges:
               1
     1  C   -0.298469
     2  C   -0.299277
     3  C   -0.481592
     4  H    0.146482
     5  H    0.150548
     6  H    0.154916
     7  H    0.155969
     8  H    0.157791
     9  H    0.147069
    10  H    0.162561
    11  C   -0.298928
    12  C   -0.300048
    13  C   -0.476113
    14  H    0.150818
    15  H    0.151413
    16  H    0.151471
    17  H    0.152515
    18  H    0.156165
    19  H    0.155964
    20  H    0.161631
    21  C   -0.175435
    22  C   -0.219733
    23  C   -0.170882
    24  C    0.158389
    25  C   -0.171064
    26  C   -0.221004
    27  H    0.233432
    28  H    0.223275
    29  H    0.275290
    30  H    0.275394
    31  H    0.224626
    32  N    0.488039
    33  O   -0.460586
    34  O   -0.460627
 Sum of Mulliken charges =  -0.00000

 Dipole moment (field-independent basis, Debye):
    X=             -5.3604    Y=              0.2106    Z=             -1.0196  Tot=              5.4606
 Quadrupole moment (field-independent basis, Debye-Ang):
   XX=           -138.1952   YY=            -89.3121   ZZ=            -95.3548
   XY=              1.1162   XZ=             -3.8449   YZ=             -0.1349

 Normal termination of Gaussian 16 at Thu May  6 07:27:15 2021.
