 Gaussian 16, Revision A.03,
 Gaussian 16:  EM64L-G16RevA.03 25-Dec-2016

 -------------
 #p 6-31g* mp2
 -------------

 ------------------------------------------------------
 Input file generated by CHIRIPA (05-May-2021 14:51:07)
 ------------------------------------------------------
 Symbolic Z-matrix:
 Charge =  0 Multiplicity = 1

                         Standard orientation:
 ---------------------------------------------------------------------
 Center     Atomic      Atomic             Coordinates (Angstroms)
 Number     Number       Type             X           Y           Z
 ---------------------------------------------------------------------
      1          6           0        3.052788   -0.629545   -0.524552
      2          6           0        3.660216   -0.915898    0.849136
      3          6           0        4.383679   -2.261662    0.906706
      4          1           0        2.352499   -1.435310   -0.783940
      5          1           0        3.848909   -0.651583   -1.281587
      6          1           0        2.863402   -0.891958    1.603543
      7          1           0        4.358997   -0.109259    1.105368
      8          1           0        5.197932   -2.292895    0.175530
      9          1           0        3.693839   -3.080041    0.676536
     10          1           0        4.810254   -2.446075    1.897608
     11          6           0        2.326164    0.712234   -0.597874
     12          6           0        1.718737    0.998587   -1.971562
     13          6           0        0.995273    2.344351   -2.029132
     14          1           0        1.530044    0.734273    0.159161
     15          1           0        3.026454    1.517999   -0.338486
     16          1           0        1.019956    0.191948   -2.227794
     17          1           0        2.515550    0.974647   -2.725969
     18          1           0        1.685113    3.162730   -1.798962
     19          1           0        0.181021    2.375584   -1.297956
     20          1           0        0.568699    2.528765   -3.020033
     21          6           0       -3.373860   -0.220464    0.273172
     22          6           0       -3.337362   -1.418073   -0.676768
     23          6           0       -4.714059   -1.764191   -1.244836
     24          1           0       -4.068605   -0.434860    1.096767
     25          1           0       -3.780691    0.649675   -0.260441
     26          1           0       -2.929431   -2.285336   -0.141922
     27          1           0       -2.642478   -1.200877   -1.498095
     28          1           0       -5.125046   -0.916306   -1.802314
     29          1           0       -5.413629   -2.006926   -0.438435
     30          1           0       -4.664848   -2.623165   -1.921299
     31          6           0       -2.005093    0.137775    0.849253
     32          6           0       -2.041590    1.335383    1.799194
     33          6           0       -0.664893    1.681501    2.367261
     34          1           0       -1.598262   -0.732364    1.382866
     35          1           0       -1.310348    0.352171    0.025659
     36          1           0       -2.736475    1.118188    2.620521
     37          1           0       -2.449522    2.202647    1.264347
     38          1           0        0.034676    1.924237    1.560860
     39          1           0       -0.253907    0.833616    2.924739
     40          1           0       -0.714104    2.540475    3.043724
 ---------------------------------------------------------------------

 SCF Done:  E(RHF) =  -470.733040288     A.U. after   11 cycles
 E2 =    -0.1584021800D+01 EUMP2 =    -0.47231706208741D+03

 The electronic state is 1-A.
 Alpha  occ. eigenvalues --  -11.21655 -11.21650 -11.21625 -11.21568 -11.21473
 Alpha  occ. eigenvalues --  -11.21409 -11.21366 -11.21303 -11.21137 -11.21104
 Alpha  occ. eigenvalues --  -11.21092 -11.21048  -1.08501  -1.08409  -1.03591
 Alpha  occ. eigenvalues --   -1.03526  -0.96034  -0.95978  -0.87052  -0.86994
 Alpha  occ. eigenvalues --   -0.79678  -0.79569  -0.78367  -0.78172  -0.65265
 Alpha  occ. eigenvalues --   -0.64930  -0.61101  -0.60816  -0.59420  -0.59324
 Alpha  occ. eigenvalues --   -0.57676  -0.57566  -0.55373  -0.55228  -0.52715
 Alpha  occ. eigenvalues --   -0.52686  -0.52510  -0.52363  -0.50028  -0.49887
 Alpha  occ. eigenvalues --   -0.48106  -0.47855  -0.46831  -0.46534  -0.46091
 Alpha  occ. eigenvalues --   -0.45787  -0.45729  -0.45232  -0.43835  -0.43777
 Alpha virt. eigenvalues --    0.19475   0.23210   0.23517   0.24136   0.26073
 Alpha virt. eigenvalues --    0.26566   0.26782   0.27900   0.28431   0.29967
 Alpha virt. eigenvalues --    0.30153   0.31306   0.31499   0.31865   0.32040

 Mulliken charges:
               1
     1  C   -0.297600
     2  C   -0.299814
     3  C   -0.475733
     4  H    0.149780
     5  H    0.149245
     6  H    0.152380
     7  H    0.151911
     8  H    0.155101
     9  H    0.155095
    10  H    0.160142
    11  C   -0.307958
    12  C   -0.299510
    13  C   -0.479830
    14  H    0.159820
    15  H    0.149174
    16  H    0.151673
    17  H    0.152308
    18  H    0.155808
    19  H    0.157031
    20  H    0.160577
    21  C   -0.298091
    22  C   -0.299746
    23  C   -0.475755
    24  H    0.150043
    25  H    0.149909
    26  H    0.151838
    27  H    0.151755
    28  H    0.155410
    29  H    0.155298
    30  H    0.160387
    31  C   -0.303818
    32  C   -0.299531
    33  C   -0.482862
    34  H    0.149311
    35  H    0.153837
    36  H    0.152348
    37  H    0.152051
    38  H    0.162425
    39  H    0.154637
    40  H    0.160955
 Sum of Mulliken charges =  -0.00000

 Dipole moment (field-independent basis, Debye):
    X=             -0.0160    Y=              0.0078    Z=              0.0125  Tot=              0.0217
 Quadrupole moment (field-independent basis, Debye-Ang):
   XX=            -85.1439   YY=            -85.1963   ZZ=            -84.3742
   XY=              0.7194   XZ=             -0.9391   YZ=             -0.6171

 Normal termination of Gaussian 16 at Wed May  5 15:02:03 2021.
