 Gaussian 16, Revision A.03,
 Gaussian 16:  EM64L-G16RevA.03 25-Dec-2016

 -------------
 #p 6-31g* mp2
 -------------

 ------------------------------------------------------
 Input file generated by CHIRIPA (05-May-2021 14:51:08)
 ------------------------------------------------------
 Symbolic Z-matrix:
 Charge =  0 Multiplicity = 1

                         Standard orientation:
 ---------------------------------------------------------------------
 Center     Atomic      Atomic             Coordinates (Angstroms)
 Number     Number       Type             X           Y           Z
 ---------------------------------------------------------------------
      1          6           0       -2.965916    0.729269    0.322303
      2          6           0       -2.179129    1.887611   -0.291858
      3          6           0       -1.053478    2.384580    0.615735
      4          1           0       -3.384467    1.049087    1.286397
      5          1           0       -2.276666   -0.098366    0.539905
      6          1           0       -2.869886    2.712291   -0.509512
      7          1           0       -1.762563    1.565059   -1.254692
      8          1           0       -0.341872    1.578896    0.823317
      9          1           0       -1.455486    2.732647    1.572731
     10          1           0       -0.504077    3.212698    0.157216
     11          6           0       -4.094634    0.221461   -0.573160
     12          6           0       -4.881421   -0.936881    0.041001
     13          6           0       -6.007072   -1.433850   -0.866592
     14          1           0       -4.783884    1.049096   -0.790762
     15          1           0       -3.676083   -0.098357   -1.537254
     16          1           0       -5.297987   -0.614329    1.003835
     17          1           0       -4.190664   -1.761561    0.258655
     18          1           0       -5.605064   -1.781917   -1.823588
     19          1           0       -6.718678   -0.628166   -1.074174
     20          1           0       -6.556473   -2.261968   -0.408073
     21          6           0        4.010373   -0.379030   -0.460794
     22          6           0        5.433944   -0.027632   -0.027260
     23          6           0        6.382662    0.161962   -1.211229
     24          1           0        4.033683   -1.296660   -1.064413
     25          1           0        3.627081    0.416000   -1.115324
     26          1           0        5.813930   -0.822416    0.627374
     27          1           0        5.407220    0.889163    0.575558
     28          1           0        6.029980    0.968487   -1.862177
     29          1           0        6.439002   -0.752817   -1.810067
     30          1           0        7.394784    0.412537   -0.878540
     31          6           0        3.050176   -0.571700    0.711652
     32          6           0        1.626606   -0.923098    0.278116
     33          6           0        0.677888   -1.112693    1.462085
     34          1           0        3.433469   -1.366730    1.366182
     35          1           0        3.026868    0.345930    1.315271
     36          1           0        1.653330   -1.839893   -0.324701
     37          1           0        1.246620   -0.128314   -0.376516
     38          1           0        0.621548   -0.197914    2.060923
     39          1           0        1.030570   -1.919217    2.113033
     40          1           0       -0.334234   -1.363267    1.129398
 ---------------------------------------------------------------------

 SCF Done:  E(RHF) =  -470.732243728     A.U. after   11 cycles
 E2 =    -0.1584031981D+01 EUMP2 =    -0.47231627570917D+03

 The electronic state is 1-A.
 Alpha  occ. eigenvalues --  -11.21668 -11.21616 -11.21591 -11.21576 -11.21437
 Alpha  occ. eigenvalues --  -11.21375 -11.21369 -11.21301 -11.21123 -11.21082
 Alpha  occ. eigenvalues --  -11.21061 -11.20994  -1.08479  -1.08397  -1.03614
 Alpha  occ. eigenvalues --   -1.03476  -0.96049  -0.95939  -0.87050  -0.86973
 Alpha  occ. eigenvalues --   -0.79663  -0.79553  -0.78280  -0.78217  -0.65226
 Alpha  occ. eigenvalues --   -0.64963  -0.61274  -0.60680  -0.59444  -0.59267
 Alpha  occ. eigenvalues --   -0.57677  -0.57537  -0.55540  -0.55035  -0.52777
 Alpha  occ. eigenvalues --   -0.52642  -0.52523  -0.52275  -0.50062  -0.49814
 Alpha  occ. eigenvalues --   -0.47966  -0.47831  -0.46700  -0.46560  -0.45824
 Alpha  occ. eigenvalues --   -0.45744  -0.45731  -0.45650  -0.43785  -0.43754
 Alpha virt. eigenvalues --    0.20528   0.23010   0.23710   0.24925   0.25865
 Alpha virt. eigenvalues --    0.26467   0.26952   0.27573   0.27874   0.29434
 Alpha virt. eigenvalues --    0.30847   0.31280   0.31543   0.31770   0.32184

 Mulliken charges:
               1
     1  C   -0.305528
     2  C   -0.298788
     3  C   -0.485267
     4  H    0.149539
     5  H    0.156686
     6  H    0.151824
     7  H    0.151239
     8  H    0.166792
     9  H    0.154708
    10  H    0.159158
    11  C   -0.297868
    12  C   -0.299489
    13  C   -0.475675
    14  H    0.149469
    15  H    0.149386
    16  H    0.152076
    17  H    0.151291
    18  H    0.155134
    19  H    0.155211
    20  H    0.160218
    21  C   -0.298383
    22  C   -0.299734
    23  C   -0.475738
    24  H    0.149586
    25  H    0.149817
    26  H    0.151942
    27  H    0.152181
    28  H    0.155256
    29  H    0.155148
    30  H    0.160338
    31  C   -0.298302
    32  C   -0.303496
    33  C   -0.483682
    34  H    0.149851
    35  H    0.150138
    36  H    0.152448
    37  H    0.154011
    38  H    0.157206
    39  H    0.156914
    40  H    0.164383
 Sum of Mulliken charges =  -0.00000

 Dipole moment (field-independent basis, Debye):
    X=              0.0356    Y=             -0.0252    Z=              0.0214  Tot=              0.0486
 Quadrupole moment (field-independent basis, Debye-Ang):
   XX=            -85.7209   YY=            -83.6940   ZZ=            -85.4428
   XY=             -1.1693   XZ=             -0.1469   YZ=              0.1386

 Normal termination of Gaussian 16 at Thu May  6 06:52:51 2021.
