 Gaussian 16, Revision A.03,
 Gaussian 16:  EM64L-G16RevA.03 25-Dec-2016

 -------------
 #p 6-31g* mp2
 -------------

 ------------------------------------------------------
 Input file generated by CHIRIPA (05-May-2021 14:51:07)
 ------------------------------------------------------
 Symbolic Z-matrix:
 Charge =  0 Multiplicity = 1

                         Standard orientation:
 ---------------------------------------------------------------------
 Center     Atomic      Atomic             Coordinates (Angstroms)
 Number     Number       Type             X           Y           Z
 ---------------------------------------------------------------------
      1          6           0        2.871455   -0.520281   -0.269657
      2          6           0        2.217049   -1.348099   -1.376208
      3          6           0        2.456388   -2.849237   -1.211601
      4          1           0        3.951357   -0.721913   -0.259553
      5          1           0        2.482818   -0.849905    0.703844
      6          1           0        2.605776   -1.016071   -2.347426
      7          1           0        1.138608   -1.144328   -1.383804
      8          1           0        2.052627   -3.201297   -0.256806
      9          1           0        3.528132   -3.072311   -1.225903
     10          1           0        1.979907   -3.422030   -2.013308
     11          6           0        2.641074    0.982357   -0.420426
     12          6           0        3.295480    1.810176    0.686125
     13          6           0        3.056141    3.311314    0.521518
     14          1           0        3.029712    1.311981   -1.393927
     15          1           0        1.561173    1.183989   -0.430530
     16          1           0        4.373921    1.606405    0.693721
     17          1           0        2.906753    1.478148    1.657343
     18          1           0        1.984397    3.534388    0.535821
     19          1           0        3.459902    3.663373   -0.433277
     20          1           0        3.532622    3.884107    1.323225
     21          6           0       -2.046379   -0.509253    0.390759
     22          6           0       -1.798498   -1.333885    1.654295
     23          6           0       -0.373860   -1.883667    1.731373
     24          1           0       -1.843903   -1.131944   -0.491400
     25          1           0       -1.329091    0.322486    0.357554
     26          1           0       -2.516942   -2.163018    1.685808
     27          1           0       -2.001772   -0.709216    2.533547
     28          1           0        0.355138   -1.066892    1.725018
     29          1           0       -0.162960   -2.528953    0.872462
     30          1           0       -0.218536   -2.469956    2.642417
     31          6           0       -3.466151    0.047176    0.299324
     32          6           0       -3.714031    0.871808   -0.964213
     33          6           0       -5.138669    1.421591   -1.041290
     34          1           0       -4.183438   -0.784563    0.332529
     35          1           0       -3.668626    0.669867    1.181484
     36          1           0       -3.510758    0.247140   -1.843465
     37          1           0       -2.995587    1.700941   -0.995725
     38          1           0       -5.349570    2.066877   -0.182379
     39          1           0       -5.867668    0.604815   -1.034935
     40          1           0       -5.293994    2.007879   -1.952334
 ---------------------------------------------------------------------

 SCF Done:  E(RHF) =  -470.732782550     A.U. after   11 cycles
 E2 =    -0.1584419713D+01 EUMP2 =    -0.47231720226277D+03

 The electronic state is 1-A.
 Alpha  occ. eigenvalues --  -11.21687 -11.21648 -11.21600 -11.21502 -11.21494
 Alpha  occ. eigenvalues --  -11.21425 -11.21357 -11.21255 -11.21146 -11.21104
 Alpha  occ. eigenvalues --  -11.21079 -11.20990  -1.08516  -1.08373  -1.03616
 Alpha  occ. eigenvalues --   -1.03472  -0.96056  -0.95940  -0.87079  -0.86954
 Alpha  occ. eigenvalues --   -0.79680  -0.79543  -0.78327  -0.78190  -0.65171
 Alpha  occ. eigenvalues --   -0.65011  -0.61054  -0.60878  -0.59406  -0.59306
 Alpha  occ. eigenvalues --   -0.57643  -0.57552  -0.55559  -0.55044  -0.52746
 Alpha  occ. eigenvalues --   -0.52638  -0.52483  -0.52366  -0.50179  -0.49689
 Alpha  occ. eigenvalues --   -0.48097  -0.47783  -0.46707  -0.46569  -0.46040
 Alpha  occ. eigenvalues --   -0.45780  -0.45595  -0.45481  -0.43857  -0.43736
 Alpha virt. eigenvalues --    0.19844   0.22949   0.23257   0.24657   0.25595
 Alpha virt. eigenvalues --    0.25758   0.26453   0.27644   0.28774   0.29646
 Alpha virt. eigenvalues --    0.30847   0.31037   0.31585   0.31800   0.32364

 Mulliken charges:
               1
     1  C   -0.302637
     2  C   -0.301819
     3  C   -0.479417
     4  H    0.149376
     5  H    0.155112
     6  H    0.151494
     7  H    0.154974
     8  H    0.158909
     9  H    0.155006
    10  H    0.159182
    11  C   -0.300776
    12  C   -0.299526
    13  C   -0.475520
    14  H    0.149708
    15  H    0.150588
    16  H    0.152292
    17  H    0.150994
    18  H    0.154573
    19  H    0.155379
    20  H    0.160240
    21  C   -0.301276
    22  C   -0.299760
    23  C   -0.483652
    24  H    0.150805
    25  H    0.150458
    26  H    0.152409
    27  H    0.152143
    28  H    0.159043
    29  H    0.159963
    30  H    0.160655
    31  C   -0.298381
    32  C   -0.299746
    33  C   -0.475769
    34  H    0.149927
    35  H    0.149895
    36  H    0.152173
    37  H    0.151931
    38  H    0.155251
    39  H    0.155280
    40  H    0.160517
 Sum of Mulliken charges =  -0.00000

 Dipole moment (field-independent basis, Debye):
    X=             -0.0434    Y=             -0.0173    Z=              0.0211  Tot=              0.0513
 Quadrupole moment (field-independent basis, Debye-Ang):
   XX=            -84.9383   YY=            -85.5255   ZZ=            -84.3006
   XY=              0.9005   XZ=             -0.4756   YZ=              0.3844

 Normal termination of Gaussian 16 at Wed May  5 15:01:26 2021.
