 Gaussian 16, Revision A.03,
 Gaussian 16:  EM64L-G16RevA.03 25-Dec-2016

 -------------
 #p 6-31g* mp2
 -------------

 ------------------------------------------------------
 Input file generated by CHIRIPA (05-May-2021 14:53:17)
 ------------------------------------------------------
 Symbolic Z-matrix:
 Charge =  0 Multiplicity = 1

                         Standard orientation:
 ---------------------------------------------------------------------
 Center     Atomic      Atomic             Coordinates (Angstroms)
 Number     Number       Type             X           Y           Z
 ---------------------------------------------------------------------
      1          6           0       -5.522822   -0.079058    0.105923
      2          6           0       -6.095560    1.319279   -0.127768
      3          6           0       -7.623077    1.349991   -0.068230
      4          1           0       -5.934375   -0.767153   -0.645139
      5          1           0       -5.860004   -0.446903    1.084899
      6          1           0       -5.756268    1.684940   -1.105412
      7          1           0       -5.682449    2.004166    0.623820
      8          1           0       -7.977371    1.010234    0.910362
      9          1           0       -8.051610    0.689195   -0.828696
     10          1           0       -8.011253    2.359136   -0.237953
     11          6           0       -3.996933   -0.125956    0.049443
     12          6           0       -3.424195   -1.524293    0.283134
     13          6           0       -1.896679   -1.555005    0.223596
     14          1           0       -3.659751    0.241889   -0.929533
     15          1           0       -3.585381    0.562139    0.800505
     16          1           0       -3.837306   -2.209180   -0.468454
     17          1           0       -3.763488   -1.889953    1.260779
     18          1           0       -1.468146   -0.894208    0.984062
     19          1           0       -1.542384   -1.215248   -0.754996
     20          1           0       -1.508502   -2.564149    0.393319
     21          6           0        5.780354    1.507436    0.218563
     22          6           0        4.526843    2.109882    0.069257
     23          6           0        3.377733    1.328900   -0.086185
     24          6           0        3.519336   -0.057908   -0.087687
     25          6           0        4.754270   -0.687784    0.058900
     26          6           0        5.889873    0.112985    0.212918
     27          1           0        6.667764    2.121807    0.338760
     28          1           0        4.438785    3.192598    0.073260
     29          1           0        2.394980    1.769135   -0.203688
     30          1           0        4.810390   -1.769544    0.050892
     31          1           0        6.862074   -0.357623    0.328670
     32          7           0        2.309974   -0.895171   -0.251492
     33          8           0        2.461458   -2.114879   -0.249424
     34          8           0        1.233493   -0.315858   -0.378851
 ---------------------------------------------------------------------

 SCF Done:  E(RHF) =  -669.535561887     A.U. after   15 cycles
 E2 =    -0.2091100969D+01 EUMP2 =    -0.67162666285523D+03

 The electronic state is 1-A.
 Alpha  occ. eigenvalues --  -20.60875 -20.60863 -15.85903 -11.31260 -11.27827
 Alpha  occ. eigenvalues --  -11.27823 -11.27569 -11.26841 -11.26831 -11.21000
 Alpha  occ. eigenvalues --  -11.20604 -11.20584 -11.20362 -11.20233 -11.19077
 Alpha  occ. eigenvalues --   -1.59931  -1.39488  -1.19431  -1.08829  -1.07497
 Alpha  occ. eigenvalues --   -1.04832  -1.02475  -0.95670  -0.94875  -0.86232
 Alpha  occ. eigenvalues --   -0.85878  -0.82498  -0.78578  -0.77548  -0.77246
 Alpha  occ. eigenvalues --   -0.72116  -0.71249  -0.70539  -0.65085  -0.64834
 Alpha  occ. eigenvalues --   -0.64145  -0.62179  -0.59885  -0.58362  -0.56484
 Alpha  occ. eigenvalues --   -0.55335  -0.54174  -0.53162  -0.52925  -0.51560
 Alpha  occ. eigenvalues --   -0.51321  -0.48946  -0.48878  -0.48749  -0.46801
 Alpha  occ. eigenvalues --   -0.45657  -0.44935  -0.44712  -0.44670  -0.42727
 Alpha  occ. eigenvalues --   -0.37412  -0.36435
 Alpha virt. eigenvalues --    0.04975   0.11220   0.16464   0.21355   0.23702
 Alpha virt. eigenvalues --    0.25396   0.27268   0.27532   0.28196   0.28363
 Alpha virt. eigenvalues --    0.29210   0.30925   0.32431   0.32476   0.32627

 Mulliken charges:
               1
     1  C   -0.297182
     2  C   -0.298742
     3  C   -0.475107
     4  H    0.148368
     5  H    0.147715
     6  H    0.150939
     7  H    0.150298
     8  H    0.154286
     9  H    0.154581
    10  H    0.157946
    11  C   -0.296352
    12  C   -0.302707
    13  C   -0.466497
    14  H    0.148977
    15  H    0.147243
    16  H    0.147295
    17  H    0.145721
    18  H    0.153869
    19  H    0.165796
    20  H    0.159260
    21  C   -0.170710
    22  C   -0.218535
    23  C   -0.171041
    24  C    0.157855
    25  C   -0.170710
    26  C   -0.218572
    27  H    0.225838
    28  H    0.223692
    29  H    0.275742
    30  H    0.275797
    31  H    0.223678
    32  N    0.489304
    33  O   -0.459404
    34  O   -0.458644
 Sum of Mulliken charges =  -0.00000

 Dipole moment (field-independent basis, Debye):
    X=              4.6473    Y=              2.9360    Z=              0.5220  Tot=              5.5217
 Quadrupole moment (field-independent basis, Debye-Ang):
   XX=            -66.4499   YY=            -92.0350   ZZ=            -94.8220
   XY=              7.8313   XZ=              2.1250   YZ=             -0.2962

 Normal termination of Gaussian 16 at Thu May  6 10:40:21 2021.
