 Gaussian 16, Revision A.03,
 Gaussian 16:  EM64L-G16RevA.03 25-Dec-2016

 -------------
 #p 6-31g* mp2
 -------------

 ------------------------------------------------------
 Input file generated by CHIRIPA (05-May-2021 14:53:14)
 ------------------------------------------------------
 Symbolic Z-matrix:
 Charge =  0 Multiplicity = 1

                         Standard orientation:
 ---------------------------------------------------------------------
 Center     Atomic      Atomic             Coordinates (Angstroms)
 Number     Number       Type             X           Y           Z
 ---------------------------------------------------------------------
      1          6           0       -3.103614   -0.340661   -0.034429
      2          6           0       -4.478397   -0.915426   -0.377362
      3          6           0       -4.778469   -2.215667    0.369045
      4          1           0       -2.332246   -1.086662   -0.269839
      5          1           0       -3.047506   -0.164118    1.048659
      6          1           0       -4.532389   -1.089537   -1.459668
      7          1           0       -5.246568   -0.167898   -0.141287
      8          1           0       -4.751969   -2.053438    1.451441
      9          1           0       -4.033732   -2.980315    0.125570
     10          1           0       -5.766135   -2.609080    0.109041
     11          6           0       -2.789099    0.959216   -0.772758
     12          6           0       -1.414317    1.533980   -0.429825
     13          6           0       -1.114245    2.834221   -1.176232
     14          1           0       -2.845207    0.782673   -1.855846
     15          1           0       -3.560468    1.705216   -0.537347
     16          1           0       -0.646146    0.786452   -0.665900
     17          1           0       -1.360325    1.708092    0.652481
     18          1           0       -1.858982    3.598869   -0.932756
     19          1           0       -1.140745    2.671993   -2.258628
     20          1           0       -0.126579    3.227635   -0.916228
     21          6           0        3.506333   -1.636482   -1.407913
     22          6           0        2.773352   -2.258485   -0.391855
     23          6           0        2.102010   -1.495612    0.568286
     24          6           0        2.185396   -0.106773    0.481902
     25          6           0        2.907529    0.542366   -0.518314
     26          6           0        3.570968   -0.240503   -1.467795
     27          1           0        4.024778   -2.236867   -2.149633
     28          1           0        2.721400   -3.342434   -0.342880
     29          1           0        1.527367   -1.951184    1.365567
     30          1           0        2.940812    1.624859   -0.541093
     31          1           0        4.139456    0.245273   -2.255759
     32          7           0        1.478859    0.711431    1.492717
     33          8           0        1.567945    1.933347    1.394625
     34          8           0        0.849367    0.115330    2.363947
 ---------------------------------------------------------------------

 SCF Done:  E(RHF) =  -669.536126488     A.U. after   15 cycles
 E2 =    -0.2093427223D+01 EUMP2 =    -0.67162955371154D+03

 The electronic state is 1-A.
 Alpha  occ. eigenvalues --  -20.60897 -20.60888 -15.85898 -11.31259 -11.27821
 Alpha  occ. eigenvalues --  -11.27817 -11.27561 -11.26834 -11.26824 -11.21214
 Alpha  occ. eigenvalues --  -11.20860 -11.20830 -11.20767 -11.20765 -11.20324
 Alpha  occ. eigenvalues --   -1.59937  -1.39495  -1.19430  -1.08827  -1.07875
 Alpha  occ. eigenvalues --   -1.04826  -1.02977  -0.95667  -0.95431  -0.86459
 Alpha  occ. eigenvalues --   -0.86225  -0.82501  -0.79076  -0.77712  -0.77547
 Alpha  occ. eigenvalues --   -0.72139  -0.71220  -0.70533  -0.65083  -0.64829
 Alpha  occ. eigenvalues --   -0.64511  -0.62173  -0.60386  -0.58793  -0.57017
 Alpha  occ. eigenvalues --   -0.55328  -0.54740  -0.53160  -0.52917  -0.52122
 Alpha  occ. eigenvalues --   -0.51863  -0.49401  -0.48920  -0.48897  -0.47354
 Alpha  occ. eigenvalues --   -0.46086  -0.45254  -0.45096  -0.44880  -0.43221
 Alpha  occ. eigenvalues --   -0.37381  -0.36427
 Alpha virt. eigenvalues --    0.04940   0.11203   0.16398   0.21279   0.23373
 Alpha virt. eigenvalues --    0.24687   0.27004   0.27136   0.27674   0.28170
 Alpha virt. eigenvalues --    0.28715   0.30648   0.31746   0.31783   0.32280

 Mulliken charges:
               1
     1  C   -0.298138
     2  C   -0.299188
     3  C   -0.475115
     4  H    0.144758
     5  H    0.157004
     6  H    0.149348
     7  H    0.152114
     8  H    0.157088
     9  H    0.152172
    10  H    0.158561
    11  C   -0.297729
    12  C   -0.306136
    13  C   -0.477638
    14  H    0.144967
    15  H    0.149656
    16  H    0.139677
    17  H    0.172366
    18  H    0.154859
    19  H    0.147264
    20  H    0.167827
    21  C   -0.170711
    22  C   -0.218633
    23  C   -0.172026
    24  C    0.158368
    25  C   -0.171433
    26  C   -0.218445
    27  H    0.225877
    28  H    0.223742
    29  H    0.276153
    30  H    0.275945
    31  H    0.223850
    32  N    0.492628
    33  O   -0.459808
    34  O   -0.459222
 Sum of Mulliken charges =  -0.00000

 Dipole moment (field-independent basis, Debye):
    X=              2.6172    Y=             -2.8158    Z=             -3.3567  Tot=              5.1035
 Quadrupole moment (field-independent basis, Debye-Ang):
   XX=            -84.1931   YY=            -91.4252   ZZ=            -97.5984
   XY=             -5.8871   XZ=             -8.2128   YZ=             -2.0032

 Normal termination of Gaussian 16 at Thu May  6 02:38:29 2021.
