 Gaussian 16, Revision A.03,
 Gaussian 16:  EM64L-G16RevA.03 25-Dec-2016

 -------------
 #p 6-31g* mp2
 -------------

 ------------------------------------------------------
 Input file generated by CHIRIPA (05-May-2021 14:51:07)
 ------------------------------------------------------
 Symbolic Z-matrix:
 Charge =  0 Multiplicity = 1

                         Standard orientation:
 ---------------------------------------------------------------------
 Center     Atomic      Atomic             Coordinates (Angstroms)
 Number     Number       Type             X           Y           Z
 ---------------------------------------------------------------------
      1          6           0        3.444328    0.965768    0.428017
      2          6           0        3.423853    2.109117   -0.587030
      3          6           0        3.558553    3.483936    0.068349
      4          1           0        2.629391    1.110615    1.150404
      5          1           0        4.381114    1.009830    1.000631
      6          1           0        2.487998    2.062084   -1.158502
      7          1           0        4.238815    1.961428   -1.307197
      8          1           0        4.499459    3.555553    0.623478
      9          1           0        2.738695    3.656780    0.773018
     10          1           0        3.541532    4.286651   -0.675437
     11          6           0        3.310602   -0.414930   -0.211918
     12          6           0        3.331077   -1.558278    0.803129
     13          6           0        3.196377   -2.933097    0.147750
     14          1           0        2.373816   -0.458991   -0.784531
     15          1           0        4.125538   -0.559777   -0.934305
     16          1           0        2.516115   -1.410590    1.523296
     17          1           0        4.266932   -1.511245    1.374601
     18          1           0        4.016235   -3.105942   -0.556919
     19          1           0        2.255471   -3.004714   -0.407379
     20          1           0        3.213398   -3.735813    0.891536
     21          6           0       -2.925240   -0.877605    0.019608
     22          6           0       -1.608222   -0.821943   -0.755217
     23          6           0       -0.714302   -2.033569   -0.489392
     24          1           0       -2.708354   -0.946288    1.094404
     25          1           0       -3.462734   -1.797226   -0.250190
     26          1           0       -1.074011    0.097981   -0.485076
     27          1           0       -1.828269   -0.753192   -1.828282
     28          1           0       -1.224271   -2.958897   -0.776270
     29          1           0       -0.465728   -2.102888    0.574567
     30          1           0        0.221794   -1.973260   -1.053259
     31          6           0       -3.829691    0.326766   -0.235706
     32          6           0       -5.146707    0.271104    0.539118
     33          6           0       -6.040628    1.482730    0.273292
     34          1           0       -3.292195    1.246387    0.034091
     35          1           0       -4.046576    0.395449   -1.310503
     36          1           0       -4.926661    0.202354    1.612182
     37          1           0       -5.680918   -0.648819    0.268977
     38          1           0       -6.289201    1.552049   -0.790666
     39          1           0       -5.530658    2.408059    0.560172
     40          1           0       -6.976724    1.422422    0.837160
 ---------------------------------------------------------------------

 SCF Done:  E(RHF) =  -470.732895487     A.U. after   11 cycles
 E2 =    -0.1583247055D+01 EUMP2 =    -0.47231614254132D+03

 The electronic state is 1-A.
 Alpha  occ. eigenvalues --  -11.21686 -11.21637 -11.21596 -11.21546 -11.21460
 Alpha  occ. eigenvalues --  -11.21399 -11.21384 -11.21321 -11.21154 -11.21099
 Alpha  occ. eigenvalues --  -11.21072 -11.20944  -1.08491  -1.08400  -1.03605
 Alpha  occ. eigenvalues --   -1.03481  -0.96057  -0.95929  -0.87078  -0.86946
 Alpha  occ. eigenvalues --   -0.79677  -0.79539  -0.78298  -0.78222  -0.65161
 Alpha  occ. eigenvalues --   -0.65012  -0.61073  -0.60866  -0.59465  -0.59240
 Alpha  occ. eigenvalues --   -0.57665  -0.57539  -0.55348  -0.55221  -0.52788
 Alpha  occ. eigenvalues --   -0.52629  -0.52468  -0.52336  -0.49977  -0.49875
 Alpha  occ. eigenvalues --   -0.48005  -0.47848  -0.46682  -0.46580  -0.45843
 Alpha  occ. eigenvalues --   -0.45768  -0.45752  -0.45671  -0.43792  -0.43739
 Alpha virt. eigenvalues --    0.20517   0.23148   0.23655   0.24965   0.26115
 Alpha virt. eigenvalues --    0.26383   0.26926   0.27421   0.28039   0.29161
 Alpha virt. eigenvalues --    0.30145   0.30899   0.31655   0.31912   0.32206

 Mulliken charges:
               1
     1  C   -0.297947
     2  C   -0.299759
     3  C   -0.475640
     4  H    0.149173
     5  H    0.149566
     6  H    0.151868
     7  H    0.152002
     8  H    0.155223
     9  H    0.154915
    10  H    0.160262
    11  C   -0.302258
    12  C   -0.299066
    13  C   -0.481296
    14  H    0.152833
    15  H    0.149493
    16  H    0.151896
    17  H    0.151652
    18  H    0.154182
    19  H    0.162171
    20  H    0.159773
    21  C   -0.298657
    22  C   -0.300212
    23  C   -0.481489
    24  H    0.149715
    25  H    0.149885
    26  H    0.151620
    27  H    0.152315
    28  H    0.155958
    29  H    0.156459
    30  H    0.164903
    31  C   -0.298311
    32  C   -0.299681
    33  C   -0.475739
    34  H    0.149483
    35  H    0.149800
    36  H    0.151993
    37  H    0.152042
    38  H    0.155252
    39  H    0.155225
    40  H    0.160393
 Sum of Mulliken charges =  -0.00000

 Dipole moment (field-independent basis, Debye):
    X=             -0.0461    Y=             -0.0130    Z=             -0.0123  Tot=              0.0495
 Quadrupole moment (field-independent basis, Debye-Ang):
   XX=            -84.2111   YY=            -86.3362   ZZ=            -84.2764
   XY=              0.7531   XZ=              0.1445   YZ=              0.1549

 Normal termination of Gaussian 16 at Thu May  6 00:28:00 2021.
