 Gaussian 16, Revision A.03,
 Gaussian 16:  EM64L-G16RevA.03 25-Dec-2016

 -------------
 #p 6-31g* mp2
 -------------

 ------------------------------------------------------
 Input file generated by CHIRIPA (05-May-2021 14:51:07)
 ------------------------------------------------------
 Symbolic Z-matrix:
 Charge =  0 Multiplicity = 1

                         Standard orientation:
 ---------------------------------------------------------------------
 Center     Atomic      Atomic             Coordinates (Angstroms)
 Number     Number       Type             X           Y           Z
 ---------------------------------------------------------------------
      1          6           0       -3.685277    0.501434   -0.037793
      2          6           0       -5.180423    0.754659    0.158166
      3          6           0       -5.524072    2.242999    0.225569
      4          1           0       -3.129408    0.970637    0.785496
      5          1           0       -3.354403    0.997263   -0.960869
      6          1           0       -5.508669    0.257341    1.079874
      7          1           0       -5.732811    0.284635   -0.665582
      8          1           0       -5.224212    2.749790   -0.697387
      9          1           0       -4.998796    2.722341    1.057986
     10          1           0       -6.597921    2.401125    0.365940
     11          6           0       -3.326015   -0.981756   -0.107120
     12          6           0       -1.830869   -1.234982   -0.303079
     13          6           0       -1.487220   -2.723322   -0.370482
     14          1           0       -3.656889   -1.477586    0.815957
     15          1           0       -3.881884   -1.450960   -0.930408
     16          1           0       -1.278481   -0.764957    0.520669
     17          1           0       -1.502623   -0.737663   -1.224787
     18          1           0       -2.012496   -3.202663   -1.202899
     19          1           0       -1.787080   -3.230113    0.552474
     20          1           0       -0.413371   -2.881448   -0.510853
     21          6           0        3.149659   -0.355307    0.392023
     22          6           0        3.605579   -1.704447   -0.164700
     23          6           0        2.884343   -2.886045    0.484484
     24          1           0        3.317989   -0.337975    1.477523
     25          1           0        2.066045   -0.251926    0.242067
     26          1           0        4.688242   -1.804659   -0.014983
     27          1           0        3.436321   -1.718497   -1.249029
     28          1           0        1.803874   -2.813487    0.323480
     29          1           0        3.062907   -2.900140    1.564538
     30          1           0        3.225511   -3.840558    0.071728
     31          6           0        3.861633    0.835629   -0.247111
     32          6           0        3.405712    2.184770    0.309612
     33          6           0        4.126949    3.366368   -0.339570
     34          1           0        4.945248    0.732249   -0.097154
     35          1           0        3.693302    0.818298   -1.332611
     36          1           0        3.574971    2.198820    1.393942
     37          1           0        2.323050    2.284982    0.159896
     38          1           0        3.948384    3.380463   -1.419624
     39          1           0        5.207419    3.293810   -0.178567
     40          1           0        3.785781    4.320881    0.073185
 ---------------------------------------------------------------------

 SCF Done:  E(RHF) =  -470.733374969     A.U. after   11 cycles
 E2 =    -0.1582545075D+01 EUMP2 =    -0.47231592004437D+03

 The electronic state is 1-A.
 Alpha  occ. eigenvalues --  -11.21655 -11.21620 -11.21593 -11.21590 -11.21436
 Alpha  occ. eigenvalues --  -11.21393 -11.21376 -11.21334 -11.21103 -11.21086
 Alpha  occ. eigenvalues --  -11.21063 -11.21048  -1.08463  -1.08419  -1.03569
 Alpha  occ. eigenvalues --   -1.03515  -0.96026  -0.95956  -0.87055  -0.86960
 Alpha  occ. eigenvalues --   -0.79634  -0.79573  -0.78278  -0.78228  -0.65095
 Alpha  occ. eigenvalues --   -0.65049  -0.60981  -0.60928  -0.59421  -0.59308
 Alpha  occ. eigenvalues --   -0.57695  -0.57520  -0.55311  -0.55251  -0.52780
 Alpha  occ. eigenvalues --   -0.52658  -0.52486  -0.52287  -0.49962  -0.49882
 Alpha  occ. eigenvalues --   -0.47981  -0.47846  -0.46657  -0.46605  -0.45840
 Alpha  occ. eigenvalues --   -0.45768  -0.45742  -0.45669  -0.43797  -0.43774
 Alpha virt. eigenvalues --    0.20876   0.23085   0.23518   0.24963   0.26089
 Alpha virt. eigenvalues --    0.26663   0.27001   0.27170   0.28151   0.28895
 Alpha virt. eigenvalues --    0.30331   0.31289   0.31613   0.31762   0.31973

 Mulliken charges:
               1
     1  C   -0.298358
     2  C   -0.299690
     3  C   -0.475737
     4  H    0.149792
     5  H    0.149405
     6  H    0.152043
     7  H    0.151981
     8  H    0.155166
     9  H    0.155253
    10  H    0.160339
    11  C   -0.298358
    12  C   -0.300624
    13  C   -0.482458
    14  H    0.149839
    15  H    0.149869
    16  H    0.152743
    17  H    0.151505
    18  H    0.155606
    19  H    0.155862
    20  H    0.166158
    21  C   -0.299612
    22  C   -0.299199
    23  C   -0.483332
    24  H    0.149509
    25  H    0.150813
    26  H    0.151988
    27  H    0.151730
    28  H    0.162009
    29  H    0.155367
    30  H    0.160356
    31  C   -0.298216
    32  C   -0.299770
    33  C   -0.475688
    34  H    0.149499
    35  H    0.149639
    36  H    0.151804
    37  H    0.152241
    38  H    0.155164
    39  H    0.155133
    40  H    0.160231
 Sum of Mulliken charges =  -0.00000

 Dipole moment (field-independent basis, Debye):
    X=             -0.0215    Y=             -0.0039    Z=              0.0038  Tot=              0.0221
 Quadrupole moment (field-independent basis, Debye-Ang):
   XX=            -84.5972   YY=            -86.7753   ZZ=            -83.3544
   XY=             -0.0056   XZ=              0.8507   YZ=              0.2329

 Normal termination of Gaussian 16 at Wed May  5 16:33:41 2021.
