 Gaussian 16, Revision A.03,
 Gaussian 16:  EM64L-G16RevA.03 25-Dec-2016

 -------------
 #p 6-31g* mp2
 -------------

 ------------------------------------------------------
 Input file generated by CHIRIPA (05-May-2021 14:53:17)
 ------------------------------------------------------
 Symbolic Z-matrix:
 Charge =  0 Multiplicity = 1

                         Standard orientation:
 ---------------------------------------------------------------------
 Center     Atomic      Atomic             Coordinates (Angstroms)
 Number     Number       Type             X           Y           Z
 ---------------------------------------------------------------------
      1          6           0       -3.753147    0.847188   -0.461236
      2          6           0       -2.259740    1.165519   -0.541143
      3          6           0       -1.973331    2.478140   -1.271067
      4          1           0       -4.166580    0.800743   -1.478025
      5          1           0       -4.269935    1.671833    0.048946
      6          1           0       -1.745721    0.339882   -1.049794
      7          1           0       -1.849774    1.211023    0.475948
      8          1           0       -2.460115    3.316228   -0.761900
      9          1           0       -2.355471    2.440138   -2.296311
     10          1           0       -0.899787    2.686193   -1.316643
     11          6           0       -4.055460   -0.462002    0.265645
     12          6           0       -5.548868   -0.780333    0.345552
     13          6           0       -5.835277   -2.092954    1.075476
     14          1           0       -3.538672   -1.286647   -0.244537
     15          1           0       -3.642027   -0.415557    1.282434
     16          1           0       -5.958833   -0.825837   -0.671539
     17          1           0       -6.062886    0.045303    0.854203
     18          1           0       -5.453136   -2.054952    2.100721
     19          1           0       -5.348492   -2.931042    0.566310
     20          1           0       -6.908821   -2.301007    1.121053
     21          6           0        2.642214    2.125580    1.085890
     22          6           0        2.038665    1.779625   -0.127604
     23          6           0        2.257643    0.521332   -0.696195
     24          6           0        3.089683   -0.370503   -0.021191
     25          6           0        3.705347   -0.055340    1.189149
     26          6           0        3.472164    1.208610    1.739241
     27          1           0        2.466589    3.105251    1.520400
     28          1           0        1.393640    2.489743   -0.637229
     29          1           0        1.803044    0.227455   -1.634488
     30          1           0        4.343332   -0.784435    1.673727
     31          1           0        3.942213    1.474553    2.681777
     32          7           0        3.329024   -1.705596   -0.613341
     33          8           0        4.066281   -2.473395    0.001130
     34          8           0        2.774830   -1.958963   -1.680727
 ---------------------------------------------------------------------

 SCF Done:  E(RHF) =  -669.535500337     A.U. after   15 cycles
 E2 =    -0.2091177147D+01 EUMP2 =    -0.67162667748394D+03

 The electronic state is 1-A.
 Alpha  occ. eigenvalues --  -20.60757 -20.60752 -15.85811 -11.31174 -11.27749
 Alpha  occ. eigenvalues --  -11.27744 -11.27490 -11.26764 -11.26745 -11.22110
 Alpha  occ. eigenvalues --  -11.21866 -11.21747 -11.21732 -11.21567 -11.21143
 Alpha  occ. eigenvalues --   -1.59833  -1.39386  -1.19349  -1.08753  -1.08736
 Alpha  occ. eigenvalues --   -1.04754  -1.03889  -0.96354  -0.95579  -0.87373
 Alpha  occ. eigenvalues --   -0.86151  -0.82413  -0.79950  -0.78519  -0.77462
 Alpha  occ. eigenvalues --   -0.72030  -0.71155  -0.70458  -0.65368  -0.65003
 Alpha  occ. eigenvalues --   -0.64789  -0.62152  -0.61275  -0.59745  -0.57952
 Alpha  occ. eigenvalues --   -0.55622  -0.55256  -0.53232  -0.53067  -0.52882
 Alpha  occ. eigenvalues --   -0.52581  -0.50272  -0.48789  -0.48784  -0.48264
 Alpha  occ. eigenvalues --   -0.46966  -0.46070  -0.45969  -0.44792  -0.44139
 Alpha  occ. eigenvalues --   -0.37329  -0.36346
 Alpha virt. eigenvalues --    0.05067   0.11264   0.16497   0.19892   0.22762
 Alpha virt. eigenvalues --    0.23873   0.25967   0.26296   0.27123   0.28204
 Alpha virt. eigenvalues --    0.28752   0.29652   0.31099   0.31683   0.32162

 Mulliken charges:
               1
     1  C   -0.298852
     2  C   -0.300539
     3  C   -0.477989
     4  H    0.151130
     5  H    0.149268
     6  H    0.154367
     7  H    0.152609
     8  H    0.157252
     9  H    0.159789
    10  H    0.148216
    11  C   -0.299072
    12  C   -0.299985
    13  C   -0.476042
    14  H    0.152776
    15  H    0.149699
    16  H    0.152601
    17  H    0.151289
    18  H    0.155170
    19  H    0.157064
    20  H    0.160677
    21  C   -0.172081
    22  C   -0.221505
    23  C   -0.172070
    24  C    0.158461
    25  C   -0.170891
    26  C   -0.218570
    27  H    0.225941
    28  H    0.229704
    29  H    0.275619
    30  H    0.275571
    31  H    0.223326
    32  N    0.488163
    33  O   -0.460524
    34  O   -0.460574
 Sum of Mulliken charges =  -0.00000

 Dipole moment (field-independent basis, Debye):
    X=             -0.9632    Y=              4.6406    Z=              2.1088  Tot=              5.1874
 Quadrupole moment (field-independent basis, Debye-Ang):
   XX=            -98.5017   YY=            -99.3328   ZZ=            -91.6318
   XY=             13.8817   XZ=              9.4380   YZ=             -0.8782

 Normal termination of Gaussian 16 at Wed May  5 23:36:38 2021.
