 Gaussian 16, Revision A.03,
 Gaussian 16:  EM64L-G16RevA.03 25-Dec-2016

 -------------
 #p 6-31g* mp2
 -------------

 ------------------------------------------------------
 Input file generated by CHIRIPA (05-May-2021 14:51:10)
 ------------------------------------------------------
 Symbolic Z-matrix:
 Charge =  0 Multiplicity = 1

                         Standard orientation:
 ---------------------------------------------------------------------
 Center     Atomic      Atomic             Coordinates (Angstroms)
 Number     Number       Type             X           Y           Z
 ---------------------------------------------------------------------
      1          6           0       -3.687876   -0.025796   -0.139519
      2          6           0       -5.139784   -0.433485    0.112944
      3          6           0       -6.128925    0.698120   -0.167887
      4          1           0       -3.442776    0.841652    0.488498
      5          1           0       -3.582937    0.303774   -1.182479
      6          1           0       -5.241651   -0.763498    1.154736
      7          1           0       -5.381398   -1.300182   -0.515605
      8          1           0       -6.056553    1.023065   -1.210851
      9          1           0       -5.916011    1.562798    0.468982
     10          1           0       -7.160836    0.384963    0.019065
     11          6           0       -2.687146   -1.146465    0.136829
     12          6           0       -1.235238   -0.738776   -0.115635
     13          6           0       -0.246097   -1.870381    0.165196
     14          1           0       -2.792085   -1.476036    1.179789
     15          1           0       -2.932246   -2.013913   -0.491188
     16          1           0       -0.993624    0.127921    0.512915
     17          1           0       -1.133371   -0.408763   -1.157427
     18          1           0       -0.459011   -2.735059   -0.471672
     19          1           0       -0.318469   -2.195326    1.208160
     20          1           0        0.785814   -1.557224   -0.021755
     21          6           0        2.749208    1.089183    0.373180
     22          6           0        2.417629    2.332021   -0.453496
     23          6           0        1.540119    3.329024    0.303970
     24          1           0        1.814348    0.599244    0.678044
     25          1           0        3.256714    1.397072    1.297862
     26          1           0        1.912135    2.021778   -1.376990
     27          1           0        3.353391    2.818953   -0.756589
     28          1           0        2.040923    3.666934    1.216995
     29          1           0        0.591479    2.865230    0.593069
     30          1           0        1.315276    4.209849   -0.305500
     31          6           0        3.625814    0.083078   -0.370490
     32          6           0        3.957393   -1.159760    0.456186
     33          6           0        4.834904   -2.156763   -0.301280
     34          1           0        3.118308   -0.224811   -1.295171
     35          1           0        4.560674    0.573017   -0.675354
     36          1           0        3.021631   -1.646691    0.759280
     37          1           0        4.462887   -0.849517    1.379680
     38          1           0        5.783543   -1.692968   -0.590379
     39          1           0        4.334099   -2.494672   -1.214305
     40          1           0        5.059746   -3.037588    0.308190
 ---------------------------------------------------------------------

 SCF Done:  E(RHF) =  -470.732760239     A.U. after   11 cycles
 E2 =    -0.1584023807D+01 EUMP2 =    -0.47231678404627D+03

 The electronic state is 1-A.
 Alpha  occ. eigenvalues --  -11.21704 -11.21633 -11.21576 -11.21560 -11.21462
 Alpha  occ. eigenvalues --  -11.21398 -11.21386 -11.21317 -11.21134 -11.21092
 Alpha  occ. eigenvalues --  -11.21056 -11.21045  -1.08501  -1.08408  -1.03594
 Alpha  occ. eigenvalues --   -1.03508  -0.96054  -0.95950  -0.87066  -0.86972
 Alpha  occ. eigenvalues --   -0.79681  -0.79550  -0.78308  -0.78226  -0.65189
 Alpha  occ. eigenvalues --   -0.65066  -0.61008  -0.60908  -0.59415  -0.59304
 Alpha  occ. eigenvalues --   -0.57683  -0.57541  -0.55331  -0.55238  -0.52799
 Alpha  occ. eigenvalues --   -0.52617  -0.52460  -0.52372  -0.49977  -0.49904
 Alpha  occ. eigenvalues --   -0.48028  -0.47846  -0.46761  -0.46548  -0.45879
 Alpha  occ. eigenvalues --   -0.45792  -0.45737  -0.45595  -0.43806  -0.43744
 Alpha virt. eigenvalues --    0.20085   0.22829   0.23364   0.24787   0.25939
 Alpha virt. eigenvalues --    0.26524   0.27018   0.27350   0.28252   0.29518
 Alpha virt. eigenvalues --    0.29962   0.31255   0.31736   0.31870   0.32521

 Mulliken charges:
               1
     1  C   -0.298343
     2  C   -0.299699
     3  C   -0.475757
     4  H    0.149736
     5  H    0.149638
     6  H    0.152041
     7  H    0.152001
     8  H    0.155241
     9  H    0.155337
    10  H    0.160370
    11  C   -0.298568
    12  C   -0.301914
    13  C   -0.485103
    14  H    0.149866
    15  H    0.150031
    16  H    0.153310
    17  H    0.152069
    18  H    0.155798
    19  H    0.155508
    20  H    0.169490
    21  C   -0.304909
    22  C   -0.298890
    23  C   -0.476848
    24  H    0.156294
    25  H    0.149451
    26  H    0.152083
    27  H    0.151790
    28  H    0.154982
    29  H    0.155893
    30  H    0.160277
    31  C   -0.299318
    32  C   -0.305072
    33  C   -0.475359
    34  H    0.149201
    35  H    0.150261
    36  H    0.156478
    37  H    0.152128
    38  H    0.155059
    39  H    0.155106
    40  H    0.160341
 Sum of Mulliken charges =  -0.00000

 Dipole moment (field-independent basis, Debye):
    X=             -0.0295    Y=             -0.0155    Z=              0.0042  Tot=              0.0336
 Quadrupole moment (field-independent basis, Debye-Ang):
   XX=            -85.1952   YY=            -85.6736   ZZ=            -83.8968
   XY=              1.5211   XZ=              0.5269   YZ=              0.2449

 Normal termination of Gaussian 16 at Wed May  5 23:01:45 2021.
