 Gaussian 16, Revision A.03,
 Gaussian 16:  EM64L-G16RevA.03 25-Dec-2016

 -------------
 #p 6-31g* mp2
 -------------

 ------------------------------------------------------
 Input file generated by CHIRIPA (05-May-2021 14:51:12)
 ------------------------------------------------------
 Symbolic Z-matrix:
 Charge =  0 Multiplicity = 1

                         Standard orientation:
 ---------------------------------------------------------------------
 Center     Atomic      Atomic             Coordinates (Angstroms)
 Number     Number       Type             X           Y           Z
 ---------------------------------------------------------------------
      1          6           0        2.387639    1.195827   -0.511753
      2          6           0        2.148314    2.058471    0.727825
      3          6           0        1.779840    3.501457    0.381683
      4          1           0        3.188289    1.645670   -1.114699
      5          1           0        1.483538    1.204669   -1.136187
      6          1           0        3.052116    2.046885    1.350420
      7          1           0        1.348271    1.606418    1.327988
      8          1           0        0.865728    3.531888   -0.220042
      9          1           0        2.579253    3.974857   -0.197482
     10          1           0        1.613156    4.100361    1.282455
     11          6           0        2.756903   -0.249383   -0.181995
     12          6           0        2.996228   -1.112028   -1.421573
     13          6           0        3.364701   -2.555013   -1.075431
     14          1           0        3.661004   -0.258226    0.442439
     15          1           0        1.956252   -0.699226    0.420952
     16          1           0        3.796271   -0.659975   -2.021736
     17          1           0        2.092426   -1.100442   -2.044168
     18          1           0        2.565289   -3.028413   -0.496266
     19          1           0        4.278814   -2.585444   -0.473706
     20          1           0        3.531385   -3.153918   -1.976203
     21          6           0       -2.947009    0.111871    0.029588
     22          6           0       -4.168846   -0.319358   -0.782289
     23          6           0       -4.908062    0.862310   -1.410791
     24          1           0       -3.265374    0.808086    0.817543
     25          1           0       -2.260771    0.670121   -0.622201
     26          1           0       -4.851928   -0.877821   -0.129500
     27          1           0       -3.847562   -1.014777   -1.568282
     28          1           0       -4.246306    1.416586   -2.084185
     29          1           0       -5.256378    1.554319   -0.637229
     30          1           0       -5.778002    0.531326   -1.986562
     31          6           0       -2.197533   -1.058313    0.664160
     32          6           0       -0.975696   -0.627086    1.476036
     33          6           0       -0.236481   -1.808753    2.104539
     34          1           0       -2.883771   -1.616564    1.315948
     35          1           0       -1.879168   -1.754528   -0.123795
     36          1           0       -1.296979    0.068333    2.262029
     37          1           0       -0.292613   -0.068622    0.823248
     38          1           0        0.111837   -2.500763    1.330977
     39          1           0       -0.898236   -2.363029    2.777933
     40          1           0        0.633460   -1.477769    2.680310
 ---------------------------------------------------------------------

 SCF Done:  E(RHF) =  -470.732179982     A.U. after   11 cycles
 E2 =    -0.1585041300D+01 EUMP2 =    -0.47231722128185D+03

 The electronic state is 1-A.
 Alpha  occ. eigenvalues --  -11.21671 -11.21652 -11.21599 -11.21549 -11.21479
 Alpha  occ. eigenvalues --  -11.21419 -11.21386 -11.21288 -11.21173 -11.21109
 Alpha  occ. eigenvalues --  -11.21077 -11.21048  -1.08542  -1.08393  -1.03615
 Alpha  occ. eigenvalues --   -1.03516  -0.96074  -0.95956  -0.87083  -0.86974
 Alpha  occ. eigenvalues --   -0.79718  -0.79551  -0.78389  -0.78178  -0.65497
 Alpha  occ. eigenvalues --   -0.64802  -0.61002  -0.60924  -0.59432  -0.59326
 Alpha  occ. eigenvalues --   -0.57715  -0.57534  -0.55439  -0.55171  -0.52755
 Alpha  occ. eigenvalues --   -0.52654  -0.52507  -0.52362  -0.50035  -0.49898
 Alpha  occ. eigenvalues --   -0.48065  -0.47858  -0.46812  -0.46552  -0.46070
 Alpha  occ. eigenvalues --   -0.45816  -0.45731  -0.45288  -0.43855  -0.43764
 Alpha virt. eigenvalues --    0.20068   0.22702   0.23354   0.24387   0.26014
 Alpha virt. eigenvalues --    0.26405   0.26838   0.27539   0.28835   0.29720
 Alpha virt. eigenvalues --    0.30224   0.31386   0.31736   0.31923   0.32197

 Mulliken charges:
               1
     1  C   -0.298790
     2  C   -0.305420
     3  C   -0.475253
     4  H    0.150255
     5  H    0.147937
     6  H    0.151778
     7  H    0.157900
     8  H    0.154930
     9  H    0.155025
    10  H    0.160188
    11  C   -0.309299
    12  C   -0.298931
    13  C   -0.476846
    14  H    0.149340
    15  H    0.162786
    16  H    0.151987
    17  H    0.150748
    18  H    0.155728
    19  H    0.155511
    20  H    0.160161
    21  C   -0.298404
    22  C   -0.299714
    23  C   -0.475767
    24  H    0.150014
    25  H    0.148804
    26  H    0.152173
    27  H    0.152022
    28  H    0.155197
    29  H    0.155330
    30  H    0.160478
    31  C   -0.297346
    32  C   -0.309368
    33  C   -0.480310
    34  H    0.149939
    35  H    0.149385
    36  H    0.152405
    37  H    0.160484
    38  H    0.155631
    39  H    0.157264
    40  H    0.162048
 Sum of Mulliken charges =  -0.00000

 Dipole moment (field-independent basis, Debye):
    X=             -0.0314    Y=             -0.0156    Z=              0.0424  Tot=              0.0550
 Quadrupole moment (field-independent basis, Debye-Ang):
   XX=            -83.9535   YY=            -86.4907   ZZ=            -84.3357
   XY=              0.9553   XZ=             -0.7999   YZ=              0.5328

 Normal termination of Gaussian 16 at Thu May  6 07:05:16 2021.
