 Gaussian 16, Revision A.03,
 Gaussian 16:  EM64L-G16RevA.03 25-Dec-2016

 -------------
 #p 6-31g* mp2
 -------------

 ------------------------------------------------------
 Input file generated by CHIRIPA (05-May-2021 14:51:13)
 ------------------------------------------------------
 Symbolic Z-matrix:
 Charge =  0 Multiplicity = 1

                         Standard orientation:
 ---------------------------------------------------------------------
 Center     Atomic      Atomic             Coordinates (Angstroms)
 Number     Number       Type             X           Y           Z
 ---------------------------------------------------------------------
      1          6           0       -3.139167    0.706584    0.042826
      2          6           0       -3.095821    1.909183   -0.900498
      3          6           0       -2.999213    3.241227   -0.156106
      4          1           0       -3.996459    0.811877    0.721729
      5          1           0       -2.239022    0.711077    0.672995
      6          1           0       -3.995112    1.901651   -1.529654
      7          1           0       -2.238644    1.800920   -1.577360
      8          1           0       -2.093844    3.274259    0.458562
      9          1           0       -3.860291    3.375561    0.506540
     10          1           0       -2.969519    4.087435   -0.849583
     11          6           0       -3.235756   -0.632265   -0.686477
     12          6           0       -3.279102   -1.834864    0.256847
     13          6           0       -3.375710   -3.166908   -0.487545
     14          1           0       -4.135902   -0.636758   -1.316646
     15          1           0       -2.378464   -0.737557   -1.365379
     16          1           0       -4.136279   -1.726601    0.933710
     17          1           0       -2.379812   -1.827331    0.886003
     18          1           0       -2.514632   -3.301242   -1.150191
     19          1           0       -4.281080   -3.199939   -1.102213
     20          1           0       -3.405404   -4.013115    0.205933
     21          6           0        2.653090    0.330838    0.724885
     22          6           0        1.428591   -0.530188    1.036688
     23          6           0        0.368389    0.219965    1.843557
     24          1           0        3.091715    0.687995    1.666687
     25          1           0        2.333089    1.224009    0.170593
     26          1           0        1.750983   -1.422156    1.589021
     27          1           0        0.992942   -0.885494    0.094041
     28          1           0        0.018562    1.100591    1.295176
     29          1           0        0.780910    0.560879    2.798652
     30          1           0       -0.498144   -0.414185    2.055294
     31          6           0        3.721833   -0.405157   -0.081234
     32          6           0        4.946332    0.455869   -0.393037
     33          6           0        6.006534   -0.294285   -1.199906
     34          1           0        4.041834   -1.298329    0.473058
     35          1           0        3.283209   -0.762314   -1.023036
     36          1           0        5.381982    0.811175    0.549610
     37          1           0        4.623941    1.347836   -0.945372
     38          1           0        5.594014   -0.635198   -2.155001
     39          1           0        6.356361   -1.174910   -0.651526
     40          1           0        6.873067    0.339866   -1.411644
 ---------------------------------------------------------------------

 SCF Done:  E(RHF) =  -470.732375255     A.U. after   11 cycles
 E2 =    -0.1583917647D+01 EUMP2 =    -0.47231629290260D+03

 The electronic state is 1-A.
 Alpha  occ. eigenvalues --  -11.21711 -11.21646 -11.21584 -11.21551 -11.21477
 Alpha  occ. eigenvalues --  -11.21413 -11.21332 -11.21184 -11.21184 -11.21105
 Alpha  occ. eigenvalues --  -11.21057 -11.21053  -1.08511  -1.08368  -1.03614
 Alpha  occ. eigenvalues --   -1.03496  -0.96082  -0.95926  -0.87102  -0.86948
 Alpha  occ. eigenvalues --   -0.79699  -0.79553  -0.78325  -0.78166  -0.65241
 Alpha  occ. eigenvalues --   -0.64947  -0.61053  -0.60871  -0.59453  -0.59296
 Alpha  occ. eigenvalues --   -0.57676  -0.57545  -0.55470  -0.55128  -0.52821
 Alpha  occ. eigenvalues --   -0.52626  -0.52489  -0.52350  -0.50125  -0.49805
 Alpha  occ. eigenvalues --   -0.48035  -0.47843  -0.46815  -0.46537  -0.45876
 Alpha  occ. eigenvalues --   -0.45814  -0.45707  -0.45456  -0.43804  -0.43714
 Alpha virt. eigenvalues --    0.20339   0.23017   0.23201   0.24549   0.26132
 Alpha virt. eigenvalues --    0.26380   0.27049   0.27305   0.28005   0.29216
 Alpha virt. eigenvalues --    0.30245   0.31474   0.31746   0.31969   0.32132

 Mulliken charges:
               1
     1  C   -0.309162
     2  C   -0.299135
     3  C   -0.476519
     4  H    0.148573
     5  H    0.163268
     6  H    0.151664
     7  H    0.150596
     8  H    0.155074
     9  H    0.155511
    10  H    0.160021
    11  C   -0.297268
    12  C   -0.304075
    13  C   -0.475396
    14  H    0.149234
    15  H    0.148531
    16  H    0.152013
    17  H    0.155171
    18  H    0.155025
    19  H    0.155267
    20  H    0.160085
    21  C   -0.298762
    22  C   -0.300265
    23  C   -0.484044
    24  H    0.150101
    25  H    0.149814
    26  H    0.152666
    27  H    0.152010
    28  H    0.157412
    29  H    0.156662
    30  H    0.165333
    31  C   -0.298366
    32  C   -0.299739
    33  C   -0.475758
    34  H    0.149746
    35  H    0.149658
    36  H    0.152074
    37  H    0.152031
    38  H    0.155242
    39  H    0.155270
    40  H    0.160435
 Sum of Mulliken charges =  -0.00000

 Dipole moment (field-independent basis, Debye):
    X=              0.0586    Y=             -0.0064    Z=              0.0456  Tot=              0.0745
 Quadrupole moment (field-independent basis, Debye-Ang):
   XX=            -84.3784   YY=            -86.0139   ZZ=            -84.4877
   XY=              0.0916   XZ=              0.7677   YZ=             -0.9010

 Normal termination of Gaussian 16 at Wed May  5 23:13:50 2021.
