 Gaussian 16, Revision A.03,
 Gaussian 16:  EM64L-G16RevA.03 25-Dec-2016

 -------------
 #p 6-31g* mp2
 -------------

 ------------------------------------------------------
 Input file generated by CHIRIPA (05-May-2021 14:53:15)
 ------------------------------------------------------
 Symbolic Z-matrix:
 Charge =  0 Multiplicity = 1

                         Standard orientation:
 ---------------------------------------------------------------------
 Center     Atomic      Atomic             Coordinates (Angstroms)
 Number     Number       Type             X           Y           Z
 ---------------------------------------------------------------------
      1          6           0       -4.237737   -0.587383    0.206887
      2          6           0       -2.852324    0.025847    0.000571
      3          6           0       -1.720302   -0.934048    0.367888
      4          1           0       -4.342617   -0.895908    1.256057
      5          1           0       -4.320182   -1.501385   -0.397429
      6          1           0       -2.773011    0.939173    0.604027
      7          1           0       -2.750801    0.333122   -1.048186
      8          1           0       -1.771170   -1.841329   -0.242730
      9          1           0       -1.793506   -1.231834    1.418871
     10          1           0       -0.738775   -0.475333    0.212821
     11          6           0       -5.379793    0.360108   -0.156016
     12          6           0       -6.765205   -0.253122    0.050301
     13          6           0       -7.897228    0.706772   -0.317017
     14          1           0       -5.297348    1.274110    0.448300
     15          1           0       -5.274912    0.668633   -1.205186
     16          1           0       -6.866729   -0.560397    1.099057
     17          1           0       -6.844519   -1.166448   -0.553156
     18          1           0       -7.824024    1.004559   -1.368000
     19          1           0       -7.846360    1.614054    0.293601
     20          1           0       -8.878754    0.248058   -0.161950
     21          6           0        3.711125    2.609721    0.073313
     22          6           0        2.523118    1.882799    0.202703
     23          6           0        2.536554    0.485710    0.152609
     24          6           0        3.761267   -0.154936   -0.028880
     25          6           0        4.961735    0.541286   -0.160953
     26          6           0        4.924504    1.937829   -0.107783
     27          1           0        3.691445    3.694802    0.113421
     28          1           0        1.579331    2.401938    0.343442
     29          1           0        1.631684   -0.101782    0.249992
     30          1           0        5.887155   -0.004263   -0.300218
     31          1           0        5.848682    2.499775   -0.208562
     32          7           0        3.788088   -1.633683   -0.083541
     33          8           0        4.880059   -2.174415   -0.244305
     34          8           0        2.716630   -2.223992    0.035415
 ---------------------------------------------------------------------

 SCF Done:  E(RHF) =  -669.535391271     A.U. after   15 cycles
 E2 =    -0.2090865023D+01 EUMP2 =    -0.67162625629377D+03

 The electronic state is 1-A.
 Alpha  occ. eigenvalues --  -20.60727 -20.60720 -15.85778 -11.31154 -11.27730
 Alpha  occ. eigenvalues --  -11.27715 -11.27479 -11.26751 -11.26739 -11.21870
 Alpha  occ. eigenvalues --  -11.21706 -11.21565 -11.21504 -11.21330 -11.21171
 Alpha  occ. eigenvalues --   -1.59802  -1.39354  -1.19332  -1.08726  -1.08600
 Alpha  occ. eigenvalues --   -1.04739  -1.03709  -0.96152  -0.95558  -0.87165
 Alpha  occ. eigenvalues --   -0.86135  -0.82390  -0.79767  -0.78406  -0.77435
 Alpha  occ. eigenvalues --   -0.71998  -0.71125  -0.70452  -0.65224  -0.64985
 Alpha  occ. eigenvalues --   -0.64752  -0.62128  -0.61094  -0.59533  -0.57773
 Alpha  occ. eigenvalues --   -0.55413  -0.55246  -0.53070  -0.53050  -0.52682
 Alpha  occ. eigenvalues --   -0.52520  -0.50066  -0.48758  -0.48752  -0.48086
 Alpha  occ. eigenvalues --   -0.46793  -0.45947  -0.45868  -0.44757  -0.43969
 Alpha  occ. eigenvalues --   -0.37316  -0.36341
 Alpha virt. eigenvalues --    0.05100   0.11310   0.16590   0.20206   0.22781
 Alpha virt. eigenvalues --    0.23825   0.25842   0.26508   0.27354   0.27872
 Alpha virt. eigenvalues --    0.28809   0.30527   0.31304   0.31534   0.31862

 Mulliken charges:
               1
     1  C   -0.299131
     2  C   -0.299990
     3  C   -0.476604
     4  H    0.150751
     5  H    0.152085
     6  H    0.147781
     7  H    0.151857
     8  H    0.164367
     9  H    0.158659
    10  H    0.150493
    11  C   -0.298228
    12  C   -0.299888
    13  C   -0.475780
    14  H    0.148373
    15  H    0.149614
    16  H    0.152424
    17  H    0.153042
    18  H    0.155186
    19  H    0.154670
    20  H    0.160934
    21  C   -0.170709
    22  C   -0.222563
    23  C   -0.182735
    24  C    0.158951
    25  C   -0.169910
    26  C   -0.219104
    27  H    0.225511
    28  H    0.223328
    29  H    0.291609
    30  H    0.275584
    31  H    0.223378
    32  N    0.486387
    33  O   -0.460657
    34  O   -0.459685
 Sum of Mulliken charges =  -0.00000

 Dipole moment (field-independent basis, Debye):
    X=             -0.1987    Y=              5.1219    Z=              0.1889  Tot=              5.1292
 Quadrupole moment (field-independent basis, Debye-Ang):
   XX=            -91.1019   YY=            -97.0854   ZZ=            -94.7126
   XY=             20.7686   XZ=             -0.2204   YZ=              0.2721

 Normal termination of Gaussian 16 at Thu May  6 18:49:48 2021.
