 Gaussian 16, Revision A.03,
 Gaussian 16:  EM64L-G16RevA.03 25-Dec-2016

 -------------
 #p 6-31g* mp2
 -------------

 ------------------------------------------------------
 Input file generated by CHIRIPA (05-May-2021 14:55:21)
 ------------------------------------------------------
 Symbolic Z-matrix:
 Charge =  0 Multiplicity = 1

                         Standard orientation:
 ---------------------------------------------------------------------
 Center     Atomic      Atomic             Coordinates (Angstroms)
 Number     Number       Type             X           Y           Z
 ---------------------------------------------------------------------
      1          6           0        2.767863    2.464090   -0.147913
      2          6           0        1.871862    1.412758    0.072102
      3          6           0        2.315819    0.087129    0.059565
      4          6           0        3.668609   -0.152031   -0.177188
      5          6           0        4.585837    0.873850   -0.399785
      6          6           0        4.119608    2.191760   -0.382740
      7          1           0        2.414335    3.490872   -0.136424
      8          1           0        0.821523    1.621278    0.254730
      9          1           0        1.643802   -0.745824    0.226902
     10          1           0        5.627007    0.634637   -0.579119
     11          1           0        4.817721    3.006241   -0.553921
     12          7           0        4.150396   -1.551330   -0.192846
     13          8           0        5.347153   -1.735562   -0.403720
     14          8           0        3.322140   -2.437372    0.006051
     15          6           0       -5.349740    0.009512    0.202508
     16          6           0       -5.970396   -0.302662   -1.159593
     17          6           0       -7.482494   -0.077569   -1.185785
     18          1           0       -5.828321   -0.616002    0.968430
     19          1           0       -5.570755    1.052623    0.467961
     20          1           0       -5.747097   -1.344466   -1.423028
     21          1           0       -5.490148    0.323531   -1.922391
     22          1           0       -7.721077    0.964154   -0.948105
     23          1           0       -7.979486   -0.713320   -0.445905
     24          1           0       -7.905525   -0.306709   -2.168841
     25          6           0       -3.838624   -0.210703    0.244487
     26          6           0       -3.217969    0.101472    1.606587
     27          6           0       -1.705870   -0.123621    1.632779
     28          1           0       -3.617610   -1.253814   -0.020967
     29          1           0       -3.360043    0.414812   -0.521436
     30          1           0       -3.698216   -0.524721    2.369386
     31          1           0       -3.441267    1.143276    1.870022
     32          1           0       -1.208878    0.512130    0.892899
     33          1           0       -1.467287   -1.165345    1.395100
     34          1           0       -1.282839    0.105519    2.615835
 ---------------------------------------------------------------------

 SCF Done:  E(RHF) =  -669.535525265     A.U. after   15 cycles
 E2 =    -0.2090966405D+01 EUMP2 =    -0.67162649167055D+03

 The electronic state is 1-A.
 Alpha  occ. eigenvalues --  -20.60702 -20.60697 -15.85755 -11.31104 -11.27682
 Alpha  occ. eigenvalues --  -11.27649 -11.27423 -11.26699 -11.26654 -11.22242
 Alpha  occ. eigenvalues --  -11.21982 -11.21910 -11.21888 -11.21756 -11.21321
 Alpha  occ. eigenvalues --   -1.59778  -1.39332  -1.19278  -1.08906  -1.08679
 Alpha  occ. eigenvalues --   -1.04678  -1.04037  -0.96507  -0.95514  -0.87533
 Alpha  occ. eigenvalues --   -0.86079  -0.82349  -0.80110  -0.78691  -0.77392
 Alpha  occ. eigenvalues --   -0.71974  -0.71100  -0.70390  -0.65546  -0.64930
 Alpha  occ. eigenvalues --   -0.64697  -0.62077  -0.61404  -0.59870  -0.58092
 Alpha  occ. eigenvalues --   -0.55822  -0.55184  -0.53205  -0.53008  -0.52974
 Alpha  occ. eigenvalues --   -0.52728  -0.50436  -0.48734  -0.48729  -0.48415
 Alpha  occ. eigenvalues --   -0.47124  -0.46242  -0.46143  -0.44740  -0.44272
 Alpha  occ. eigenvalues --   -0.37267  -0.36278
 Alpha virt. eigenvalues --    0.05137   0.11372   0.16627   0.19968   0.22561
 Alpha virt. eigenvalues --    0.23809   0.25309   0.26051   0.27223   0.27972
 Alpha virt. eigenvalues --    0.29210   0.29333   0.31305   0.31545   0.32257

 Mulliken charges:
               1
     1  C   -0.171492
     2  C   -0.223328
     3  C   -0.173466
     4  C    0.158570
     5  C   -0.171050
     6  C   -0.218648
     7  H    0.225481
     8  H    0.229784
     9  H    0.277535
    10  H    0.275276
    11  H    0.222997
    12  N    0.488125
    13  O   -0.460842
    14  O   -0.460487
    15  C   -0.298709
    16  C   -0.300063
    17  C   -0.475984
    18  H    0.151281
    19  H    0.149218
    20  H    0.153555
    21  H    0.151574
    22  H    0.154986
    23  H    0.156039
    24  H    0.161409
    25  C   -0.298956
    26  C   -0.299549
    27  C   -0.482361
    28  H    0.152618
    29  H    0.147324
    30  H    0.156383
    31  H    0.151872
    32  H    0.144850
    33  H    0.161684
    34  H    0.164375
 Sum of Mulliken charges =  -0.00000

 Dipole moment (field-independent basis, Debye):
    X=             -1.8983    Y=              4.8637    Z=              0.1038  Tot=              5.2221
 Quadrupole moment (field-independent basis, Debye-Ang):
   XX=           -103.5842   YY=            -95.3808   ZZ=            -95.2883
   XY=             20.6862   XZ=             -0.8540   YZ=             -1.5798

 Normal termination of Gaussian 16 at Thu May  6 03:01:48 2021.
