 Gaussian 16, Revision A.03,
 Gaussian 16:  EM64L-G16RevA.03 25-Dec-2016

 -------------
 #p 6-31g* mp2
 -------------

 ------------------------------------------------------
 Input file generated by CHIRIPA (05-May-2021 14:55:25)
 ------------------------------------------------------
 Symbolic Z-matrix:
 Charge =  0 Multiplicity = 1

                         Standard orientation:
 ---------------------------------------------------------------------
 Center     Atomic      Atomic             Coordinates (Angstroms)
 Number     Number       Type             X           Y           Z
 ---------------------------------------------------------------------
      1          6           0        1.267241    1.793508    1.638982
      2          6           0        1.977213    2.039484    0.459170
      3          6           0        2.452612    0.978789   -0.317663
      4          6           0        2.198875   -0.321195    0.117019
      5          6           0        1.494641   -0.598602    1.287655
      6          6           0        1.028642    0.477571    2.048737
      7          1           0        0.901591    2.623493    2.236327
      8          1           0        2.163994    3.060431    0.138505
      9          1           0        3.005009    1.140684   -1.235304
     10          1           0        1.324056   -1.627166    1.581550
     11          1           0        0.477557    0.283552    2.964547
     12          7           0        2.697184   -1.452298   -0.697042
     13          8           0        2.460465   -2.588439   -0.292338
     14          8           0        3.315041   -1.181298   -1.724392
     15          6           0       -2.485786    0.686156   -0.840731
     16          6           0       -2.084822    2.029762   -0.230864
     17          6           0       -1.639783    3.046877   -1.282153
     18          1           0       -1.637423    0.280882   -1.409043
     19          1           0       -3.297755    0.847102   -1.563365
     20          1           0       -1.274791    1.866146    0.491422
     21          1           0       -2.934175    2.431794    0.336220
     22          1           0       -2.445927    3.239360   -1.997472
     23          1           0       -0.777114    2.670499   -1.841389
     24          1           0       -1.357659    4.000125   -0.824348
     25          6           0       -2.933090   -0.341130    0.197696
     26          6           0       -3.334053   -1.684734   -0.412172
     27          6           0       -3.779093   -2.701850    0.639118
     28          1           0       -2.121120   -0.502076    0.920329
     29          1           0       -3.781452    0.064145    0.766007
     30          1           0       -2.484700   -2.086767   -0.979256
     31          1           0       -4.144084   -1.521119   -1.134458
     32          1           0       -4.641761   -2.325473    1.198353
     33          1           0       -2.972949   -2.894334    1.354437
     34          1           0       -4.061216   -3.655098    0.181313
 ---------------------------------------------------------------------

 SCF Done:  E(RHF) =  -669.535168438     A.U. after   15 cycles
 E2 =    -0.2094132032D+01 EUMP2 =    -0.67162930047005D+03

 The electronic state is 1-A.
 Alpha  occ. eigenvalues --  -20.60887 -20.60882 -15.85943 -11.31351 -11.27937
 Alpha  occ. eigenvalues --  -11.27926 -11.27650 -11.26942 -11.26924 -11.21772
 Alpha  occ. eigenvalues --  -11.21656 -11.21566 -11.21503 -11.21440 -11.21157
 Alpha  occ. eigenvalues --   -1.59963  -1.39515  -1.19539  -1.08935  -1.08582
 Alpha  occ. eigenvalues --   -1.04937  -1.03706  -0.96175  -0.95747  -0.87191
 Alpha  occ. eigenvalues --   -0.86327  -0.82572  -0.79776  -0.78416  -0.77608
 Alpha  occ. eigenvalues --   -0.72159  -0.71289  -0.70635  -0.65245  -0.65182
 Alpha  occ. eigenvalues --   -0.64918  -0.62275  -0.61131  -0.59559  -0.57788
 Alpha  occ. eigenvalues --   -0.55473  -0.55427  -0.53292  -0.53017  -0.52857
 Alpha  occ. eigenvalues --   -0.52601  -0.50112  -0.48921  -0.48912  -0.48095
 Alpha  occ. eigenvalues --   -0.46810  -0.45948  -0.45880  -0.44911  -0.43961
 Alpha  occ. eigenvalues --   -0.37390  -0.36518
 Alpha virt. eigenvalues --    0.04877   0.11062   0.16266   0.20825   0.22897
 Alpha virt. eigenvalues --    0.23897   0.26188   0.26776   0.27512   0.28179
 Alpha virt. eigenvalues --    0.28356   0.30637   0.31167   0.31527   0.31962

 Mulliken charges:
               1
     1  C   -0.174254
     2  C   -0.214840
     3  C   -0.171904
     4  C    0.158540
     5  C   -0.170905
     6  C   -0.216925
     7  H    0.227933
     8  H    0.225334
     9  H    0.276486
    10  H    0.276343
    11  H    0.225247
    12  N    0.487968
    13  O   -0.460028
    14  O   -0.459890
    15  C   -0.297158
    16  C   -0.307070
    17  C   -0.475326
    18  H    0.152287
    19  H    0.150010
    20  H    0.156965
    21  H    0.148749
    22  H    0.157377
    23  H    0.155428
    24  H    0.153103
    25  C   -0.298863
    26  C   -0.300894
    27  C   -0.474991
    28  H    0.145034
    29  H    0.147808
    30  H    0.156670
    31  H    0.152580
    32  H    0.153786
    33  H    0.152552
    34  H    0.162848
 Sum of Mulliken charges =  -0.00000

 Dipole moment (field-independent basis, Debye):
    X=             -1.6221    Y=              3.9208    Z=              2.8579  Tot=              5.1158
 Quadrupole moment (field-independent basis, Debye-Ang):
   XX=           -101.7027   YY=            -96.3932   ZZ=            -92.6345
   XY=             10.5946   XZ=              5.1835   YZ=             -2.1724

 Normal termination of Gaussian 16 at Thu May  6 07:58:20 2021.
