 Gaussian 16, Revision A.03,
 Gaussian 16:  EM64L-G16RevA.03 25-Dec-2016

 -------------
 #p 6-31g* mp2
 -------------

 ------------------------------------------------------
 Input file generated by CHIRIPA (05-May-2021 14:57:22)
 ------------------------------------------------------
 Symbolic Z-matrix:
 Charge =  0 Multiplicity = 1

                         Standard orientation:
 ---------------------------------------------------------------------
 Center     Atomic      Atomic             Coordinates (Angstroms)
 Number     Number       Type             X           Y           Z
 ---------------------------------------------------------------------
      1          6           0       -2.499060   -0.244346    2.149420
      2          6           0       -3.777608   -0.811508    2.162160
      3          6           0       -4.605699   -0.721024    1.039384
      4          6           0       -4.121036   -0.053184   -0.084174
      5          6           0       -2.852056    0.522219   -0.127663
      6          6           0       -2.041172    0.419537    1.006564
      7          1           0       -1.862462   -0.319373    3.026067
      8          1           0       -4.135842   -1.327679    3.048320
      9          1           0       -5.599805   -1.150991    1.022073
     10          1           0       -2.522685    1.030530   -1.025746
     11          1           0       -1.048684    0.860958    0.993822
     12          7           0       -4.988591    0.049064   -1.278867
     13          8           0       -4.538187    0.642696   -2.256300
     14          8           0       -6.102557   -0.466363   -1.215214
     15          6           0        5.138056   -2.130060   -0.536865
     16          6           0        5.886563   -0.953287   -0.429791
     17          6           0        5.254429    0.271364   -0.194887
     18          6           0        3.865908    0.282733   -0.071722
     19          6           0        3.092542   -0.872620   -0.173480
     20          6           0        3.745889   -2.086048   -0.408594
     21          1           0        5.637353   -3.077040   -0.719426
     22          1           0        6.967875   -0.984464   -0.528980
     23          1           0        5.809536    1.197467   -0.107650
     24          1           0        2.016069   -0.809887   -0.070088
     25          1           0        3.162035   -2.998364   -0.491294
     26          7           0        3.185467    1.573276    0.177071
     27          8           0        1.960968    1.556564    0.281767
     28          8           0        3.889520    2.577078    0.262670
 ---------------------------------------------------------------------

 SCF Done:  E(RHF) =  -868.339617278     A.U. after   16 cycles
 E2 =    -0.2598444592D+01 EUMP2 =    -0.87093806187001D+03

 The electronic state is 1-A.
 Alpha  occ. eigenvalues --  -20.61610 -20.61547 -20.60411 -20.60402 -15.86630
 Alpha  occ. eigenvalues --  -15.85456 -11.31791 -11.30738 -11.28363 -11.28309
 Alpha  occ. eigenvalues --  -11.28020 -11.27321 -11.27303 -11.27280 -11.27208
 Alpha  occ. eigenvalues --  -11.26994 -11.26344 -11.26101  -1.60640  -1.59487
 Alpha  occ. eigenvalues --   -1.40206  -1.39041  -1.19939  -1.18888  -1.09366
 Alpha  occ. eigenvalues --   -1.08301  -1.05314  -1.04254  -0.96238  -0.95154
 Alpha  occ. eigenvalues --   -0.86721  -0.85655  -0.83085  -0.81969  -0.78159
 Alpha  occ. eigenvalues --   -0.77026  -0.72862  -0.71948  -0.71675  -0.71045
 Alpha  occ. eigenvalues --   -0.70810  -0.70001  -0.65599  -0.65311  -0.64527
 Alpha  occ. eigenvalues --   -0.64209  -0.62669  -0.61574  -0.55811  -0.54772
 Alpha  occ. eigenvalues --   -0.53650  -0.53403  -0.52626  -0.52304  -0.49619
 Alpha  occ. eigenvalues --   -0.49568  -0.48436  -0.48424  -0.45654  -0.44465
 Alpha  occ. eigenvalues --   -0.37900  -0.36908  -0.36889  -0.35869
 Alpha virt. eigenvalues --    0.04372   0.05466   0.10749   0.11764   0.15909
 Alpha virt. eigenvalues --    0.16976   0.20667   0.22014   0.26303   0.27160
 Alpha virt. eigenvalues --    0.28565   0.28796   0.30296   0.31278   0.32372

 Mulliken charges:
               1
     1  C   -0.173355
     2  C   -0.218750
     3  C   -0.172741
     4  C    0.158293
     5  C   -0.173730
     6  C   -0.230927
     7  H    0.224986
     8  H    0.220965
     9  H    0.273586
    10  H    0.277952
    11  H    0.246817
    12  N    0.487957
    13  O   -0.460337
    14  O   -0.462386
    15  C   -0.170063
    16  C   -0.218320
    17  C   -0.170474
    18  C    0.158401
    19  C   -0.170715
    20  C   -0.218317
    21  H    0.227856
    22  H    0.225550
    23  H    0.276828
    24  H    0.271499
    25  H    0.225359
    26  N    0.493803
    27  O   -0.474678
    28  O   -0.455059
 Sum of Mulliken charges =  -0.00000

 Dipole moment (field-independent basis, Debye):
    X=              5.8858    Y=             -4.8691    Z=              3.2964  Tot=              8.3197
 Quadrupole moment (field-independent basis, Debye-Ang):
   XX=           -105.0839   YY=           -105.8159   ZZ=           -105.7773
   XY=            -11.6604   XZ=            -23.3484   YZ=             -1.4013

 Normal termination of Gaussian 16 at Wed May  5 22:35:25 2021.
