 Gaussian 16, Revision A.03,
 Gaussian 16:  EM64L-G16RevA.03 25-Dec-2016

 -------------
 #p 6-31g* mp2
 -------------

 ------------------------------------------------------
 Input file generated by CHIRIPA (05-May-2021 14:51:14)
 ------------------------------------------------------
 Symbolic Z-matrix:
 Charge =  0 Multiplicity = 1

                         Standard orientation:
 ---------------------------------------------------------------------
 Center     Atomic      Atomic             Coordinates (Angstroms)
 Number     Number       Type             X           Y           Z
 ---------------------------------------------------------------------
      1          6           0       -4.341379   -0.094454    0.460203
      2          6           0       -5.585391   -0.573661   -0.288650
      3          6           0       -6.352055   -1.656710    0.470972
      4          1           0       -3.680102   -0.951840    0.646072
      5          1           0       -4.640175    0.289212    1.445554
      6          1           0       -5.284499   -0.955034   -1.272842
      7          1           0       -6.243695    0.284998   -0.472926
      8          1           0       -6.680338   -1.283902    1.446598
      9          1           0       -5.715693   -2.530979    0.642137
     10          1           0       -7.237552   -1.984733   -0.082342
     11          6           0       -3.564344    0.988296   -0.286521
     12          6           0       -2.320332    1.467503    0.462332
     13          6           0       -1.553668    2.550552   -0.297290
     14          1           0       -3.265549    0.604629   -1.271872
     15          1           0       -4.225622    1.845682   -0.472389
     16          1           0       -1.662029    0.608844    0.646608
     17          1           0       -2.621224    1.848875    1.446524
     18          1           0       -2.190031    3.424821   -0.468455
     19          1           0       -1.225385    2.177744   -1.272916
     20          1           0       -0.668172    2.878575    0.256024
     21          6           0        4.666044   -0.655560    0.090002
     22          6           0        5.641670    0.519642    0.160982
     23          6           0        7.064378    0.086259    0.515770
     24          1           0        4.661342   -1.178822    1.055983
     25          1           0        5.026810   -1.378089   -0.655113
     26          1           0        5.278443    1.240403    0.904748
     27          1           0        5.643906    1.040282   -0.805220
     28          1           0        7.450684   -0.615569   -0.230426
     29          1           0        7.083144   -0.414312    1.489258
     30          1           0        7.745196    0.941998    0.561129
     31          6           0        3.239679   -0.238282   -0.263684
     32          6           0        2.264054   -1.413484   -0.334663
     33          6           0        0.841346   -0.980100   -0.689452
     34          1           0        2.878913    0.484247    0.481430
     35          1           0        3.244382    0.284980   -1.229665
     36          1           0        2.261818   -1.934124    0.631538
     37          1           0        2.627281   -2.134244   -1.078430
     38          1           0        0.822581   -0.479530   -1.662940
     39          1           0        0.455041   -0.278273    0.056743
     40          1           0        0.160529   -1.835840   -0.734812
 ---------------------------------------------------------------------

 SCF Done:  E(RHF) =  -470.733206905     A.U. after   11 cycles
 E2 =    -0.1582693211D+01 EUMP2 =    -0.47231590011588D+03

 The electronic state is 1-A.
 Alpha  occ. eigenvalues --  -11.21634 -11.21610 -11.21567 -11.21510 -11.21422
 Alpha  occ. eigenvalues --  -11.21362 -11.21352 -11.21290 -11.21109 -11.21078
 Alpha  occ. eigenvalues --  -11.21046 -11.21009  -1.08451  -1.08375  -1.03565
 Alpha  occ. eigenvalues --   -1.03470  -0.96018  -0.95920  -0.87026  -0.86946
 Alpha  occ. eigenvalues --   -0.79645  -0.79522  -0.78267  -0.78185  -0.65109
 Alpha  occ. eigenvalues --   -0.64988  -0.61061  -0.60797  -0.59375  -0.59301
 Alpha  occ. eigenvalues --   -0.57637  -0.57522  -0.55349  -0.55166  -0.52704
 Alpha  occ. eigenvalues --   -0.52627  -0.52424  -0.52348  -0.50028  -0.49813
 Alpha  occ. eigenvalues --   -0.48008  -0.47794  -0.46789  -0.46438  -0.45845
 Alpha  occ. eigenvalues --   -0.45754  -0.45698  -0.45538  -0.43807  -0.43733
 Alpha virt. eigenvalues --    0.21528   0.22985   0.23657   0.24852   0.26239
 Alpha virt. eigenvalues --    0.26418   0.27320   0.27446   0.27983   0.29082
 Alpha virt. eigenvalues --    0.30334   0.30933   0.31742   0.31954   0.32194

 Mulliken charges:
               1
     1  C   -0.298397
     2  C   -0.299635
     3  C   -0.475667
     4  H    0.149810
     5  H    0.149260
     6  H    0.151943
     7  H    0.151842
     8  H    0.155091
     9  H    0.155085
    10  H    0.160131
    11  C   -0.297818
    12  C   -0.305551
    13  C   -0.475696
    14  H    0.149973
    15  H    0.149260
    16  H    0.157829
    17  H    0.151192
    18  H    0.154798
    19  H    0.156451
    20  H    0.159299
    21  C   -0.298338
    22  C   -0.299676
    23  C   -0.475722
    24  H    0.149660
    25  H    0.149550
    26  H    0.151970
    27  H    0.152028
    28  H    0.155186
    29  H    0.155185
    30  H    0.160314
    31  C   -0.298360
    32  C   -0.299566
    33  C   -0.481248
    34  H    0.149648
    35  H    0.149855
    36  H    0.151983
    37  H    0.151959
    38  H    0.155388
    39  H    0.161518
    40  H    0.159463
 Sum of Mulliken charges =  -0.00000

 Dipole moment (field-independent basis, Debye):
    X=              0.0280    Y=             -0.0070    Z=             -0.0079  Tot=              0.0299
 Quadrupole moment (field-independent basis, Debye-Ang):
   XX=            -86.1218   YY=            -84.9751   ZZ=            -83.8142
   XY=             -0.7552   XZ=             -0.4357   YZ=              0.8084

 Normal termination of Gaussian 16 at Wed May  5 21:39:09 2021.
