 Gaussian 16, Revision A.03,
 Gaussian 16:  EM64L-G16RevA.03 25-Dec-2016

 -------------
 #p 6-31g* mp2
 -------------

 ------------------------------------------------------
 Input file generated by CHIRIPA (05-May-2021 14:51:12)
 ------------------------------------------------------
 Symbolic Z-matrix:
 Charge =  0 Multiplicity = 1

                         Standard orientation:
 ---------------------------------------------------------------------
 Center     Atomic      Atomic             Coordinates (Angstroms)
 Number     Number       Type             X           Y           Z
 ---------------------------------------------------------------------
      1          6           0       -1.899814   -0.920026    0.172868
      2          6           0       -1.731849   -2.069974    1.166544
      3          6           0       -0.293145   -2.582339    1.240062
      4          1           0       -1.576670   -1.253930   -0.822637
      5          1           0       -1.230596   -0.096790    0.458917
      6          1           0       -2.402197   -2.890254    0.879503
      7          1           0       -2.055612   -1.733353    2.159761
      8          1           0        0.385901   -1.780930    1.548673
      9          1           0        0.037347   -2.944404    0.261142
     10          1           0       -0.195756   -3.404141    1.956315
     11          6           0       -3.332642   -0.397004    0.088129
     12          6           0       -3.500607    0.752944   -0.905547
     13          6           0       -4.939312    1.265309   -0.979065
     14          1           0       -4.001861   -1.220240   -0.197920
     15          1           0       -3.655787   -0.063100    1.083634
     16          1           0       -3.176845    0.416322   -1.898764
     17          1           0       -2.830260    1.573223   -0.618506
     18          1           0       -5.269803    1.627373   -0.000144
     19          1           0       -5.618357    0.463899   -1.287676
     20          1           0       -5.036701    2.087110   -1.695318
     21          6           0        2.494614   -0.085738   -0.251858
     22          6           0        3.693648   -0.802620   -0.873453
     23          6           0        3.434985   -2.290855   -1.110191
     24          1           0        2.238555   -0.570821    0.700022
     25          1           0        1.622485   -0.207258   -0.909140
     26          1           0        4.563604   -0.678613   -0.215871
     27          1           0        3.947002   -0.315656   -1.823870
     28          1           0        2.583777   -2.431480   -1.784187
     29          1           0        3.203883   -2.796502   -0.167050
     30          1           0        4.305032   -2.783762   -1.555078
     31          6           0        2.737843    1.402769   -0.009140
     32          6           0        1.538809    2.119651    0.612456
     33          6           0        1.797472    3.607886    0.849195
     34          1           0        3.609971    1.524288    0.648143
     35          1           0        2.993901    1.887852   -0.961019
     36          1           0        1.285455    1.632685    1.562873
     37          1           0        0.668852    1.995644   -0.045126
     38          1           0        2.028574    4.113532   -0.093946
     39          1           0        2.648680    3.748512    1.523189
     40          1           0        0.927426    4.100793    1.294081
 ---------------------------------------------------------------------

 SCF Done:  E(RHF) =  -470.732946059     A.U. after   11 cycles
 E2 =    -0.1584204617D+01 EUMP2 =    -0.47231715067621D+03

 The electronic state is 1-A.
 Alpha  occ. eigenvalues --  -11.21650 -11.21602 -11.21568 -11.21552 -11.21385
 Alpha  occ. eigenvalues --  -11.21368 -11.21299 -11.21294 -11.21108 -11.21070
 Alpha  occ. eigenvalues --  -11.21029 -11.20966  -1.08445  -1.08376  -1.03538
 Alpha  occ. eigenvalues --   -1.03488  -0.95977  -0.95939  -0.87001  -0.86952
 Alpha  occ. eigenvalues --   -0.79648  -0.79534  -0.78409  -0.78025  -0.65075
 Alpha  occ. eigenvalues --   -0.65017  -0.60947  -0.60881  -0.59370  -0.59297
 Alpha  occ. eigenvalues --   -0.57618  -0.57529  -0.55328  -0.55168  -0.52679
 Alpha  occ. eigenvalues --   -0.52641  -0.52461  -0.52324  -0.49980  -0.49819
 Alpha  occ. eigenvalues --   -0.48077  -0.47788  -0.46703  -0.46598  -0.46177
 Alpha  occ. eigenvalues --   -0.45714  -0.45598  -0.45153  -0.43775  -0.43749
 Alpha virt. eigenvalues --    0.20993   0.22712   0.23560   0.24070   0.24991
 Alpha virt. eigenvalues --    0.25498   0.26818   0.27427   0.28590   0.30236
 Alpha virt. eigenvalues --    0.30900   0.31461   0.31716   0.31860   0.32114

 Mulliken charges:
               1
     1  C   -0.303148
     2  C   -0.299606
     3  C   -0.480007
     4  H    0.148698
     5  H    0.155625
     6  H    0.151541
     7  H    0.151383
     8  H    0.159280
     9  H    0.156922
    10  H    0.158993
    11  C   -0.298091
    12  C   -0.300014
    13  C   -0.475638
    14  H    0.149437
    15  H    0.149579
    16  H    0.151556
    17  H    0.151874
    18  H    0.155245
    19  H    0.155252
    20  H    0.160136
    21  C   -0.303664
    22  C   -0.299444
    23  C   -0.476538
    24  H    0.154536
    25  H    0.151956
    26  H    0.151558
    27  H    0.151569
    28  H    0.154570
    29  H    0.157437
    30  H    0.159810
    31  C   -0.297868
    32  C   -0.302715
    33  C   -0.475549
    34  H    0.149309
    35  H    0.149599
    36  H    0.150944
    37  H    0.154525
    38  H    0.155531
    39  H    0.155386
    40  H    0.160029
 Sum of Mulliken charges =  -0.00000

 Dipole moment (field-independent basis, Debye):
    X=              0.0263    Y=              0.0055    Z=             -0.0004  Tot=              0.0269
 Quadrupole moment (field-independent basis, Debye-Ang):
   XX=            -85.6786   YY=            -85.7644   ZZ=            -83.4616
   XY=              0.4575   XZ=              0.3469   YZ=              0.1465

 Normal termination of Gaussian 16 at Thu May  6 05:31:36 2021.
