 Gaussian 16, Revision A.03,
 Gaussian 16:  EM64L-G16RevA.03 25-Dec-2016

 -------------
 #p 6-31g* mp2
 -------------

 ------------------------------------------------------
 Input file generated by CHIRIPA (05-May-2021 14:55:25)
 ------------------------------------------------------
 Symbolic Z-matrix:
 Charge =  0 Multiplicity = 1

                         Standard orientation:
 ---------------------------------------------------------------------
 Center     Atomic      Atomic             Coordinates (Angstroms)
 Number     Number       Type             X           Y           Z
 ---------------------------------------------------------------------
      1          6           0        1.507040    0.357554   -0.557253
      2          6           0        2.418085    1.406683   -0.396485
      3          6           0        3.764042    1.142985   -0.125541
      4          6           0        4.166360   -0.187655   -0.021479
      5          6           0        3.282748   -1.254655   -0.176495
      6          6           0        1.941513   -0.967431   -0.446939
      7          1           0        0.463302    0.571539   -0.767535
      8          1           0        2.083493    2.436657   -0.481616
      9          1           0        4.490593    1.936014    0.003475
     10          1           0        3.646066   -2.271128   -0.085934
     11          1           0        1.236212   -1.784208   -0.571316
     12          7           0        5.588765   -0.479273    0.265093
     13          8           0        5.918065   -1.660227    0.351960
     14          8           0        6.347412    0.478632    0.397414
     15          6           0       -4.293383    0.229243   -0.096529
     16          6           0       -3.633731    1.519733    0.390789
     17          6           0       -2.154406    1.606240    0.014080
     18          1           0       -3.755514   -0.631444    0.324020
     19          1           0       -4.187432    0.161065   -1.188098
     20          1           0       -3.742106    1.586134    1.480954
     21          1           0       -4.173350    2.377449   -0.030815
     22          1           0       -2.030656    1.565348   -1.072940
     23          1           0       -1.596961    0.769537    0.447419
     24          1           0       -1.702675    2.536590    0.372198
     25          6           0       -5.772360    0.128114    0.272427
     26          6           0       -6.432011   -1.162377   -0.214892
     27          6           0       -7.911336   -1.248884    0.161818
     28          1           0       -5.878310    0.196291    1.363996
     29          1           0       -6.310228    0.988800   -0.148122
     30          1           0       -5.892392   -2.020093    0.206713
     31          1           0       -6.323636   -1.228777   -1.305058
     32          1           0       -8.468782   -0.412181   -0.271521
     33          1           0       -8.035086   -1.207992    1.248838
     34          1           0       -8.363068   -2.179234   -0.196301
 ---------------------------------------------------------------------

 SCF Done:  E(RHF) =  -669.535433446     A.U. after   15 cycles
 E2 =    -0.2091053437D+01 EUMP2 =    -0.67162648688266D+03

 The electronic state is 1-A.
 Alpha  occ. eigenvalues --  -20.60688 -20.60683 -15.85742 -11.31081 -11.27658
 Alpha  occ. eigenvalues --  -11.27652 -11.27291 -11.26649 -11.26635 -11.22598
 Alpha  occ. eigenvalues --  -11.22445 -11.22238 -11.22171 -11.22035 -11.21536
 Alpha  occ. eigenvalues --   -1.59765  -1.39319  -1.19250  -1.09224  -1.08639
 Alpha  occ. eigenvalues --   -1.04654  -1.04363  -0.96852  -0.95478  -0.87883
 Alpha  occ. eigenvalues --   -0.86047  -0.82323  -0.80454  -0.78998  -0.77377
 Alpha  occ. eigenvalues --   -0.71959  -0.71088  -0.70345  -0.65846  -0.64896
 Alpha  occ. eigenvalues --   -0.64660  -0.62007  -0.61754  -0.60225  -0.58454
 Alpha  occ. eigenvalues --   -0.56157  -0.55222  -0.53512  -0.53186  -0.52969
 Alpha  occ. eigenvalues --   -0.52742  -0.50783  -0.48776  -0.48716  -0.48672
 Alpha  occ. eigenvalues --   -0.47450  -0.46547  -0.46440  -0.44731  -0.44595
 Alpha  occ. eigenvalues --   -0.37208  -0.36268
 Alpha virt. eigenvalues --    0.05147   0.11384   0.16597   0.20770   0.22178
 Alpha virt. eigenvalues --    0.23692   0.25759   0.25987   0.26758   0.27351
 Alpha virt. eigenvalues --    0.29328   0.30135   0.30447   0.31166   0.31974

 Mulliken charges:
               1
     1  C   -0.177767
     2  C   -0.221873
     3  C   -0.170873
     4  C    0.158039
     5  C   -0.170642
     6  C   -0.221766
     7  H    0.240917
     8  H    0.223072
     9  H    0.275117
    10  H    0.275059
    11  H    0.223011
    12  N    0.488063
    13  O   -0.460820
    14  O   -0.460782
    15  C   -0.299216
    16  C   -0.299299
    17  C   -0.484641
    18  H    0.148697
    19  H    0.149451
    20  H    0.156126
    21  H    0.155566
    22  H    0.152894
    23  H    0.152987
    24  H    0.163342
    25  C   -0.298957
    26  C   -0.300162
    27  C   -0.476140
    28  H    0.151206
    29  H    0.151168
    30  H    0.152089
    31  H    0.152227
    32  H    0.156014
    33  H    0.156133
    34  H    0.161758
 Sum of Mulliken charges =  -0.00000

 Dipole moment (field-independent basis, Debye):
    X=             -5.3183    Y=              1.0685    Z=             -0.9745  Tot=              5.5115
 Quadrupole moment (field-independent basis, Debye-Ang):
   XX=           -137.2293   YY=            -90.0849   ZZ=            -94.8718
   XY=              5.9487   XZ=             -3.7894   YZ=             -0.0362

 Normal termination of Gaussian 16 at Thu May  6 09:31:42 2021.
