 Gaussian 16, Revision A.03,
 Gaussian 16:  EM64L-G16RevA.03 25-Dec-2016

 -------------
 #p 6-31g* mp2
 -------------

 ------------------------------------------------------
 Input file generated by CHIRIPA (05-May-2021 14:57:23)
 ------------------------------------------------------
 Symbolic Z-matrix:
 Charge =  0 Multiplicity = 1

                         Standard orientation:
 ---------------------------------------------------------------------
 Center     Atomic      Atomic             Coordinates (Angstroms)
 Number     Number       Type             X           Y           Z
 ---------------------------------------------------------------------
      1          6           0        3.132360    2.694463    0.429551
      2          6           0        4.080529    2.059455   -0.379313
      3          6           0        4.010611    0.681951   -0.607658
      4          6           0        2.974593   -0.033049   -0.008715
      5          6           0        2.014865    0.570857    0.802155
      6          6           0        2.104366    1.949451    1.016667
      7          1           0        3.194280    3.764965    0.601562
      8          1           0        4.879975    2.635519   -0.836569
      9          1           0        4.731378    0.164964   -1.229460
     10          1           0        1.229440   -0.029973    1.244341
     11          1           0        1.366613    2.439946    1.645302
     12          7           0        2.890208   -1.491928   -0.243132
     13          8           0        1.967765   -2.099402    0.296044
     14          8           0        3.748107   -2.000299   -0.961606
     15          6           0       -1.584028   -2.171184    0.702817
     16          6           0       -2.196249   -1.353221    1.658140
     17          6           0       -2.976652   -0.262406    1.263623
     18          6           0       -3.124281   -0.017540   -0.100758
     19          6           0       -2.527110   -0.814081   -1.076566
     20          6           0       -1.751118   -1.899481   -0.659087
     21          1           0       -0.979506   -3.016452    1.018206
     22          1           0       -2.068228   -1.561839    2.716505
     23          1           0       -3.461908    0.387082    1.982030
     24          1           0       -2.673096   -0.580941   -2.124302
     25          1           0       -1.276843   -2.533019   -1.403223
     26          7           0       -3.948122    1.134391   -0.530570
     27          8           0       -4.062676    1.328861   -1.738749
     28          8           0       -4.463698    1.820992    0.348860
 ---------------------------------------------------------------------

 SCF Done:  E(RHF) =  -868.340375189     A.U. after   16 cycles
 E2 =    -0.2599500759D+01 EUMP2 =    -0.87093987594756D+03

 The electronic state is 1-A.
 Alpha  occ. eigenvalues --  -20.61474 -20.61421 -20.60691 -20.60676 -15.86488
 Alpha  occ. eigenvalues --  -15.85736 -11.31560 -11.30946 -11.28102 -11.28082
 Alpha  occ. eigenvalues --  -11.27780 -11.27577 -11.27468 -11.27049 -11.27049
 Alpha  occ. eigenvalues --  -11.27029 -11.26490 -11.26308  -1.60518  -1.59769
 Alpha  occ. eigenvalues --   -1.40081  -1.39326  -1.19708  -1.19105  -1.09155
 Alpha  occ. eigenvalues --   -1.08475  -1.05067  -1.04486  -0.96042  -0.95336
 Alpha  occ. eigenvalues --   -0.86477  -0.85853  -0.82893  -0.82182  -0.77968
 Alpha  occ. eigenvalues --   -0.77293  -0.72746  -0.71952  -0.71824  -0.71099
 Alpha  occ. eigenvalues --   -0.70810  -0.70063  -0.65365  -0.65065  -0.64721
 Alpha  occ. eigenvalues --   -0.64435  -0.62420  -0.61831  -0.55573  -0.54813
 Alpha  occ. eigenvalues --   -0.53413  -0.53191  -0.52788  -0.52537  -0.49484
 Alpha  occ. eigenvalues --   -0.49442  -0.48719  -0.48693  -0.45554  -0.44767
 Alpha  occ. eigenvalues --   -0.37670  -0.36980  -0.36656  -0.36126
 Alpha virt. eigenvalues --    0.04526   0.05259   0.10998   0.11527   0.16095
 Alpha virt. eigenvalues --    0.16805   0.21116   0.21938   0.27015   0.27704
 Alpha virt. eigenvalues --    0.27905   0.28926   0.30734   0.31547   0.32072

 Mulliken charges:
               1
     1  C   -0.169420
     2  C   -0.218676
     3  C   -0.170675
     4  C    0.156721
     5  C   -0.170695
     6  C   -0.218823
     7  H    0.228202
     8  H    0.224918
     9  H    0.275576
    10  H    0.274424
    11  H    0.226038
    12  N    0.490452
    13  O   -0.472133
    14  O   -0.457812
    15  C   -0.163420
    16  C   -0.228484
    17  C   -0.174795
    18  C    0.156246
    19  C   -0.173235
    20  C   -0.218895
    21  H    0.240570
    22  H    0.222157
    23  H    0.272495
    24  H    0.274713
    25  H    0.230854
    26  N    0.488078
    27  O   -0.460915
    28  O   -0.463466
 Sum of Mulliken charges =  -0.00000

 Dipole moment (field-independent basis, Debye):
    X=              3.4430    Y=              0.9658    Z=              2.2574  Tot=              4.2288
 Quadrupole moment (field-independent basis, Debye-Ang):
   XX=           -119.2166   YY=           -105.1870   ZZ=            -99.6118
   XY=             28.8247   XZ=             -6.2612   YZ=              1.5007

 Normal termination of Gaussian 16 at Fri May  7 03:24:50 2021.
