 Gaussian 16, Revision A.03,
 Gaussian 16:  EM64L-G16RevA.03 25-Dec-2016

 -------------
 #p 6-31g* mp2
 -------------

 ------------------------------------------------------
 Input file generated by CHIRIPA (05-May-2021 14:57:21)
 ------------------------------------------------------
 Symbolic Z-matrix:
 Charge =  0 Multiplicity = 1

                         Standard orientation:
 ---------------------------------------------------------------------
 Center     Atomic      Atomic             Coordinates (Angstroms)
 Number     Number       Type             X           Y           Z
 ---------------------------------------------------------------------
      1          6           0        5.339333    1.998861   -0.111585
      2          6           0        4.035409    2.115008   -0.604345
      3          6           0        3.173536    1.014240   -0.598591
      4          6           0        3.650661   -0.192993   -0.090428
      5          6           0        4.944354   -0.340342    0.407504
      6          6           0        5.788851    0.773717    0.391879
      7          1           0        6.002108    2.859127   -0.119889
      8          1           0        3.683601    3.065231   -0.995947
      9          1           0        2.159282    1.076248   -0.973907
     10          1           0        5.266539   -1.300638    0.791491
     11          1           0        6.800993    0.680591    0.775209
     12          7           0        2.747431   -1.365362   -0.079112
     13          8           0        3.191853   -2.417904    0.373969
     14          8           0        1.612162   -1.209524   -0.523537
     15          6           0       -5.826620    1.497794   -0.020543
     16          6           0       -4.636218    1.971891    0.540431
     17          6           0       -3.506810    1.150676    0.608201
     18          6           0       -3.603551   -0.145051    0.103202
     19          6           0       -4.775272   -0.646369   -0.461635
     20          6           0       -5.892233    0.192478   -0.518908
     21          1           0       -6.699138    2.142582   -0.069111
     22          1           0       -4.582361    2.985173    0.928250
     23          1           0       -2.572614    1.492148    1.037261
     24          1           0       -4.798387   -1.661129   -0.839981
     25          1           0       -6.815392   -0.178391   -0.955116
     26          7           0       -2.414487   -1.023768    0.169390
     27          8           0       -2.525527   -2.161362   -0.282481
     28          8           0       -1.393972   -0.558273    0.671886
 ---------------------------------------------------------------------

 SCF Done:  E(RHF) =  -868.334673572     A.U. after   16 cycles
 E2 =    -0.2600579556D+01 EUMP2 =    -0.87093525312768D+03

 The electronic state is 1-A.
 Alpha  occ. eigenvalues --  -20.59856 -20.59828 -20.59595 -20.59452 -15.84921
 Alpha  occ. eigenvalues --  -15.84580 -11.30675 -11.30381 -11.27309 -11.27270
 Alpha  occ. eigenvalues --  -11.27099 -11.27012 -11.26993 -11.26848 -11.26404
 Alpha  occ. eigenvalues --  -11.26372 -11.26132 -11.26120  -1.58905  -1.58594
 Alpha  occ. eigenvalues --   -1.38458  -1.38134  -1.18882  -1.18600  -1.08200
 Alpha  occ. eigenvalues --   -1.07919  -1.04344  -1.04070  -0.94971  -0.94674
 Alpha  occ. eigenvalues --   -0.85724  -0.85447  -0.81811  -0.81503  -0.76792
 Alpha  occ. eigenvalues --   -0.76478  -0.71172  -0.70750  -0.70250  -0.69990
 Alpha  occ. eigenvalues --   -0.69926  -0.69709  -0.64526  -0.64352  -0.64239
 Alpha  occ. eigenvalues --   -0.64085  -0.61691  -0.61412  -0.54829  -0.54569
 Alpha  occ. eigenvalues --   -0.52651  -0.52443  -0.52375  -0.52172  -0.47924
 Alpha  occ. eigenvalues --   -0.47859  -0.47543  -0.47505  -0.43814  -0.43376
 Alpha  occ. eigenvalues --   -0.36882  -0.36609  -0.35967  -0.35694
 Alpha virt. eigenvalues --    0.05736   0.06089   0.11681   0.11956   0.17162
 Alpha virt. eigenvalues --    0.17495   0.21766   0.22017   0.27644   0.27888
 Alpha virt. eigenvalues --    0.28679   0.28969   0.31276   0.31539   0.32911

 Mulliken charges:
               1
     1  C   -0.172280
     2  C   -0.218917
     3  C   -0.170808
     4  C    0.159761
     5  C   -0.171639
     6  C   -0.218653
     7  H    0.222169
     8  H    0.219548
     9  H    0.277109
    10  H    0.274873
    11  H    0.220772
    12  N    0.486725
    13  O   -0.465562
    14  O   -0.443454
    15  C   -0.172124
    16  C   -0.218479
    17  C   -0.172181
    18  C    0.159707
    19  C   -0.171378
    20  C   -0.218408
    21  H    0.223385
    22  H    0.220541
    23  H    0.273113
    24  H    0.276212
    25  H    0.222064
    26  N    0.487252
    27  O   -0.456877
    28  O   -0.452473
 Sum of Mulliken charges =  -0.00000

 Dipole moment (field-independent basis, Debye):
    X=             -1.1246    Y=              6.9962    Z=             -0.2992  Tot=              7.0924
 Quadrupole moment (field-independent basis, Debye-Ang):
   XX=            -50.7355   YY=           -104.2430   ZZ=           -104.6058
   XY=              3.9070   XZ=              3.1443   YZ=              0.5923

 Normal termination of Gaussian 16 at Wed May  5 17:45:50 2021.
