 Gaussian 16, Revision A.03,
 Gaussian 16:  EM64L-G16RevA.03 25-Dec-2016

 -------------
 #p 6-31g* mp2
 -------------

 ------------------------------------------------------
 Input file generated by CHIRIPA (05-May-2021 14:55:25)
 ------------------------------------------------------
 Symbolic Z-matrix:
 Charge =  0 Multiplicity = 1

                         Standard orientation:
 ---------------------------------------------------------------------
 Center     Atomic      Atomic             Coordinates (Angstroms)
 Number     Number       Type             X           Y           Z
 ---------------------------------------------------------------------
      1          6           0       -2.107523    2.566261    0.284379
      2          6           0       -1.263332    1.543209   -0.159723
      3          6           0       -1.771713    0.268226   -0.425269
      4          6           0       -3.135397    0.050324   -0.235071
      5          6           0       -4.002046    1.049019    0.206310
      6          6           0       -3.471781    2.316341    0.465659
      7          1           0       -1.704100    3.553722    0.488255
      8          1           0       -0.203420    1.734423   -0.301393
      9          1           0       -1.140722   -0.541961   -0.770039
     10          1           0       -5.054291    0.828099    0.338193
     11          1           0       -4.129755    3.108952    0.810454
     12          7           0       -3.685181   -1.295388   -0.512913
     13          8           0       -4.890242   -1.461771   -0.337463
     14          8           0       -2.900632   -2.158293   -0.900874
     15          6           0        3.155007   -0.515621    0.175944
     16          6           0        2.536255   -1.050762    1.467746
     17          6           0        1.050757   -1.380933    1.319160
     18          1           0        2.608009    0.383135   -0.140246
     19          1           0        3.021771   -1.259435   -0.621793
     20          1           0        2.671840   -0.306745    2.263153
     21          1           0        3.084910   -1.948239    1.781001
     22          1           0        0.900451   -2.140226    0.544897
     23          1           0        0.485034   -0.489405    1.029787
     24          1           0        0.628658   -1.761844    2.254360
     25          6           0        4.639645   -0.180991    0.308613
     26          6           0        5.258397    0.354150   -0.983190
     27          6           0        6.743895    0.684321   -0.834603
     28          1           0        4.772881    0.562823    1.106350
     29          1           0        5.186643   -1.079747    0.624802
     30          1           0        4.709741    1.251628   -1.296445
     31          1           0        5.122811   -0.389867   -1.778596
     32          1           0        7.309617   -0.207207   -0.545231
     33          1           0        6.894200    1.443614   -0.060340
     34          1           0        7.165993    1.065233   -1.769803
 ---------------------------------------------------------------------

 SCF Done:  E(RHF) =  -669.534316124     A.U. after   15 cycles
 E2 =    -0.2092773899D+01 EUMP2 =    -0.67162709002322D+03

 The electronic state is 1-A.
 Alpha  occ. eigenvalues --  -20.60730 -20.60724 -15.85784 -11.31144 -11.27749
 Alpha  occ. eigenvalues --  -11.27693 -11.27502 -11.26753 -11.26742 -11.22008
 Alpha  occ. eigenvalues --  -11.21998 -11.21938 -11.21801 -11.21396 -11.21377
 Alpha  occ. eigenvalues --   -1.59804  -1.39357  -1.19346  -1.08882  -1.08736
 Alpha  occ. eigenvalues --   -1.04769  -1.03922  -0.96386  -0.95566  -0.87405
 Alpha  occ. eigenvalues --   -0.86143  -0.82415  -0.80004  -0.78718  -0.77436
 Alpha  occ. eigenvalues --   -0.72005  -0.71127  -0.70459  -0.65528  -0.65001
 Alpha  occ. eigenvalues --   -0.64757  -0.62179  -0.61284  -0.59733  -0.57990
 Alpha  occ. eigenvalues --   -0.55701  -0.55255  -0.53250  -0.53016  -0.52919
 Alpha  occ. eigenvalues --   -0.52572  -0.50312  -0.48764  -0.48756  -0.48292
 Alpha  occ. eigenvalues --   -0.47027  -0.46251  -0.46165  -0.44761  -0.44189
 Alpha  occ. eigenvalues --   -0.37332  -0.36281
 Alpha virt. eigenvalues --    0.05062   0.11265   0.16403   0.19857   0.22671
 Alpha virt. eigenvalues --    0.23889   0.25105   0.26353   0.27130   0.28353
 Alpha virt. eigenvalues --    0.29639   0.29803   0.31479   0.31597   0.32329

 Mulliken charges:
               1
     1  C   -0.171179
     2  C   -0.222051
     3  C   -0.168239
     4  C    0.155768
     5  C   -0.170837
     6  C   -0.218934
     7  H    0.225589
     8  H    0.225058
     9  H    0.280767
    10  H    0.275600
    11  H    0.223317
    12  N    0.488227
    13  O   -0.460755
    14  O   -0.460295
    15  C   -0.298489
    16  C   -0.299920
    17  C   -0.483990
    18  H    0.139158
    19  H    0.152686
    20  H    0.151160
    21  H    0.155537
    22  H    0.161224
    23  H    0.151000
    24  H    0.165993
    25  C   -0.298315
    26  C   -0.299705
    27  C   -0.475948
    28  H    0.149276
    29  H    0.152584
    30  H    0.149222
    31  H    0.153634
    32  H    0.156672
    33  H    0.154994
    34  H    0.161191
 Sum of Mulliken charges =  -0.00000

 Dipole moment (field-independent basis, Debye):
    X=              1.9986    Y=              4.6367    Z=              1.0099  Tot=              5.1491
 Quadrupole moment (field-independent basis, Debye-Ang):
   XX=           -103.4981   YY=            -93.3305   ZZ=            -95.5768
   XY=            -17.3568   XZ=             -4.9201   YZ=             -0.3579

 Normal termination of Gaussian 16 at Thu May  6 11:05:16 2021.
