 Gaussian 16, Revision A.03,
 Gaussian 16:  EM64L-G16RevA.03 25-Dec-2016

 -------------
 #p 6-31g* mp2
 -------------

 ------------------------------------------------------
 Input file generated by CHIRIPA (05-May-2021 14:53:12)
 ------------------------------------------------------
 Symbolic Z-matrix:
 Charge =  0 Multiplicity = 1

                         Standard orientation:
 ---------------------------------------------------------------------
 Center     Atomic      Atomic             Coordinates (Angstroms)
 Number     Number       Type             X           Y           Z
 ---------------------------------------------------------------------
      1          6           0        3.497486   -0.683708   -0.003999
      2          6           0        3.623032   -1.589645   -1.229356
      3          6           0        3.325892   -3.055837   -0.913470
      4          1           0        4.183105   -1.038061    0.777862
      5          1           0        2.482219   -0.772797    0.406722
      6          1           0        4.637338   -1.497823   -1.638462
      7          1           0        2.937174   -1.232980   -2.008461
      8          1           0        2.308015   -3.167850   -0.526195
      9          1           0        4.017840   -3.434198   -0.154094
     10          1           0        3.421475   -3.685615   -1.803471
     11          6           0        3.791539    0.785088   -0.303833
     12          6           0        3.665993    1.691025    0.921525
     13          6           0        3.963133    3.157216    0.605638
     14          1           0        4.806806    0.874177   -0.714553
     15          1           0        3.105920    1.139440   -1.085693
     16          1           0        4.351851    1.334360    1.700629
     17          1           0        2.651686    1.599202    1.330631
     18          1           0        3.271185    3.535577   -0.153738
     19          1           0        4.981009    3.269230    0.218363
     20          1           0        3.867550    3.786994    1.495640
     21          6           0       -1.653304   -1.068605    2.090400
     22          6           0       -0.936162   -0.721047    0.940865
     23          6           0       -1.587336   -0.150275   -0.156743
     24          6           0       -2.962704    0.059879   -0.070220
     25          6           0       -3.704904   -0.275652    1.061083
     26          6           0       -3.032953   -0.845193    2.146741
     27          1           0       -1.139386   -1.511517    2.938406
     28          1           0        0.135365   -0.893400    0.894299
     29          1           0       -1.056585    0.128280   -1.059034
     30          1           0       -4.772286   -0.091720    1.077886
     31          1           0       -3.592456   -1.114118    3.038190
     32          7           0       -3.663070    0.663477   -1.225883
     33          8           0       -4.875421    0.838390   -1.124655
     34          8           0       -2.986405    0.950236   -2.211038
 ---------------------------------------------------------------------

 SCF Done:  E(RHF) =  -669.535508711     A.U. after   15 cycles
 E2 =    -0.2091358301D+01 EUMP2 =    -0.67162686701259D+03

 The electronic state is 1-A.
 Alpha  occ. eigenvalues --  -20.60771 -20.60766 -15.85825 -11.31192 -11.27765
 Alpha  occ. eigenvalues --  -11.27761 -11.27503 -11.26775 -11.26758 -11.22317
 Alpha  occ. eigenvalues --  -11.22257 -11.22185 -11.22017 -11.21739 -11.21471
 Alpha  occ. eigenvalues --   -1.59847  -1.39400  -1.19365  -1.09139  -1.08759
 Alpha  occ. eigenvalues --   -1.04771  -1.04145  -0.96599  -0.95593  -0.87608
 Alpha  occ. eigenvalues --   -0.86170  -0.82429  -0.80213  -0.78967  -0.77474
 Alpha  occ. eigenvalues --   -0.72043  -0.71170  -0.70473  -0.65833  -0.65017
 Alpha  occ. eigenvalues --   -0.64750  -0.62130  -0.61531  -0.59962  -0.58207
 Alpha  occ. eigenvalues --   -0.55902  -0.55266  -0.53253  -0.53098  -0.53051
 Alpha  occ. eigenvalues --   -0.52844  -0.50537  -0.48807  -0.48798  -0.48520
 Alpha  occ. eigenvalues --   -0.47256  -0.46481  -0.46415  -0.44805  -0.44429
 Alpha  occ. eigenvalues --   -0.37345  -0.36374
 Alpha virt. eigenvalues --    0.05061   0.11263   0.16537   0.18693   0.22902
 Alpha virt. eigenvalues --    0.23674   0.24737   0.26395   0.27313   0.28416
 Alpha virt. eigenvalues --    0.29352   0.30491   0.31234   0.31485   0.32064

 Mulliken charges:
               1
     1  C   -0.304249
     2  C   -0.300429
     3  C   -0.475718
     4  H    0.152702
     5  H    0.141115
     6  H    0.156128
     7  H    0.153389
     8  H    0.150352
     9  H    0.156284
    10  H    0.164643
    11  C   -0.298772
    12  C   -0.299902
    13  C   -0.476276
    14  H    0.153349
    15  H    0.151152
    16  H    0.152449
    17  H    0.148360
    18  H    0.157864
    19  H    0.156674
    20  H    0.161716
    21  C   -0.173093
    22  C   -0.227906
    23  C   -0.174157
    24  C    0.158801
    25  C   -0.171034
    26  C   -0.218485
    27  H    0.226666
    28  H    0.236813
    29  H    0.275290
    30  H    0.275645
    31  H    0.223474
    32  N    0.488161
    33  O   -0.460457
    34  O   -0.460550
 Sum of Mulliken charges =  -0.00000

 Dipole moment (field-independent basis, Debye):
    X=              2.6472    Y=             -2.0936    Z=              4.0200  Tot=              5.2490
 Quadrupole moment (field-independent basis, Debye-Ang):
   XX=           -103.9387   YY=            -96.7220   ZZ=            -94.4486
   XY=              6.4529   XZ=            -14.8932   YZ=              0.3086

 Normal termination of Gaussian 16 at Wed May  5 21:45:44 2021.
