 Gaussian 16, Revision A.03,
 Gaussian 16:  EM64L-G16RevA.03 25-Dec-2016

 -------------
 #p 6-31g* mp2
 -------------

 ------------------------------------------------------
 Input file generated by CHIRIPA (05-May-2021 14:55:20)
 ------------------------------------------------------
 Symbolic Z-matrix:
 Charge =  0 Multiplicity = 1

                         Standard orientation:
 ---------------------------------------------------------------------
 Center     Atomic      Atomic             Coordinates (Angstroms)
 Number     Number       Type             X           Y           Z
 ---------------------------------------------------------------------
      1          6           0       -2.975021    0.978261    0.571463
      2          6           0       -2.795225    0.573766   -0.755405
      3          6           0       -1.983072   -0.522798   -1.059546
      4          6           0       -1.363091   -1.194971   -0.007359
      5          6           0       -1.522568   -0.816264    1.324721
      6          6           0       -2.339240    0.283180    1.605468
      7          1           0       -3.607676    1.831217    0.798641
      8          1           0       -3.287736    1.111692   -1.560460
      9          1           0       -1.826534   -0.857387   -2.077861
     10          1           0       -1.018488   -1.372331    2.105817
     11          1           0       -2.477053    0.595068    2.636865
     12          7           0       -0.500909   -2.357378   -0.316957
     13          8           0        0.034218   -2.932816    0.628107
     14          8           0       -0.376583   -2.671025   -1.498823
     15          6           0        1.581987    1.914374    0.204308
     16          6           0        0.573277    2.504839   -0.781511
     17          6           0       -0.107949    3.764865   -0.246666
     18          1           0        1.070176    1.683500    1.148603
     19          1           0        2.342424    2.672303    0.438128
     20          1           0       -0.184252    1.745566   -1.014470
     21          1           0        1.087507    2.734157   -1.723635
     22          1           0        0.632997    4.541596   -0.031518
     23          1           0       -0.645988    3.547389    0.681677
     24          1           0       -0.824966    4.170283   -0.967348
     25          6           0        2.271296    0.654310   -0.316094
     26          6           0        3.280006    0.063844    0.669726
     27          6           0        3.961231   -1.196182    0.134881
     28          1           0        1.510859   -0.103621   -0.549913
     29          1           0        2.783106    0.885183   -1.260388
     30          1           0        2.765775   -0.165474    1.611850
     31          1           0        4.037536    0.823117    0.902685
     32          1           0        4.499272   -0.978706   -0.793462
     33          1           0        3.220285   -1.972913   -0.080267
     34          1           0        4.678249   -1.601600    0.855562
 ---------------------------------------------------------------------

 SCF Done:  E(RHF) =  -669.534838465     A.U. after   15 cycles
 E2 =    -0.2096648291D+01 EUMP2 =    -0.67163148675595D+03

 The electronic state is 1-A.
 Alpha  occ. eigenvalues --  -20.60995 -20.60990 -15.86031 -11.31390 -11.27972
 Alpha  occ. eigenvalues --  -11.27932 -11.27688 -11.26984 -11.26939 -11.21479
 Alpha  occ. eigenvalues --  -11.21314 -11.21248 -11.21140 -11.21066 -11.20253
 Alpha  occ. eigenvalues --   -1.60066  -1.39615  -1.19584  -1.08968  -1.08202
 Alpha  occ. eigenvalues --   -1.04980  -1.03260  -0.95802  -0.95720  -0.86738
 Alpha  occ. eigenvalues --   -0.86362  -0.82626  -0.79358  -0.78010  -0.77676
 Alpha  occ. eigenvalues --   -0.72245  -0.71415  -0.70657  -0.65221  -0.64960
 Alpha  occ. eigenvalues --   -0.64864  -0.62310  -0.60706  -0.59158  -0.57326
 Alpha  occ. eigenvalues --   -0.55457  -0.55016  -0.53305  -0.53049  -0.52408
 Alpha  occ. eigenvalues --   -0.52146  -0.49657  -0.49014  -0.49005  -0.47638
 Alpha  occ. eigenvalues --   -0.46398  -0.45513  -0.45464  -0.44997  -0.43531
 Alpha  occ. eigenvalues --   -0.37510  -0.36464
 Alpha virt. eigenvalues --    0.04807   0.11008   0.16261   0.21039   0.22897
 Alpha virt. eigenvalues --    0.24353   0.26559   0.26837   0.27649   0.28016
 Alpha virt. eigenvalues --    0.28608   0.30786   0.31266   0.31816   0.32534

 Mulliken charges:
               1
     1  C   -0.167440
     2  C   -0.218061
     3  C   -0.175123
     4  C    0.158709
     5  C   -0.171359
     6  C   -0.218999
     7  H    0.227488
     8  H    0.225276
     9  H    0.277088
    10  H    0.276514
    11  H    0.224781
    12  N    0.491129
    13  O   -0.459890
    14  O   -0.458758
    15  C   -0.296936
    16  C   -0.306382
    17  C   -0.474453
    18  H    0.146055
    19  H    0.148230
    20  H    0.159586
    21  H    0.150800
    22  H    0.156164
    23  H    0.149679
    24  H    0.154064
    25  C   -0.298920
    26  C   -0.298245
    27  C   -0.480117
    28  H    0.147299
    29  H    0.150571
    30  H    0.150181
    31  H    0.148738
    32  H    0.152278
    33  H    0.171921
    34  H    0.158135
 Sum of Mulliken charges =  -0.00000

 Dipole moment (field-independent basis, Debye):
    X=             -3.1769    Y=              3.8545    Z=              1.0722  Tot=              5.1088
 Quadrupole moment (field-independent basis, Debye-Ang):
   XX=            -86.6225   YY=           -106.1892   ZZ=            -89.9280
   XY=             -1.5028   XZ=             -0.6866   YZ=             -2.4114

 Normal termination of Gaussian 16 at Wed May  5 22:12:06 2021.
