 Gaussian 16, Revision A.03,
 Gaussian 16:  EM64L-G16RevA.03 25-Dec-2016

 -------------
 #p 6-31g* mp2
 -------------

 ------------------------------------------------------
 Input file generated by CHIRIPA (05-May-2021 14:51:09)
 ------------------------------------------------------
 Symbolic Z-matrix:
 Charge =  0 Multiplicity = 1

                         Standard orientation:
 ---------------------------------------------------------------------
 Center     Atomic      Atomic             Coordinates (Angstroms)
 Number     Number       Type             X           Y           Z
 ---------------------------------------------------------------------
      1          6           0        3.365525   -0.206775    0.358599
      2          6           0        4.356456   -1.176096   -0.286736
      3          6           0        4.286573   -2.580230    0.314363
      4          1           0        3.562905   -0.155288    1.438106
      5          1           0        2.347568   -0.604758    0.245607
      6          1           0        5.372112   -0.775724   -0.173775
      7          1           0        4.156817   -1.225135   -1.364862
      8          1           0        3.284878   -3.003747    0.188502
      9          1           0        4.507078   -2.551782    1.386356
     10          1           0        5.003225   -3.256804   -0.161575
     11          6           0        3.423437    1.201043   -0.231677
     12          6           0        2.432506    2.170364    0.413658
     13          6           0        2.502388    3.574498   -0.187441
     14          1           0        4.441394    1.599026   -0.118685
     15          1           0        3.226057    1.149556   -1.311184
     16          1           0        2.632145    2.219403    1.491784
     17          1           0        1.416850    1.769992    0.300697
     18          1           0        2.281883    3.546050   -1.259434
     19          1           0        3.504083    3.998015   -0.061580
     20          1           0        1.785736    4.251072    0.288497
     21          6           0       -2.932021   -1.100732    0.008867
     22          6           0       -1.486568   -0.809058   -0.395582
     23          6           0       -0.573575   -2.026300   -0.245377
     24          1           0       -2.951408   -1.449085    1.050605
     25          1           0       -3.317352   -1.927145   -0.604287
     26          1           0       -1.104529    0.017477    0.217201
     27          1           0       -1.470639   -0.461176   -1.436419
     28          1           0       -0.927921   -2.852998   -0.869565
     29          1           0       -0.559732   -2.371625    0.793449
     30          1           0        0.454939   -1.795488   -0.539900
     31          6           0       -3.856942    0.106464   -0.135789
     32          6           0       -5.302394   -0.185210    0.268660
     33          6           0       -6.215386    1.032032    0.118455
     34          1           0       -3.471610    0.932877    0.477364
     35          1           0       -3.837554    0.454817   -1.177528
     36          1           0       -5.318323   -0.533092    1.309496
     37          1           0       -5.684432   -1.011745   -0.344123
     38          1           0       -6.229230    1.377358   -0.920371
     39          1           0       -5.861040    1.858730    0.742644
     40          1           0       -7.243901    0.801221    0.412978
 ---------------------------------------------------------------------

 SCF Done:  E(RHF) =  -470.733318146     A.U. after   11 cycles
 E2 =    -0.1583036633D+01 EUMP2 =    -0.47231635477877D+03

 The electronic state is 1-A.
 Alpha  occ. eigenvalues --  -11.21680 -11.21626 -11.21592 -11.21580 -11.21448
 Alpha  occ. eigenvalues --  -11.21386 -11.21377 -11.21311 -11.21143 -11.21089
 Alpha  occ. eigenvalues --  -11.21061 -11.21037  -1.08478  -1.08410  -1.03581
 Alpha  occ. eigenvalues --   -1.03510  -0.96034  -0.95954  -0.87055  -0.86968
 Alpha  occ. eigenvalues --   -0.79661  -0.79554  -0.78288  -0.78226  -0.65131
 Alpha  occ. eigenvalues --   -0.65041  -0.60973  -0.60919  -0.59429  -0.59305
 Alpha  occ. eigenvalues --   -0.57674  -0.57544  -0.55319  -0.55238  -0.52767
 Alpha  occ. eigenvalues --   -0.52649  -0.52488  -0.52341  -0.49978  -0.49888
 Alpha  occ. eigenvalues --   -0.48023  -0.47840  -0.46720  -0.46553  -0.45835
 Alpha  occ. eigenvalues --   -0.45784  -0.45741  -0.45640  -0.43794  -0.43759
 Alpha virt. eigenvalues --    0.20286   0.23011   0.23644   0.24228   0.25924
 Alpha virt. eigenvalues --    0.26683   0.27076   0.27445   0.27945   0.29322
 Alpha virt. eigenvalues --    0.29761   0.31382   0.31723   0.31953   0.32325

 Mulliken charges:
               1
     1  C   -0.307012
     2  C   -0.299230
     3  C   -0.476966
     4  H    0.149609
     5  H    0.157808
     6  H    0.151948
     7  H    0.151459
     8  H    0.156603
     9  H    0.155120
    10  H    0.160143
    11  C   -0.297556
    12  C   -0.302048
    13  C   -0.475573
    14  H    0.149540
    15  H    0.149384
    16  H    0.151783
    17  H    0.153928
    18  H    0.155295
    19  H    0.155172
    20  H    0.160106
    21  C   -0.298331
    22  C   -0.302265
    23  C   -0.481569
    24  H    0.150004
    25  H    0.149833
    26  H    0.153897
    27  H    0.151963
    28  H    0.155719
    29  H    0.156037
    30  H    0.164788
    31  C   -0.298378
    32  C   -0.299711
    33  C   -0.475745
    34  H    0.149696
    35  H    0.149685
    36  H    0.152056
    37  H    0.151977
    38  H    0.155210
    39  H    0.155271
    40  H    0.160351
 Sum of Mulliken charges =  -0.00000

 Dipole moment (field-independent basis, Debye):
    X=             -0.0336    Y=             -0.0111    Z=              0.0052  Tot=              0.0358
 Quadrupole moment (field-independent basis, Debye-Ang):
   XX=            -84.8932   YY=            -86.4031   ZZ=            -83.4672
   XY=              0.9416   XZ=              0.6425   YZ=              0.8414

 Normal termination of Gaussian 16 at Wed May  5 22:58:32 2021.
