 Gaussian 16, Revision A.03,
 Gaussian 16:  EM64L-G16RevA.03 25-Dec-2016

 -------------
 #p 6-31g* mp2
 -------------

 ------------------------------------------------------
 Input file generated by CHIRIPA (05-May-2021 14:51:14)
 ------------------------------------------------------
 Symbolic Z-matrix:
 Charge =  0 Multiplicity = 1

                         Standard orientation:
 ---------------------------------------------------------------------
 Center     Atomic      Atomic             Coordinates (Angstroms)
 Number     Number       Type             X           Y           Z
 ---------------------------------------------------------------------
      1          6           0        4.436962    0.339317   -0.367208
      2          6           0        5.774830    0.776899    0.229965
      3          6           0        6.655103    1.521598   -0.774195
      4          1           0        4.624184   -0.302114   -1.239251
      5          1           0        3.902400    1.224346   -0.739181
      6          1           0        6.306100   -0.108537    0.601949
      7          1           0        5.584401    1.417208    1.100802
      8          1           0        6.148493    2.421604   -1.137426
      9          1           0        6.874293    0.887191   -1.639113
     10          1           0        7.606481    1.825185   -0.326339
     11          6           0        3.545840   -0.406441    0.624495
     12          6           0        2.207972   -0.844022    0.027322
     13          6           0        1.327699   -1.588722    1.031481
     14          1           0        4.080402   -1.291469    0.996467
     15          1           0        3.358618    0.234991    1.496537
     16          1           0        2.398401   -1.484331   -0.843516
     17          1           0        1.676702    0.041413   -0.344662
     18          1           0        1.108509   -0.954314    1.896400
     19          1           0        1.834309   -2.488727    1.394712
     20          1           0        0.376321   -1.892308    0.583625
     21          6           0       -3.463845   -0.491986    0.041407
     22          6           0       -3.653792   -1.808151   -0.713321
     23          6           0       -2.590665   -2.849528   -0.362482
     24          1           0       -2.466363   -0.089319   -0.181831
     25          1           0       -3.486165   -0.690456    1.121919
     26          1           0       -3.632505   -1.607060   -1.792082
     27          1           0       -4.651011   -2.207633   -0.488411
     28          1           0       -2.614737   -3.079178    0.707697
     29          1           0       -1.590444   -2.475192   -0.603381
     30          1           0       -2.745466   -3.782560   -0.913251
     31          6           0       -4.518957    0.559109   -0.298693
     32          6           0       -4.329010    1.875274    0.456034
     33          6           0       -5.392137    2.916652    0.105196
     34          1           0       -4.496637    0.757580   -1.379206
     35          1           0       -5.516438    0.156443   -0.075456
     36          1           0       -3.331791    2.274757    0.231125
     37          1           0       -4.350297    1.674183    1.534796
     38          1           0       -6.392358    2.542315    0.346094
     39          1           0       -5.368064    3.146301   -0.964984
     40          1           0       -5.237335    3.849684    0.655964
 ---------------------------------------------------------------------

 SCF Done:  E(RHF) =  -470.733272807     A.U. after   11 cycles
 E2 =    -0.1582373979D+01 EUMP2 =    -0.47231564678594D+03

 The electronic state is 1-A.
 Alpha  occ. eigenvalues --  -11.21616 -11.21608 -11.21595 -11.21586 -11.21411
 Alpha  occ. eigenvalues --  -11.21393 -11.21352 -11.21333 -11.21091 -11.21077
 Alpha  occ. eigenvalues --  -11.21067 -11.20987  -1.08441  -1.08415  -1.03551
 Alpha  occ. eigenvalues --   -1.03504  -0.96013  -0.95939  -0.87045  -0.86941
 Alpha  occ. eigenvalues --   -0.79636  -0.79546  -0.78251  -0.78230  -0.65072
 Alpha  occ. eigenvalues --   -0.65045  -0.60958  -0.60906  -0.59449  -0.59269
 Alpha  occ. eigenvalues --   -0.57720  -0.57463  -0.55287  -0.55238  -0.52800
 Alpha  occ. eigenvalues --   -0.52686  -0.52445  -0.52219  -0.49928  -0.49894
 Alpha  occ. eigenvalues --   -0.48021  -0.47783  -0.46630  -0.46609  -0.45793
 Alpha  occ. eigenvalues --   -0.45767  -0.45715  -0.45697  -0.43798  -0.43728
 Alpha virt. eigenvalues --    0.21686   0.23072   0.23432   0.24900   0.26365
 Alpha virt. eigenvalues --    0.26646   0.26942   0.27535   0.27726   0.28850
 Alpha virt. eigenvalues --    0.30596   0.31428   0.31712   0.31862   0.32031

 Mulliken charges:
               1
     1  C   -0.298231
     2  C   -0.299645
     3  C   -0.475694
     4  H    0.149588
     5  H    0.149340
     6  H    0.151956
     7  H    0.151941
     8  H    0.155122
     9  H    0.155159
    10  H    0.160244
    11  C   -0.298223
    12  C   -0.299267
    13  C   -0.483444
    14  H    0.149619
    15  H    0.149687
    16  H    0.151631
    17  H    0.151009
    18  H    0.155091
    19  H    0.155082
    20  H    0.167924
    21  C   -0.298618
    22  C   -0.299573
    23  C   -0.480961
    24  H    0.149882
    25  H    0.149826
    26  H    0.151901
    27  H    0.152084
    28  H    0.156043
    29  H    0.159823
    30  H    0.160655
    31  C   -0.298323
    32  C   -0.299620
    33  C   -0.475716
    34  H    0.149514
    35  H    0.149725
    36  H    0.151834
    37  H    0.152000
    38  H    0.155218
    39  H    0.155183
    40  H    0.160231
 Sum of Mulliken charges =  -0.00000

 Dipole moment (field-independent basis, Debye):
    X=             -0.0292    Y=             -0.0151    Z=              0.0022  Tot=              0.0329
 Quadrupole moment (field-independent basis, Debye-Ang):
   XX=            -85.3129   YY=            -84.8782   ZZ=            -84.5254
   XY=              0.0440   XZ=             -0.2405   YZ=              0.4623

 Normal termination of Gaussian 16 at Wed May  5 18:25:43 2021.
