 Gaussian 16, Revision A.03,
 Gaussian 16:  EM64L-G16RevA.03 25-Dec-2016

 -------------
 #p 6-31g* mp2
 -------------

 ------------------------------------------------------
 Input file generated by CHIRIPA (05-May-2021 14:51:10)
 ------------------------------------------------------
 Symbolic Z-matrix:
 Charge =  0 Multiplicity = 1

                         Standard orientation:
 ---------------------------------------------------------------------
 Center     Atomic      Atomic             Coordinates (Angstroms)
 Number     Number       Type             X           Y           Z
 ---------------------------------------------------------------------
      1          6           0       -3.436120   -0.409468    0.359628
      2          6           0       -4.089362   -1.570781   -0.390447
      3          6           0       -3.809617   -2.926219    0.259418
      4          1           0       -2.351504   -0.577106    0.409121
      5          1           0       -3.798851   -0.401706    1.396817
      6          1           0       -3.726561   -1.575513   -1.426289
      7          1           0       -5.172527   -1.400263   -0.438327
      8          1           0       -4.187238   -2.946115    1.286846
      9          1           0       -2.733056   -3.122361    0.293270
     10          1           0       -4.285928   -3.742227   -0.292957
     11          6           0       -3.706701    0.952165   -0.277923
     12          6           0       -3.053459    2.113478    0.472152
     13          6           0       -3.333204    3.468916   -0.177713
     14          1           0       -3.343971    0.944403   -1.315112
     15          1           0       -4.791317    1.119803   -0.327416
     16          1           0       -1.970294    1.942960    0.520032
     17          1           0       -3.416260    2.118209    1.507994
     18          1           0       -4.409765    3.665057   -0.211565
     19          1           0       -2.955584    3.488812   -1.205140
     20          1           0       -2.856893    4.284924    0.374662
     21          6           0        2.825418   -0.113046   -0.084065
     22          6           0        1.940769   -1.360110   -0.098638
     23          6           0        0.451011   -1.027105   -0.185366
     24          1           0        2.539939    0.521338    0.766231
     25          1           0        2.632536    0.475451   -0.991734
     26          1           0        2.136268   -1.946783    0.808120
     27          1           0        2.228515   -1.991691   -0.948886
     28          1           0        0.235132   -0.461669   -1.097659
     29          1           0        0.142361   -0.416507    0.669331
     30          1           0       -0.163005   -1.933065   -0.194448
     31          6           0        4.317404   -0.429651    0.002360
     32          6           0        5.202052    0.817413    0.016932
     33          6           0        6.691811    0.484409    0.103661
     34          1           0        4.510285   -1.018147    0.910029
     35          1           0        4.602882   -1.064035   -0.847936
     36          1           0        4.914305    1.448995    0.867182
     37          1           0        5.006553    1.404087   -0.889825
     38          1           0        7.000461   -0.126190   -0.751036
     39          1           0        6.907688   -0.081028    1.015954
     40          1           0        7.305826    1.390368    0.112743
 ---------------------------------------------------------------------

 SCF Done:  E(RHF) =  -470.733006274     A.U. after   11 cycles
 E2 =    -0.1583292423D+01 EUMP2 =    -0.47231629869698D+03

 The electronic state is 1-A.
 Alpha  occ. eigenvalues --  -11.21687 -11.21638 -11.21530 -11.21505 -11.21466
 Alpha  occ. eigenvalues --  -11.21403 -11.21281 -11.21219 -11.21162 -11.21099
 Alpha  occ. eigenvalues --  -11.21024 -11.21020  -1.08496  -1.08322  -1.03607
 Alpha  occ. eigenvalues --   -1.03450  -0.96071  -0.95893  -0.87100  -0.86909
 Alpha  occ. eigenvalues --   -0.79702  -0.79502  -0.78321  -0.78107  -0.65127
 Alpha  occ. eigenvalues --   -0.64959  -0.61001  -0.60872  -0.59445  -0.59239
 Alpha  occ. eigenvalues --   -0.57687  -0.57495  -0.55366  -0.55183  -0.52800
 Alpha  occ. eigenvalues --   -0.52605  -0.52508  -0.52293  -0.50025  -0.49829
 Alpha  occ. eigenvalues --   -0.48001  -0.47829  -0.46726  -0.46543  -0.45948
 Alpha  occ. eigenvalues --   -0.45773  -0.45651  -0.45447  -0.43793  -0.43686
 Alpha virt. eigenvalues --    0.21053   0.22948   0.23566   0.24421   0.25566
 Alpha virt. eigenvalues --    0.26562   0.26844   0.27286   0.27829   0.29559
 Alpha virt. eigenvalues --    0.29763   0.31342   0.31801   0.31949   0.32243

 Mulliken charges:
               1
     1  C   -0.310269
     2  C   -0.298725
     3  C   -0.477714
     4  H    0.165974
     5  H    0.148015
     6  H    0.151479
     7  H    0.151403
     8  H    0.155143
     9  H    0.155953
    10  H    0.159946
    11  C   -0.297183
    12  C   -0.300999
    13  C   -0.475533
    14  H    0.148907
    15  H    0.148982
    16  H    0.152866
    17  H    0.151498
    18  H    0.155078
    19  H    0.154978
    20  H    0.159878
    21  C   -0.298727
    22  C   -0.300216
    23  C   -0.481175
    24  H    0.149898
    25  H    0.149540
    26  H    0.152579
    27  H    0.152297
    28  H    0.155797
    29  H    0.157033
    30  H    0.162642
    31  C   -0.298359
    32  C   -0.299686
    33  C   -0.475751
    34  H    0.149723
    35  H    0.149784
    36  H    0.152062
    37  H    0.151982
    38  H    0.155231
    39  H    0.155269
    40  H    0.160402
 Sum of Mulliken charges =  -0.00000

 Dipole moment (field-independent basis, Debye):
    X=              0.0796    Y=             -0.0114    Z=              0.0031  Tot=              0.0805
 Quadrupole moment (field-independent basis, Debye-Ang):
   XX=            -85.5536   YY=            -85.9981   ZZ=            -83.5343
   XY=              0.1072   XZ=             -0.6417   YZ=              0.4566

 Normal termination of Gaussian 16 at Thu May  6 02:11:37 2021.
