 Gaussian 16, Revision A.03,
 Gaussian 16:  EM64L-G16RevA.03 25-Dec-2016

 -------------
 #p 6-31g* mp2
 -------------

 ------------------------------------------------------
 Input file generated by CHIRIPA (05-May-2021 14:55:24)
 ------------------------------------------------------
 Symbolic Z-matrix:
 Charge =  0 Multiplicity = 1

                         Standard orientation:
 ---------------------------------------------------------------------
 Center     Atomic      Atomic             Coordinates (Angstroms)
 Number     Number       Type             X           Y           Z
 ---------------------------------------------------------------------
      1          6           0        0.729143   -2.034345   -0.138515
      2          6           0        1.936175   -2.323872   -0.783316
      3          6           0        3.024966   -1.453464   -0.676202
      4          6           0        2.871094   -0.297288    0.087257
      5          6           0        1.681468    0.018923    0.741543
      6          6           0        0.605859   -0.865931    0.620519
      7          1           0       -0.111535   -2.716110   -0.227127
      8          1           0        2.034790   -3.230542   -1.373459
      9          1           0        3.970854   -1.653122   -1.164926
     10          1           0        1.613415    0.930479    1.322795
     11          1           0       -0.330338   -0.638514    1.122376
     12          7           0        4.016770    0.631820    0.208017
     13          8           0        3.855667    1.643877    0.886563
     14          8           0        5.054160    0.330406   -0.378164
     15          6           0       -4.073036    0.166595   -0.007909
     16          6           0       -3.814858   -1.325169    0.206500
     17          6           0       -5.104359   -2.131998    0.361447
     18          1           0       -4.652229    0.557532    0.839823
     19          1           0       -4.698839    0.298579   -0.901410
     20          1           0       -3.188578   -1.454214    1.098542
     21          1           0       -3.236048   -1.712558   -0.641747
     22          1           0       -5.730409   -2.032895   -0.531212
     23          1           0       -5.682671   -1.773082    1.218965
     24          1           0       -4.896534   -3.195714    0.513686
     25          6           0       -2.793581    0.986472   -0.164518
     26          6           0       -3.051759    2.478236   -0.378928
     27          6           0       -1.762258    3.285065   -0.533874
     28          1           0       -2.167779    0.854487    0.728984
     29          1           0       -2.214389    0.595534   -1.012249
     30          1           0       -3.630569    2.865625    0.469320
     31          1           0       -3.678039    2.607281   -1.270968
     32          1           0       -1.183946    2.926149   -1.391392
     33          1           0       -1.136208    3.185962    0.358785
     34          1           0       -1.970084    4.348780   -0.686112
 ---------------------------------------------------------------------

 SCF Done:  E(RHF) =  -669.535373593     A.U. after   15 cycles
 E2 =    -0.2092150576D+01 EUMP2 =    -0.67162752416896D+03

 The electronic state is 1-A.
 Alpha  occ. eigenvalues --  -20.60700 -20.60695 -15.85752 -11.31104 -11.27668
 Alpha  occ. eigenvalues --  -11.27652 -11.27385 -11.26688 -11.26618 -11.22690
 Alpha  occ. eigenvalues --  -11.22283 -11.22218 -11.22175 -11.21923 -11.21498
 Alpha  occ. eigenvalues --   -1.59776  -1.39330  -1.19268  -1.09277  -1.08662
 Alpha  occ. eigenvalues --   -1.04667  -1.04293  -0.96713  -0.95503  -0.87728
 Alpha  occ. eigenvalues --   -0.86067  -0.82340  -0.80384  -0.79128  -0.77376
 Alpha  occ. eigenvalues --   -0.71971  -0.71098  -0.70370  -0.65925  -0.64916
 Alpha  occ. eigenvalues --   -0.64662  -0.62028  -0.61681  -0.60103  -0.58337
 Alpha  occ. eigenvalues --   -0.55988  -0.55162  -0.53398  -0.53202  -0.52985
 Alpha  occ. eigenvalues --   -0.52715  -0.50652  -0.48735  -0.48727  -0.48686
 Alpha  occ. eigenvalues --   -0.47428  -0.46587  -0.46538  -0.44738  -0.44561
 Alpha  occ. eigenvalues --   -0.37242  -0.36255
 Alpha virt. eigenvalues --    0.05134   0.11340   0.16600   0.19384   0.22750
 Alpha virt. eigenvalues --    0.23106   0.24371   0.25711   0.26893   0.28310
 Alpha virt. eigenvalues --    0.29320   0.30716   0.30992   0.31387   0.31600

 Mulliken charges:
               1
     1  C   -0.174311
     2  C   -0.218540
     3  C   -0.171439
     4  C    0.158644
     5  C   -0.173017
     6  C   -0.219270
     7  H    0.226828
     8  H    0.222889
     9  H    0.275166
    10  H    0.274955
    11  H    0.230011
    12  N    0.488094
    13  O   -0.460549
    14  O   -0.460800
    15  C   -0.298185
    16  C   -0.302533
    17  C   -0.475628
    18  H    0.152586
    19  H    0.153456
    20  H    0.145475
    21  H    0.149079
    22  H    0.158526
    23  H    0.158393
    24  H    0.160208
    25  C   -0.301231
    26  C   -0.300331
    27  C   -0.475750
    28  H    0.141055
    29  H    0.153008
    30  H    0.153442
    31  H    0.154422
    32  H    0.158144
    33  H    0.153033
    34  H    0.164169
 Sum of Mulliken charges =  -0.00000

 Dipole moment (field-independent basis, Debye):
    X=             -4.2550    Y=             -3.1678    Z=             -0.5075  Tot=              5.3290
 Quadrupole moment (field-independent basis, Debye-Ang):
   XX=           -116.8905   YY=            -91.6101   ZZ=            -92.7219
   XY=            -10.8656   XZ=             -3.1332   YZ=              2.0331

 Normal termination of Gaussian 16 at Thu May  6 19:19:50 2021.
