 Gaussian 16, Revision A.03,
 Gaussian 16:  EM64L-G16RevA.03 25-Dec-2016

 -------------
 #p 6-31g* mp2
 -------------

 ------------------------------------------------------
 Input file generated by CHIRIPA (05-May-2021 14:55:23)
 ------------------------------------------------------
 Symbolic Z-matrix:
 Charge =  0 Multiplicity = 1

                         Standard orientation:
 ---------------------------------------------------------------------
 Center     Atomic      Atomic             Coordinates (Angstroms)
 Number     Number       Type             X           Y           Z
 ---------------------------------------------------------------------
      1          6           0       -4.948157   -1.702058   -0.872788
      2          6           0       -4.992466   -1.438754    0.500248
      3          6           0       -4.108573   -0.521362    1.076157
      4          6           0       -3.189109    0.117562    0.245703
      5          6           0       -3.120244   -0.123403   -1.125604
      6          6           0       -4.013835   -1.044701   -1.679909
      7          1           0       -5.638554   -2.416227   -1.311777
      8          1           0       -5.717017   -1.947785    1.129501
      9          1           0       -4.121064   -0.298664    2.136189
     10          1           0       -2.386842    0.399634   -1.727245
     11          1           0       -3.977138   -1.247209   -2.746534
     12          7           0       -2.248238    1.090832    0.843956
     13          8           0       -1.447590    1.640545    0.090687
     14          8           0       -2.329247    1.285538    2.054809
     15          6           0        4.065588    0.733994   -0.463931
     16          6           0        2.548138    0.914778   -0.515411
     17          6           0        2.133710    2.278401   -1.069105
     18          1           0        4.502592    1.530399    0.153896
     19          1           0        4.477472    0.860925   -1.474691
     20          1           0        2.139085    0.786174    0.494912
     21          1           0        2.114677    0.117738   -1.133031
     22          1           0        2.514317    2.412800   -2.086786
     23          1           0        2.538863    3.085035   -0.449594
     24          1           0        1.044932    2.386293   -1.097081
     25          6           0        4.495504   -0.624312    0.087346
     26          6           0        6.012953   -0.805095    0.138826
     27          6           0        6.427381   -2.168718    0.692519
     28          1           0        4.083620   -0.751242    1.098105
     29          1           0        4.058499   -1.420717   -0.530481
     30          1           0        6.446414   -0.008055    0.756446
     31          1           0        6.422007   -0.676492   -0.871497
     32          1           0        6.022229   -2.975353    0.073009
     33          1           0        6.046774   -2.303119    1.710201
     34          1           0        7.516159   -2.276610    0.720496
 ---------------------------------------------------------------------

 SCF Done:  E(RHF) =  -669.536110712     A.U. after   15 cycles
 E2 =    -0.2090782864D+01 EUMP2 =    -0.67162689357603D+03

 The electronic state is 1-A.
 Alpha  occ. eigenvalues --  -20.60923 -20.60917 -15.85967 -11.31282 -11.27846
 Alpha  occ. eigenvalues --  -11.27843 -11.27584 -11.26854 -11.26845 -11.21136
 Alpha  occ. eigenvalues --  -11.20795 -11.20704 -11.20617 -11.20545 -11.19743
 Alpha  occ. eigenvalues --   -1.59986  -1.39543  -1.19451  -1.08855  -1.07722
 Alpha  occ. eigenvalues --   -1.04848  -1.02747  -0.95701  -0.95191  -0.86251
 Alpha  occ. eigenvalues --   -0.86215  -0.82534  -0.78848  -0.77587  -0.77508
 Alpha  occ. eigenvalues --   -0.72198  -0.71300  -0.70561  -0.65109  -0.64851
 Alpha  occ. eigenvalues --   -0.64363  -0.62196  -0.60158  -0.58584  -0.56761
 Alpha  occ. eigenvalues --   -0.55352  -0.54508  -0.53179  -0.52941  -0.51844
 Alpha  occ. eigenvalues --   -0.51620  -0.49176  -0.48945  -0.48926  -0.47140
 Alpha  occ. eigenvalues --   -0.45908  -0.45061  -0.44989  -0.44921  -0.42989
 Alpha  occ. eigenvalues --   -0.37430  -0.36449
 Alpha virt. eigenvalues --    0.04941   0.11206   0.16431   0.21286   0.23513
 Alpha virt. eigenvalues --    0.25060   0.27207   0.27323   0.27880   0.28246
 Alpha virt. eigenvalues --    0.28959   0.30814   0.32055   0.32135   0.32447

 Mulliken charges:
               1
     1  C   -0.170616
     2  C   -0.218566
     3  C   -0.170656
     4  C    0.157656
     5  C   -0.170431
     6  C   -0.218535
     7  H    0.225955
     8  H    0.223773
     9  H    0.275820
    10  H    0.275535
    11  H    0.223808
    12  N    0.494884
    13  O   -0.466670
    14  O   -0.459156
    15  C   -0.297731
    16  C   -0.296937
    17  C   -0.483677
    18  H    0.149363
    19  H    0.146189
    20  H    0.158388
    21  H    0.144609
    22  H    0.145267
    23  H    0.153124
    24  H    0.183647
    25  C   -0.297549
    26  C   -0.299015
    27  C   -0.475263
    28  H    0.150044
    29  H    0.146766
    30  H    0.151972
    31  H    0.150563
    32  H    0.153613
    33  H    0.155053
    34  H    0.158773
 Sum of Mulliken charges =  -0.00000

 Dipole moment (field-independent basis, Debye):
    X=             -3.6099    Y=             -3.3736    Z=             -2.0272  Tot=              5.3406
 Quadrupole moment (field-independent basis, Debye-Ang):
   XX=            -74.5693   YY=            -96.9802   ZZ=            -91.2249
   XY=             11.7614   XZ=              4.0371   YZ=             -1.0224

 Normal termination of Gaussian 16 at Wed May  5 16:03:31 2021.
