 Gaussian 16, Revision A.03,
 Gaussian 16:  EM64L-G16RevA.03 25-Dec-2016

 -------------
 #p 6-31g* mp2
 -------------

 ------------------------------------------------------
 Input file generated by CHIRIPA (05-May-2021 14:51:08)
 ------------------------------------------------------
 Symbolic Z-matrix:
 Charge =  0 Multiplicity = 1

                         Standard orientation:
 ---------------------------------------------------------------------
 Center     Atomic      Atomic             Coordinates (Angstroms)
 Number     Number       Type             X           Y           Z
 ---------------------------------------------------------------------
      1          6           0       -2.780638   -1.064201   -0.228760
      2          6           0       -1.378547   -1.188244   -0.826036
      3          6           0       -0.912093   -2.639635   -0.942988
      4          1           0       -2.792659   -1.535780    0.763416
      5          1           0       -3.488244   -1.628658   -0.851718
      6          1           0       -0.674026   -0.622578   -0.202909
      7          1           0       -1.369814   -0.716145   -1.816825
      8          1           0       -1.592097   -3.212540   -1.581718
      9          1           0       -0.892355   -3.118441    0.041368
     10          1           0        0.092528   -2.705100   -1.372303
     11          6           0       -3.260948    0.380731   -0.105460
     12          6           0       -4.663039    0.504774    0.491816
     13          6           0       -5.129494    1.956166    0.608768
     14          1           0       -2.553342    0.945189    0.517498
     15          1           0       -3.248928    0.852311   -1.097636
     16          1           0       -4.671772    0.032675    1.482604
     17          1           0       -5.367561   -0.060892   -0.131311
     18          1           0       -5.149232    2.434972   -0.375588
     19          1           0       -4.449490    2.529071    1.247498
     20          1           0       -6.134114    2.021631    1.038083
     21          6           0        2.979613   -0.234577    0.666711
     22          6           0        2.961692   -1.612082    0.003279
     23          6           0        2.879092   -2.754822    1.015759
     24          1           0        3.832982   -0.177811    1.356265
     25          1           0        2.074677   -0.118435    1.279081
     26          1           0        3.865720   -1.725051   -0.608757
     27          1           0        2.108376   -1.665506   -0.684918
     28          1           0        1.969481   -2.669961    1.619090
     29          1           0        3.736809   -2.729844    1.695684
     30          1           0        2.867523   -3.730462    0.519923
     31          6           0        3.061973    0.918046   -0.332491
     32          6           0        3.079895    2.295551    0.330941
     33          6           0        3.162495    3.438291   -0.681539
     34          1           0        3.966909    0.801904   -0.944861
     35          1           0        2.208604    0.861281   -1.022044
     36          1           0        3.933209    2.348976    1.019138
     37          1           0        2.175867    2.408521    0.942977
     38          1           0        2.304778    3.413313   -1.361464
     39          1           0        4.072106    3.353430   -1.284869
     40          1           0        3.174064    4.413931   -0.185703
 ---------------------------------------------------------------------

 SCF Done:  E(RHF) =  -470.733178357     A.U. after   11 cycles
 E2 =    -0.1583367685D+01 EUMP2 =    -0.47231654604185D+03

 The electronic state is 1-A.
 Alpha  occ. eigenvalues --  -11.21684 -11.21640 -11.21595 -11.21550 -11.21463
 Alpha  occ. eigenvalues --  -11.21403 -11.21394 -11.21334 -11.21104 -11.21101
 Alpha  occ. eigenvalues --  -11.21061 -11.21043  -1.08493  -1.08410  -1.03603
 Alpha  occ. eigenvalues --   -1.03492  -0.96042  -0.95948  -0.87045  -0.86977
 Alpha  occ. eigenvalues --   -0.79650  -0.79573  -0.78302  -0.78231  -0.65208
 Alpha  occ. eigenvalues --   -0.64983  -0.61124  -0.60822  -0.59461  -0.59246
 Alpha  occ. eigenvalues --   -0.57690  -0.57514  -0.55370  -0.55189  -0.52738
 Alpha  occ. eigenvalues --   -0.52640  -0.52470  -0.52380  -0.49997  -0.49863
 Alpha  occ. eigenvalues --   -0.48014  -0.47853  -0.46681  -0.46579  -0.45869
 Alpha  occ. eigenvalues --   -0.45799  -0.45696  -0.45683  -0.43827  -0.43759
 Alpha virt. eigenvalues --    0.19792   0.23199   0.23467   0.25332   0.25866
 Alpha virt. eigenvalues --    0.26210   0.26812   0.27479   0.28528   0.29139
 Alpha virt. eigenvalues --    0.30008   0.31186   0.31856   0.31927   0.32535

 Mulliken charges:
               1
     1  C   -0.298200
     2  C   -0.302846
     3  C   -0.479478
     4  H    0.149789
     5  H    0.150015
     6  H    0.153259
     7  H    0.152018
     8  H    0.155520
     9  H    0.156038
    10  H    0.163993
    11  C   -0.298292
    12  C   -0.299716
    13  C   -0.475751
    14  H    0.149202
    15  H    0.149738
    16  H    0.152039
    17  H    0.152083
    18  H    0.155251
    19  H    0.155203
    20  H    0.160425
    21  C   -0.298141
    22  C   -0.306725
    23  C   -0.475206
    24  H    0.149623
    25  H    0.149104
    26  H    0.151641
    27  H    0.159159
    28  H    0.155173
    29  H    0.154863
    30  H    0.160366
    31  C   -0.299415
    32  C   -0.299445
    33  C   -0.475755
    34  H    0.149518
    35  H    0.150798
    36  H    0.151888
    37  H    0.151526
    38  H    0.155413
    39  H    0.155140
    40  H    0.160186
 Sum of Mulliken charges =  -0.00000

 Dipole moment (field-independent basis, Debye):
    X=             -0.0249    Y=             -0.0149    Z=             -0.0146  Tot=              0.0325
 Quadrupole moment (field-independent basis, Debye-Ang):
   XX=            -83.8030   YY=            -86.6212   ZZ=            -84.2820
   XY=              0.4115   XZ=              0.5159   YZ=              0.4823

 Normal termination of Gaussian 16 at Thu May  6 10:00:16 2021.
