 Gaussian 16, Revision A.03,
 Gaussian 16:  EM64L-G16RevA.03 25-Dec-2016

 -------------
 #p 6-31g* mp2
 -------------

 ------------------------------------------------------
 Input file generated by CHIRIPA (05-May-2021 14:55:25)
 ------------------------------------------------------
 Symbolic Z-matrix:
 Charge =  0 Multiplicity = 1

                         Standard orientation:
 ---------------------------------------------------------------------
 Center     Atomic      Atomic             Coordinates (Angstroms)
 Number     Number       Type             X           Y           Z
 ---------------------------------------------------------------------
      1          6           0       -0.698676   -2.131806    0.456376
      2          6           0       -1.694081   -1.876558    1.405343
      3          6           0       -2.693669   -0.933168    1.149632
      4          6           0       -2.667361   -0.260316   -0.070969
      5          6           0       -1.689083   -0.492434   -1.036570
      6          6           0       -0.699353   -1.440149   -0.759408
      7          1           0        0.073999   -2.866334    0.663350
      8          1           0       -1.696051   -2.412204    2.350395
      9          1           0       -3.476163   -0.715983    1.866536
     10          1           0       -1.713415    0.057374   -1.969596
     11          1           0        0.072446   -1.636325   -1.498249
     12          7           0       -3.720362    0.740698   -0.353033
     13          8           0       -3.674984    1.320101   -1.436025
     14          8           0       -4.571143    0.926936    0.514218
     15          6           0        2.661688    1.080418    0.152889
     16          6           0        3.243031    2.487512    0.294707
     17          6           0        2.169594    3.548923    0.537477
     18          1           0        1.940173    1.070447   -0.675519
     19          1           0        2.097198    0.831105    1.062059
     20          1           0        3.807414    2.733560   -0.613890
     21          1           0        3.963387    2.494088    1.122752
     22          1           0        1.612481    3.330732    1.454329
     23          1           0        1.455621    3.571564   -0.292180
     24          1           0        2.607171    4.547276    0.635843
     25          6           0        3.722475    0.008336   -0.090217
     26          6           0        3.141132   -1.398758   -0.232033
     27          6           0        4.214568   -2.460167   -0.474803
     28          1           0        4.286965    0.257649   -0.999386
     29          1           0        4.443989    0.018307    0.738193
     30          1           0        2.420776   -1.405334   -1.060079
     31          1           0        2.576749   -1.644805    0.676564
     32          1           0        4.928541   -2.482809    0.354853
     33          1           0        4.771681   -2.241976   -1.391656
     34          1           0        3.776991   -3.458522   -0.573170
 ---------------------------------------------------------------------

 SCF Done:  E(RHF) =  -669.535032211     A.U. after   15 cycles
 E2 =    -0.2092595167D+01 EUMP2 =    -0.67162762737870D+03

 The electronic state is 1-A.
 Alpha  occ. eigenvalues --  -20.60735 -20.60730 -15.85788 -11.31146 -11.27717
 Alpha  occ. eigenvalues --  -11.27708 -11.27434 -11.26732 -11.26699 -11.22622
 Alpha  occ. eigenvalues --  -11.22065 -11.21959 -11.21925 -11.21836 -11.21226
 Alpha  occ. eigenvalues --   -1.59810  -1.39364  -1.19317  -1.09058  -1.08705
 Alpha  occ. eigenvalues --   -1.04723  -1.04132  -0.96540  -0.95547  -0.87560
 Alpha  occ. eigenvalues --   -0.86123  -0.82383  -0.80263  -0.78826  -0.77427
 Alpha  occ. eigenvalues --   -0.72007  -0.71133  -0.70420  -0.65713  -0.64969
 Alpha  occ. eigenvalues --   -0.64729  -0.62105  -0.61510  -0.59953  -0.58155
 Alpha  occ. eigenvalues --   -0.55812  -0.55215  -0.53294  -0.53024  -0.52973
 Alpha  occ. eigenvalues --   -0.52811  -0.50479  -0.48782  -0.48763  -0.48517
 Alpha  occ. eigenvalues --   -0.47281  -0.46350  -0.46252  -0.44772  -0.44370
 Alpha  occ. eigenvalues --   -0.37263  -0.36303
 Alpha virt. eigenvalues --    0.05075   0.11267   0.16464   0.19941   0.22705
 Alpha virt. eigenvalues --    0.23859   0.24688   0.26111   0.27165   0.28339
 Alpha virt. eigenvalues --    0.29129   0.29520   0.31148   0.31675   0.31745

 Mulliken charges:
               1
     1  C   -0.171516
     2  C   -0.219409
     3  C   -0.171028
     4  C    0.158849
     5  C   -0.172432
     6  C   -0.216502
     7  H    0.227025
     8  H    0.223047
     9  H    0.275358
    10  H    0.275073
    11  H    0.225915
    12  N    0.488086
    13  O   -0.460662
    14  O   -0.460572
    15  C   -0.298105
    16  C   -0.300528
    17  C   -0.476074
    18  H    0.147879
    19  H    0.151241
    20  H    0.152269
    21  H    0.152125
    22  H    0.156245
    23  H    0.157575
    24  H    0.161784
    25  C   -0.298403
    26  C   -0.303150
    27  C   -0.475645
    28  H    0.151467
    29  H    0.151973
    30  H    0.144866
    31  H    0.149137
    32  H    0.158767
    33  H    0.158692
    34  H    0.156653
 Sum of Mulliken charges =  -0.00000

 Dipole moment (field-independent basis, Debye):
    X=              3.8227    Y=             -3.4344    Z=              1.0332  Tot=              5.2417
 Quadrupole moment (field-independent basis, Debye-Ang):
   XX=           -114.4907   YY=            -94.1251   ZZ=            -90.0866
   XY=              9.5885   XZ=             -4.8063   YZ=             -1.2886

 Normal termination of Gaussian 16 at Thu May  6 00:03:34 2021.
