 Gaussian 16, Revision A.03,
 Gaussian 16:  EM64L-G16RevA.03 25-Dec-2016

 -------------
 #p 6-31g* mp2
 -------------

 ------------------------------------------------------
 Input file generated by CHIRIPA (05-May-2021 14:51:08)
 ------------------------------------------------------
 Symbolic Z-matrix:
 Charge =  0 Multiplicity = 1

                         Standard orientation:
 ---------------------------------------------------------------------
 Center     Atomic      Atomic             Coordinates (Angstroms)
 Number     Number       Type             X           Y           Z
 ---------------------------------------------------------------------
      1          6           0        4.199835   -0.658801    0.191184
      2          6           0        5.556549   -1.185303   -0.277973
      3          6           0        5.930668   -2.517556    0.372358
      4          1           0        4.216289   -0.543373    1.283590
      5          1           0        3.426749   -1.406941   -0.032464
      6          1           0        6.326641   -0.435803   -0.054758
      7          1           0        5.536926   -1.299308   -1.369410
      8          1           0        5.183717   -3.283256    0.139189
      9          1           0        5.977918   -2.414844    1.461311
     10          1           0        6.904058   -2.875590    0.022809
     11          6           0        3.811887    0.672349   -0.450115
     12          6           0        2.455174    1.198851    0.019042
     13          6           0        2.081054    2.531104   -0.631289
     14          1           0        4.584974    1.420489   -0.226467
     15          1           0        3.795433    0.556921   -1.542521
     16          1           0        2.474796    1.312856    1.110479
     17          1           0        1.685082    0.449351   -0.204173
     18          1           0        2.033804    2.428393   -1.720242
     19          1           0        2.828006    3.296804   -0.398120
     20          1           0        1.107665    2.889138   -0.281740
     21          6           0       -3.360582    0.168949    0.498476
     22          6           0       -2.789885    1.532253    0.106442
     23          6           0       -1.498966    1.869593    0.853119
     24          1           0       -3.546917    0.154127    1.581069
     25          1           0       -2.607862   -0.606617    0.300222
     26          1           0       -3.543965    2.304856    0.304084
     27          1           0       -2.605067    1.543897   -0.975372
     28          1           0       -0.727819    1.120208    0.647312
     29          1           0       -1.672053    1.885491    1.934039
     30          1           0       -1.108334    2.848351    0.557656
     31          6           0       -4.651140   -0.182497   -0.239546
     32          6           0       -5.221838   -1.545801    0.152489
     33          6           0       -6.512756   -1.883141   -0.594188
     34          1           0       -5.403860    0.593069   -0.041291
     35          1           0       -4.464805   -0.167675   -1.322137
     36          1           0       -5.406656   -1.557446    1.234303
     37          1           0       -4.467757   -2.318404   -0.045154
     38          1           0       -6.339670   -1.899039   -1.675108
     39          1           0       -7.283904   -1.133757   -0.388382
     40          1           0       -6.903388   -2.861899   -0.298725
 ---------------------------------------------------------------------

 SCF Done:  E(RHF) =  -470.732621421     A.U. after   11 cycles
 E2 =    -0.1583034992D+01 EUMP2 =    -0.47231565641286D+03

 The electronic state is 1-A.
 Alpha  occ. eigenvalues --  -11.21610 -11.21608 -11.21589 -11.21560 -11.21416
 Alpha  occ. eigenvalues --  -11.21382 -11.21357 -11.21321 -11.21078 -11.21063
 Alpha  occ. eigenvalues --  -11.21056 -11.20927  -1.08444  -1.08399  -1.03568
 Alpha  occ. eigenvalues --   -1.03467  -0.96052  -0.95882  -0.87068  -0.86903
 Alpha  occ. eigenvalues --   -0.79611  -0.79559  -0.78265  -0.78206  -0.65089
 Alpha  occ. eigenvalues --   -0.65020  -0.61019  -0.60845  -0.59610  -0.59126
 Alpha  occ. eigenvalues --   -0.57643  -0.57535  -0.55302  -0.55166  -0.52998
 Alpha  occ. eigenvalues --   -0.52495  -0.52412  -0.52166  -0.49914  -0.49867
 Alpha  occ. eigenvalues --   -0.48026  -0.47771  -0.46691  -0.46534  -0.45826
 Alpha  occ. eigenvalues --   -0.45751  -0.45717  -0.45634  -0.43935  -0.43580
 Alpha virt. eigenvalues --    0.21840   0.23072   0.23461   0.25108   0.26048
 Alpha virt. eigenvalues --    0.26802   0.26952   0.27127   0.27808   0.29057
 Alpha virt. eigenvalues --    0.29344   0.30921   0.31516   0.31814   0.32393

 Mulliken charges:
               1
     1  C   -0.298224
     2  C   -0.299604
     3  C   -0.475678
     4  H    0.149711
     5  H    0.149119
     6  H    0.151966
     7  H    0.151858
     8  H    0.155073
     9  H    0.155197
    10  H    0.160210
    11  C   -0.298279
    12  C   -0.299770
    13  C   -0.482079
    14  H    0.149609
    15  H    0.149430
    16  H    0.152450
    17  H    0.151181
    18  H    0.153968
    19  H    0.154338
    20  H    0.168191
    21  C   -0.298591
    22  C   -0.299538
    23  C   -0.482853
    24  H    0.149779
    25  H    0.149346
    26  H    0.151895
    27  H    0.152154
    28  H    0.161942
    29  H    0.155229
    30  H    0.161869
    31  C   -0.298303
    32  C   -0.299646
    33  C   -0.475708
    34  H    0.149608
    35  H    0.149633
    36  H    0.151987
    37  H    0.151872
    38  H    0.155166
    39  H    0.155217
    40  H    0.160277
 Sum of Mulliken charges =  -0.00000

 Dipole moment (field-independent basis, Debye):
    X=             -0.0282    Y=              0.0052    Z=              0.0194  Tot=              0.0346
 Quadrupole moment (field-independent basis, Debye-Ang):
   XX=            -85.4494   YY=            -85.4425   ZZ=            -84.0072
   XY=             -0.0071   XZ=             -0.5984   YZ=              0.9625

 Normal termination of Gaussian 16 at Wed May  5 15:02:59 2021.
