 Gaussian 16, Revision A.03,
 Gaussian 16:  EM64L-G16RevA.03 25-Dec-2016

 -------------
 #p 6-31g* mp2
 -------------

 ------------------------------------------------------
 Input file generated by CHIRIPA (05-May-2021 14:57:26)
 ------------------------------------------------------
 Symbolic Z-matrix:
 Charge =  0 Multiplicity = 1

                         Standard orientation:
 ---------------------------------------------------------------------
 Center     Atomic      Atomic             Coordinates (Angstroms)
 Number     Number       Type             X           Y           Z
 ---------------------------------------------------------------------
      1          6           0       -2.028850    0.682922    1.199275
      2          6           0       -2.746772    1.676524    0.525581
      3          6           0       -3.960699    1.375375   -0.099109
      4          6           0       -4.429353    0.064314   -0.030034
      5          6           0       -3.737229   -0.947616    0.633482
      6          6           0       -2.525495   -0.623674    1.250984
      7          1           0       -1.086694    0.925715    1.681758
      8          1           0       -2.363491    2.692101    0.483800
      9          1           0       -4.536924    2.125195   -0.627457
     10          1           0       -4.144802   -1.950961    0.658022
     11          1           0       -1.970089   -1.397351    1.773472
     12          7           0       -5.713322   -0.266564   -0.687561
     13          8           0       -6.104679   -1.429237   -0.612259
     14          8           0       -6.304029    0.643031   -1.265781
     15          6           0        6.629168    0.439126   -0.567826
     16          6           0        5.714344    1.462708   -0.299683
     17          6           0        4.375772    1.165220   -0.027152
     18          6           0        3.984611   -0.172789   -0.031012
     19          6           0        4.872242   -1.214903   -0.294453
     20          6           0        6.205943   -0.894061   -0.564362
     21          1           0        7.667111    0.679293   -0.778516
     22          1           0        6.040204    2.498977   -0.301698
     23          1           0        3.646519    1.937970    0.183716
     24          1           0        4.517676   -2.238435   -0.285319
     25          1           0        6.914203   -1.691050   -0.772262
     26          7           0        2.570103   -0.500088    0.256116
     27          8           0        2.250592   -1.686874    0.246698
     28          8           0        1.807707    0.436359    0.485149
 ---------------------------------------------------------------------

 SCF Done:  E(RHF) =  -868.340145897     A.U. after   16 cycles
 E2 =    -0.2598113254D+01 EUMP2 =    -0.87093825915165D+03

 The electronic state is 1-A.
 Alpha  occ. eigenvalues --  -20.61758 -20.61727 -20.59884 -20.59877 -15.86775
 Alpha  occ. eigenvalues --  -15.84931 -11.31882 -11.30042 -11.28434 -11.28403
 Alpha  occ. eigenvalues --  -11.28105 -11.27378 -11.27357 -11.26643 -11.26586
 Alpha  occ. eigenvalues --  -11.26105 -11.25536 -11.25426  -1.60806  -1.58966
 Alpha  occ. eigenvalues --   -1.40368  -1.38526  -1.20028  -1.18183  -1.09469
 Alpha  occ. eigenvalues --   -1.07578  -1.05392  -1.03565  -0.96350  -0.94462
 Alpha  occ. eigenvalues --   -0.86802  -0.84948  -0.83194  -0.81323  -0.78269
 Alpha  occ. eigenvalues --   -0.76442  -0.73021  -0.72103  -0.71154  -0.71131
 Alpha  occ. eigenvalues --   -0.70288  -0.69178  -0.65684  -0.65391  -0.63817
 Alpha  occ. eigenvalues --   -0.63548  -0.62744  -0.60935  -0.55898  -0.53919
 Alpha  occ. eigenvalues --   -0.53733  -0.53479  -0.51889  -0.51643  -0.49769
 Alpha  occ. eigenvalues --   -0.49735  -0.47923  -0.47885  -0.45827  -0.43990
 Alpha  occ. eigenvalues --   -0.37988  -0.36983  -0.36060  -0.35187
 Alpha virt. eigenvalues --    0.04251   0.06109   0.10676   0.12494   0.15798
 Alpha virt. eigenvalues --    0.17692   0.20841   0.22754   0.26767   0.27699
 Alpha virt. eigenvalues --    0.28500   0.29689   0.30452   0.31865   0.32397

 Mulliken charges:
               1
     1  C   -0.165248
     2  C   -0.220965
     3  C   -0.172432
     4  C    0.156610
     5  C   -0.172422
     6  C   -0.218392
     7  H    0.240156
     8  H    0.219242
     9  H    0.271045
    10  H    0.272349
    11  H    0.227178
    12  N    0.488365
    13  O   -0.463171
    14  O   -0.464222
    15  C   -0.169797
    16  C   -0.218390
    17  C   -0.170473
    18  C    0.157938
    19  C   -0.170230
    20  C   -0.218457
    21  H    0.227958
    22  H    0.225022
    23  H    0.273701
    24  H    0.276636
    25  H    0.225736
    26  N    0.490681
    27  O   -0.458236
    28  O   -0.470181
 Sum of Mulliken charges =  -0.00000

 Dipole moment (field-independent basis, Debye):
    X=             10.1454    Y=              2.2420    Z=              1.3732  Tot=             10.4806
 Quadrupole moment (field-independent basis, Debye-Ang):
   XX=           -106.8379   YY=            -95.9366   ZZ=           -105.9626
   XY=             -2.6461   XZ=            -15.1192   YZ=             -0.7590

 Normal termination of Gaussian 16 at Fri May  7 08:08:04 2021.
