 Gaussian 16, Revision A.03,
 Gaussian 16:  EM64L-G16RevA.03 25-Dec-2016

 -------------
 #p 6-31g* mp2
 -------------

 ------------------------------------------------------
 Input file generated by CHIRIPA (05-May-2021 14:53:17)
 ------------------------------------------------------
 Symbolic Z-matrix:
 Charge =  0 Multiplicity = 1

                         Standard orientation:
 ---------------------------------------------------------------------
 Center     Atomic      Atomic             Coordinates (Angstroms)
 Number     Number       Type             X           Y           Z
 ---------------------------------------------------------------------
      1          6           0       -5.560518    0.044913    0.325988
      2          6           0       -6.285896    1.127955   -0.473282
      3          6           0       -7.658978    1.470234    0.105754
      4          1           0       -6.183524   -0.859496    0.355217
      5          1           0       -5.447546    0.380395    1.366220
      6          1           0       -6.396238    0.791112   -1.512021
      7          1           0       -5.661006    2.029827   -0.500774
      8          1           0       -7.563970    1.831002    1.135035
      9          1           0       -8.303379    0.585249    0.118043
     10          1           0       -8.159931    2.246550   -0.480966
     11          6           0       -4.186436   -0.308167   -0.240545
     12          6           0       -3.461058   -1.391209    0.558725
     13          6           0       -2.087975   -1.733488   -0.020311
     14          1           0       -4.299408   -0.643649   -1.280777
     15          1           0       -3.563430    0.596242   -0.269774
     16          1           0       -4.085948   -2.293081    0.586217
     17          1           0       -3.350716   -1.054366    1.597464
     18          1           0       -1.443575   -0.848503   -0.032600
     19          1           0       -2.182984   -2.094256   -1.049592
     20          1           0       -1.587023   -2.509804    0.566409
     21          6           0        6.039741    1.261710    0.165614
     22          6           0        5.979973   -0.133494    0.085900
     23          6           0        4.748613   -0.786249   -0.024601
     24          6           0        3.591590   -0.009203   -0.052614
     25          6           0        3.618386    1.382403    0.024898
     26          6           0        4.860835    2.013879    0.134913
     27          1           0        7.000599    1.760521    0.251264
     28          1           0        6.893903   -0.720195    0.109504
     29          1           0        4.673442   -1.865022   -0.087997
     30          1           0        2.690230    1.940316   -0.001141
     31          1           0        4.904223    3.097554    0.196643
     32          7           0        2.282134   -0.688982   -0.169338
     33          8           0        1.277235    0.018342   -0.191899
     34          8           0        2.285476   -1.916245   -0.236056
 ---------------------------------------------------------------------

 SCF Done:  E(RHF) =  -669.536080316     A.U. after   15 cycles
 E2 =    -0.2090919587D+01 EUMP2 =    -0.67162699990231D+03

 The electronic state is 1-A.
 Alpha  occ. eigenvalues --  -20.60942 -20.60930 -15.85969 -11.31297 -11.27860
 Alpha  occ. eigenvalues --  -11.27855 -11.27597 -11.26867 -11.26858 -11.20956
 Alpha  occ. eigenvalues --  -11.20573 -11.20551 -11.20328 -11.20245 -11.19090
 Alpha  occ. eigenvalues --   -1.59991  -1.39549  -1.19464  -1.08866  -1.07469
 Alpha  occ. eigenvalues --   -1.04861  -1.02459  -0.95709  -0.94869  -0.86261
 Alpha  occ. eigenvalues --   -0.85874  -0.82542  -0.78563  -0.77593  -0.77227
 Alpha  occ. eigenvalues --   -0.72189  -0.71307  -0.70572  -0.65120  -0.64864
 Alpha  occ. eigenvalues --   -0.64112  -0.62208  -0.59862  -0.58340  -0.56478
 Alpha  occ. eigenvalues --   -0.55367  -0.54160  -0.53192  -0.52953  -0.51544
 Alpha  occ. eigenvalues --   -0.51303  -0.49168  -0.48932  -0.48581  -0.46824
 Alpha  occ. eigenvalues --   -0.45607  -0.44963  -0.44753  -0.44648  -0.42714
 Alpha  occ. eigenvalues --   -0.37443  -0.36462
 Alpha virt. eigenvalues --    0.04941   0.11193   0.16440   0.21327   0.23747
 Alpha virt. eigenvalues --    0.25449   0.27243   0.27570   0.28195   0.28400
 Alpha virt. eigenvalues --    0.29244   0.30895   0.32369   0.32532   0.32665

 Mulliken charges:
               1
     1  C   -0.297271
     2  C   -0.298819
     3  C   -0.475108
     4  H    0.147926
     5  H    0.147722
     6  H    0.151086
     7  H    0.150866
     8  H    0.154083
     9  H    0.154380
    10  H    0.158065
    11  C   -0.297212
    12  C   -0.300166
    13  C   -0.480486
    14  H    0.147774
    15  H    0.150159
    16  H    0.145944
    17  H    0.147739
    18  H    0.179878
    19  H    0.148963
    20  H    0.159758
    21  C   -0.170614
    22  C   -0.218581
    23  C   -0.170600
    24  C    0.157821
    25  C   -0.170810
    26  C   -0.218528
    27  H    0.225981
    28  H    0.223834
    29  H    0.275937
    30  H    0.275550
    31  H    0.223783
    32  N    0.489976
    33  O   -0.460684
    34  O   -0.458345
 Sum of Mulliken charges =  -0.00000

 Dipole moment (field-independent basis, Debye):
    X=              5.0324    Y=              2.4169    Z=              0.3879  Tot=              5.5962
 Quadrupole moment (field-independent basis, Debye-Ang):
   XX=            -63.3727   YY=            -90.7843   ZZ=            -95.6066
   XY=              6.9065   XZ=              1.8702   YZ=              0.3524

 Normal termination of Gaussian 16 at Thu May  6 15:38:32 2021.
