 Gaussian 16, Revision A.03,
 Gaussian 16:  EM64L-G16RevA.03 25-Dec-2016

 -------------
 #p 6-31g* mp2
 -------------

 ------------------------------------------------------
 Input file generated by CHIRIPA (05-May-2021 14:57:21)
 ------------------------------------------------------
 Symbolic Z-matrix:
 Charge =  0 Multiplicity = 1

                         Standard orientation:
 ---------------------------------------------------------------------
 Center     Atomic      Atomic             Coordinates (Angstroms)
 Number     Number       Type             X           Y           Z
 ---------------------------------------------------------------------
      1          6           0        4.506674    1.588239    0.826747
      2          6           0        3.792667    0.789120    1.725705
      3          6           0        2.967949   -0.239645    1.260913
      4          6           0        2.880279   -0.442352   -0.115500
      5          6           0        3.579063    0.336845   -1.036284
      6          6           0        4.397785    1.359953   -0.548953
      7          1           0        5.145006    2.385211    1.196563
      8          1           0        3.875306    0.964122    2.794625
      9          1           0        2.404071   -0.873282    1.934682
     10          1           0        3.476395    0.138285   -2.096214
     11          1           0        4.951127    1.978988   -1.249419
     12          7           0        2.010361   -1.528465   -0.619485
     13          8           0        1.950254   -1.686696   -1.836854
     14          8           0        1.405098   -2.200964    0.212404
     15          6           0       -2.851758    2.736447   -0.436770
     16          6           0       -4.094304    2.163916   -0.145549
     17          6           0       -4.201388    0.794734    0.116028
     18          6           0       -3.040270    0.024257    0.077798
     19          6           0       -1.787997    0.565276   -0.209254
     20          6           0       -1.704593    1.936709   -0.467639
     21          1           0       -2.777770    3.800934   -0.638731
     22          1           0       -4.986888    2.782568   -0.120885
     23          1           0       -5.150712    0.325552    0.344216
     24          1           0       -0.915931   -0.077078   -0.226556
     25          1           0       -0.738293    2.378624   -0.693520
     26          7           0       -3.141101   -1.426425    0.353030
     27          8           0       -2.103207   -2.083560    0.313200
     28          8           0       -4.256117   -1.878868    0.603373
 ---------------------------------------------------------------------

 SCF Done:  E(RHF) =  -868.335810027     A.U. after   16 cycles
 E2 =    -0.2601017968D+01 EUMP2 =    -0.87093682799494D+03

 The electronic state is 1-A.
 Alpha  occ. eigenvalues --  -20.60884 -20.60780 -20.59953 -20.59857 -15.85867
 Alpha  occ. eigenvalues --  -15.84960 -11.31459 -11.30634 -11.28053 -11.28009
 Alpha  occ. eigenvalues --  -11.27800 -11.27266 -11.27214 -11.27091 -11.27084
 Alpha  occ. eigenvalues --  -11.27058 -11.26350 -11.26340  -1.59916  -1.58994
 Alpha  occ. eigenvalues --   -1.39451  -1.38528  -1.19648  -1.18848  -1.09000
 Alpha  occ. eigenvalues --   -1.08195  -1.05061  -1.04297  -0.95789  -0.94971
 Alpha  occ. eigenvalues --   -0.86446  -0.85680  -0.82599  -0.81790  -0.77627
 Alpha  occ. eigenvalues --   -0.76780  -0.72048  -0.71358  -0.71092  -0.70720
 Alpha  occ. eigenvalues --   -0.70337  -0.69950  -0.65273  -0.65043  -0.64491
 Alpha  occ. eigenvalues --   -0.64311  -0.62389  -0.61631  -0.55539  -0.54809
 Alpha  occ. eigenvalues --   -0.53409  -0.53135  -0.52613  -0.52397  -0.48839
 Alpha  occ. eigenvalues --   -0.48816  -0.47982  -0.47901  -0.44764  -0.43867
 Alpha  occ. eigenvalues --   -0.37653  -0.36859  -0.36685  -0.35913
 Alpha virt. eigenvalues --    0.04870   0.05752   0.10957   0.11739   0.16311
 Alpha virt. eigenvalues --    0.17176   0.21146   0.21725   0.27075   0.27340
 Alpha virt. eigenvalues --    0.28061   0.28548   0.30637   0.31298   0.32258

 Mulliken charges:
               1
     1  C   -0.171857
     2  C   -0.218872
     3  C   -0.173518
     4  C    0.152476
     5  C   -0.173755
     6  C   -0.219444
     7  H    0.226033
     8  H    0.224967
     9  H    0.280068
    10  H    0.276131
    11  H    0.223596
    12  N    0.482628
    13  O   -0.460081
    14  O   -0.445198
    15  C   -0.171591
    16  C   -0.219021
    17  C   -0.171111
    18  C    0.157005
    19  C   -0.171413
    20  C   -0.219417
    21  H    0.222332
    22  H    0.221266
    23  H    0.274838
    24  H    0.280700
    25  H    0.219703
    26  N    0.485578
    27  O   -0.445857
    28  O   -0.466186
 Sum of Mulliken charges =  -0.00000

 Dipole moment (field-independent basis, Debye):
    X=              3.5859    Y=              8.6169    Z=              0.8815  Tot=              9.3748
 Quadrupole moment (field-independent basis, Debye-Ang):
   XX=            -85.5545   YY=           -108.8443   ZZ=           -101.7776
   XY=             -5.8566   XZ=              5.9610   YZ=             -2.0924

 Normal termination of Gaussian 16 at Thu May  6 21:04:04 2021.
