 Gaussian 16, Revision A.03,
 Gaussian 16:  EM64L-G16RevA.03 25-Dec-2016

 -------------
 #p 6-31g* mp2
 -------------

 ------------------------------------------------------
 Input file generated by CHIRIPA (05-May-2021 14:55:23)
 ------------------------------------------------------
 Symbolic Z-matrix:
 Charge =  0 Multiplicity = 1

                         Standard orientation:
 ---------------------------------------------------------------------
 Center     Atomic      Atomic             Coordinates (Angstroms)
 Number     Number       Type             X           Y           Z
 ---------------------------------------------------------------------
      1          6           0       -5.706539   -0.257978    0.463183
      2          6           0       -5.002940    0.950599    0.434703
      3          6           0       -3.635494    0.969406    0.144383
      4          6           0       -3.000386   -0.244390   -0.113738
      5          6           0       -3.673855   -1.464757   -0.092886
      6          6           0       -5.040924   -1.459680    0.199762
      7          1           0       -6.768658   -0.263310    0.689615
      8          1           0       -5.517269    1.885384    0.638879
      9          1           0       -3.066486    1.890724    0.115697
     10          1           0       -3.133799   -2.380505   -0.300639
     11          1           0       -5.584801   -2.399777    0.221184
     12          7           0       -1.552931   -0.237122   -0.422319
     13          8           0       -1.016488   -1.320063   -0.646160
     14          8           0       -0.982267    0.851377   -0.434500
     15          6           0        4.324088   -0.400330   -0.121728
     16          6           0        5.593308   -0.922566    0.552315
     17          6           0        5.936818   -2.353624    0.137743
     18          1           0        3.485495   -1.066119    0.124102
     19          1           0        4.450755   -0.446755   -1.212230
     20          1           0        5.464813   -0.873876    1.641230
     21          1           0        6.428939   -0.255350    0.305009
     22          1           0        6.091778   -2.414553   -0.944327
     23          1           0        5.122174   -3.036593    0.399487
     24          1           0        6.847541   -2.706938    0.631314
     25          6           0        3.967608    1.029035    0.282702
     26          6           0        2.698387    1.551271   -0.391343
     27          6           0        2.354878    2.982328    0.023230
     28          1           0        3.840941    1.075461    1.373203
     29          1           0        4.806200    1.694824    0.036872
     30          1           0        1.862757    0.884055   -0.144035
     31          1           0        2.826883    1.502581   -1.480256
     32          1           0        3.169522    3.665298   -0.238513
     33          1           0        2.199917    3.043259    1.105300
     34          1           0        1.444155    3.335642   -0.470340
 ---------------------------------------------------------------------

 SCF Done:  E(RHF) =  -669.536400934     A.U. after   15 cycles
 E2 =    -0.2091237641D+01 EUMP2 =    -0.67162763857534D+03

 The electronic state is 1-A.
 Alpha  occ. eigenvalues --  -20.61047 -20.61030 -15.86056 -11.31351 -11.27907
 Alpha  occ. eigenvalues --  -11.27904 -11.27640 -11.26907 -11.26897 -11.20660
 Alpha  occ. eigenvalues --  -11.20263 -11.20167 -11.20038 -11.19749 -11.19611
 Alpha  occ. eigenvalues --   -1.60091  -1.39648  -1.19514  -1.08924  -1.07151
 Alpha  occ. eigenvalues --   -1.04905  -1.02247  -0.95770  -0.94758  -0.86306
 Alpha  occ. eigenvalues --   -0.85791  -0.82604  -0.78335  -0.77661  -0.76892
 Alpha  occ. eigenvalues --   -0.72270  -0.71401  -0.70622  -0.65169  -0.64908
 Alpha  occ. eigenvalues --   -0.63791  -0.62251  -0.59653  -0.58143  -0.56323
 Alpha  occ. eigenvalues --   -0.55409  -0.54077  -0.53238  -0.52995  -0.51474
 Alpha  occ. eigenvalues --   -0.51178  -0.49110  -0.49029  -0.48712  -0.46631
 Alpha  occ. eigenvalues --   -0.45361  -0.45063  -0.44467  -0.44250  -0.42511
 Alpha  occ. eigenvalues --   -0.37491  -0.36504
 Alpha virt. eigenvalues --    0.04861   0.11152   0.16366   0.21285   0.24065
 Alpha virt. eigenvalues --    0.25517   0.27212   0.27901   0.28149   0.28868
 Alpha virt. eigenvalues --    0.29134   0.30859   0.32350   0.32584   0.32996

 Mulliken charges:
               1
     1  C   -0.170471
     2  C   -0.218564
     3  C   -0.170723
     4  C    0.157845
     5  C   -0.170662
     6  C   -0.218603
     7  H    0.226205
     8  H    0.224075
     9  H    0.276020
    10  H    0.275940
    11  H    0.224004
    12  N    0.489129
    13  O   -0.459099
    14  O   -0.459294
    15  C   -0.298285
    16  C   -0.298554
    17  C   -0.474971
    18  H    0.155640
    19  H    0.148179
    20  H    0.149559
    21  H    0.149140
    22  H    0.154232
    23  H    0.155505
    24  H    0.156526
    25  C   -0.297816
    26  C   -0.305686
    27  C   -0.473687
    28  H    0.145016
    29  H    0.143312
    30  H    0.179799
    31  H    0.147191
    32  H    0.146385
    33  H    0.149179
    34  H    0.163534
 Sum of Mulliken charges =  -0.00000

 Dipole moment (field-independent basis, Debye):
    X=             -5.5638    Y=             -0.1406    Z=              1.0354  Tot=              5.6610
 Quadrupole moment (field-independent basis, Debye-Ang):
   XX=            -66.2274   YY=            -91.3227   ZZ=            -95.4323
   XY=              1.6622   XZ=             -3.3513   YZ=             -0.2170

 Normal termination of Gaussian 16 at Thu May  6 04:42:38 2021.
