 Gaussian 16, Revision A.03,
 Gaussian 16:  EM64L-G16RevA.03 25-Dec-2016

 -------------
 #p 6-31g* mp2
 -------------

 ------------------------------------------------------
 Input file generated by CHIRIPA (05-May-2021 14:57:21)
 ------------------------------------------------------
 Symbolic Z-matrix:
 Charge =  0 Multiplicity = 1

                         Standard orientation:
 ---------------------------------------------------------------------
 Center     Atomic      Atomic             Coordinates (Angstroms)
 Number     Number       Type             X           Y           Z
 ---------------------------------------------------------------------
      1          6           0       -3.294919    2.476277    0.575952
      2          6           0       -4.254598    2.150025   -0.387944
      3          6           0       -4.503743    0.814585   -0.718210
      4          6           0       -3.771585   -0.173649   -0.061989
      5          6           0       -2.808931    0.119505    0.902712
      6          6           0       -2.576415    1.461764    1.217074
      7          1           0       -3.107836    3.516328    0.826333
      8          1           0       -4.814105    2.935823   -0.887462
      9          1           0       -5.240958    0.533864   -1.460590
     10          1           0       -2.267068   -0.685794    1.383645
     11          1           0       -1.830515    1.712186    1.966051
     12          7           0       -4.026541   -1.591029   -0.403208
     13          8           0       -3.368100   -2.443111    0.189286
     14          8           0       -4.879989   -1.823052   -1.256689
     15          6           0        1.303927   -0.335168    0.643294
     16          6           0        1.723961    0.815404   -0.032188
     17          6           0        3.065465    0.978542   -0.390380
     18          6           0        3.964066   -0.033345   -0.055884
     19          6           0        3.576341   -1.191181    0.616705
     20          6           0        2.229825   -1.333030    0.965017
     21          1           0        0.259868   -0.453629    0.917708
     22          1           0        1.007106    1.591993   -0.283333
     23          1           0        3.417787    1.859137   -0.913677
     24          1           0        4.314224   -1.948080    0.853458
     25          1           0        1.906466   -2.227643    1.489567
     26          7           0        5.386909    0.128093   -0.429855
     27          8           0        6.158919   -0.777939   -0.123680
     28          8           0        5.703182    1.157602   -1.022069
 ---------------------------------------------------------------------

 SCF Done:  E(RHF) =  -868.337251195     A.U. after   16 cycles
 E2 =    -0.2600308244D+01 EUMP2 =    -0.87093755943878D+03

 The electronic state is 1-A.
 Alpha  occ. eigenvalues --  -20.61653 -20.61630 -20.60895 -20.60887 -15.86705
 Alpha  occ. eigenvalues --  -15.85948 -11.32222 -11.31357 -11.28901 -11.28729
 Alpha  occ. eigenvalues --  -11.28508 -11.27944 -11.27897 -11.27896 -11.27752
 Alpha  occ. eigenvalues --  -11.27717 -11.26998 -11.26921  -1.60715  -1.59967
 Alpha  occ. eigenvalues --   -1.40267  -1.39520  -1.20398  -1.19534  -1.09745
 Alpha  occ. eigenvalues --   -1.08932  -1.05834  -1.04939  -0.96566  -0.95760
 Alpha  occ. eigenvalues --   -0.87205  -0.86338  -0.83404  -0.82587  -0.78442
 Alpha  occ. eigenvalues --   -0.77616  -0.72918  -0.72166  -0.72041  -0.71519
 Alpha  occ. eigenvalues --   -0.71290  -0.70661  -0.66043  -0.65812  -0.65190
 Alpha  occ. eigenvalues --   -0.64948  -0.63178  -0.62281  -0.56289  -0.55502
 Alpha  occ. eigenvalues --   -0.54107  -0.53894  -0.53269  -0.53031  -0.49687
 Alpha  occ. eigenvalues --   -0.49665  -0.48928  -0.48917  -0.45640  -0.44915
 Alpha  occ. eigenvalues --   -0.38349  -0.37533  -0.37438  -0.36538
 Alpha virt. eigenvalues --    0.04059   0.04909   0.10152   0.11110   0.15444
 Alpha virt. eigenvalues --    0.16381   0.18997   0.21899   0.25021   0.26498
 Alpha virt. eigenvalues --    0.27431   0.29649   0.29754   0.30648   0.32459

 Mulliken charges:
               1
     1  C   -0.171505
     2  C   -0.217376
     3  C   -0.169658
     4  C    0.160973
     5  C   -0.177704
     6  C   -0.222712
     7  H    0.229098
     8  H    0.227742
     9  H    0.279276
    10  H    0.270714
    11  H    0.224285
    12  N    0.488241
    13  O   -0.461689
    14  O   -0.455917
    15  C   -0.172298
    16  C   -0.221333
    17  C   -0.170643
    18  C    0.158832
    19  C   -0.170362
    20  C   -0.219132
    21  H    0.222598
    22  H    0.221111
    23  H    0.275196
    24  H    0.276970
    25  H    0.227208
    26  N    0.487987
    27  O   -0.459267
    28  O   -0.460633
 Sum of Mulliken charges =  -0.00000

 Dipole moment (field-independent basis, Debye):
    X=             -4.3508    Y=              4.4452    Z=              2.4048  Tot=              6.6687
 Quadrupole moment (field-independent basis, Debye-Ang):
   XX=           -148.1634   YY=           -102.4731   ZZ=           -103.2427
   XY=            -23.9878   XZ=              4.4599   YZ=             -3.7727

 Normal termination of Gaussian 16 at Thu May  6 04:53:08 2021.
