 Gaussian 16, Revision A.03,
 Gaussian 16:  EM64L-G16RevA.03 25-Dec-2016

 -------------
 #p 6-31g* mp2
 -------------

 ------------------------------------------------------
 Input file generated by CHIRIPA (05-May-2021 14:55:19)
 ------------------------------------------------------
 Symbolic Z-matrix:
 Charge =  0 Multiplicity = 1

                         Standard orientation:
 ---------------------------------------------------------------------
 Center     Atomic      Atomic             Coordinates (Angstroms)
 Number     Number       Type             X           Y           Z
 ---------------------------------------------------------------------
      1          6           0        2.083694    2.300188    0.537616
      2          6           0        1.406867    1.561595   -0.438554
      3          6           0        1.818236    0.264639   -0.759846
      4          6           0        2.915298   -0.265063   -0.082232
      5          6           0        3.610233    0.445678    0.895113
      6          6           0        3.181282    1.740858    1.200166
      7          1           0        1.757303    3.307004    0.780896
      8          1           0        0.554142    1.993428   -0.954717
      9          1           0        1.312433   -0.329335   -1.511362
     10          1           0        4.456853   -0.011666    1.392596
     11          1           0        3.708819    2.312133    1.958713
     12          7           0        3.360103   -1.637152   -0.413774
     13          8           0        4.329503   -2.081134    0.197602
     14          8           0        2.730918   -2.242633   -1.278734
     15          6           0       -3.532786   -0.627828    0.371768
     16          6           0       -4.664114   -1.620459    0.102019
     17          6           0       -4.439741   -2.971522    0.781784
     18          1           0       -2.583825   -1.060509    0.026506
     19          1           0       -3.433426   -0.481673    1.456278
     20          1           0       -4.762222   -1.763642   -0.981720
     21          1           0       -5.610520   -1.185286    0.447789
     22          1           0       -4.363449   -2.848804    1.867012
     23          1           0       -3.510331   -3.430446    0.429381
     24          1           0       -5.260330   -3.665808    0.575727
     25          6           0       -3.742706    0.727479   -0.301138
     26          6           0       -2.611378    1.720111   -0.031388
     27          6           0       -2.835752    3.071173   -0.711153
     28          1           0       -3.842065    0.581324   -1.385647
     29          1           0       -4.691667    1.160160    0.044124
     30          1           0       -1.664972    1.284938   -0.377158
     31          1           0       -2.513270    1.863294    1.052352
     32          1           0       -3.765161    3.530097   -0.358750
     33          1           0       -2.912044    2.948456   -1.796381
     34          1           0       -2.015162    3.765459   -0.505096
 ---------------------------------------------------------------------

 SCF Done:  E(RHF) =  -669.535315039     A.U. after   15 cycles
 E2 =    -0.2091577893D+01 EUMP2 =    -0.67162689293209D+03

 The electronic state is 1-A.
 Alpha  occ. eigenvalues --  -20.60770 -20.60765 -15.85824 -11.31190 -11.27760
 Alpha  occ. eigenvalues --  -11.27756 -11.27492 -11.26774 -11.26739 -11.22369
 Alpha  occ. eigenvalues --  -11.21960 -11.21904 -11.21810 -11.21699 -11.21147
 Alpha  occ. eigenvalues --   -1.59845  -1.39399  -1.19362  -1.08903  -1.08752
 Alpha  occ. eigenvalues --   -1.04769  -1.04015  -0.96453  -0.95590  -0.87465
 Alpha  occ. eigenvalues --   -0.86164  -0.82428  -0.80102  -0.78669  -0.77469
 Alpha  occ. eigenvalues --   -0.72042  -0.71168  -0.70467  -0.65580  -0.65013
 Alpha  occ. eigenvalues --   -0.64763  -0.62172  -0.61365  -0.59860  -0.58052
 Alpha  occ. eigenvalues --   -0.55730  -0.55258  -0.53181  -0.53089  -0.52867
 Alpha  occ. eigenvalues --   -0.52855  -0.50381  -0.48805  -0.48797  -0.48391
 Alpha  occ. eigenvalues --   -0.47124  -0.46207  -0.46107  -0.44804  -0.44254
 Alpha  occ. eigenvalues --   -0.37332  -0.36347
 Alpha virt. eigenvalues --    0.05049   0.11240   0.16450   0.19877   0.22780
 Alpha virt. eigenvalues --    0.23813   0.25816   0.26540   0.26816   0.28392
 Alpha virt. eigenvalues --    0.28920   0.30528   0.31058   0.31244   0.31970

 Mulliken charges:
               1
     1  C   -0.171971
     2  C   -0.218354
     3  C   -0.172555
     4  C    0.158769
     5  C   -0.170867
     6  C   -0.218534
     7  H    0.225620
     8  H    0.228221
     9  H    0.275021
    10  H    0.275627
    11  H    0.223435
    12  N    0.488123
    13  O   -0.460359
    14  O   -0.460663
    15  C   -0.298826
    16  C   -0.300122
    17  C   -0.476472
    18  H    0.150927
    19  H    0.150361
    20  H    0.152640
    21  H    0.151810
    22  H    0.155286
    23  H    0.158361
    24  H    0.161266
    25  C   -0.298352
    26  C   -0.303526
    27  C   -0.477186
    28  H    0.150188
    29  H    0.151414
    30  H    0.146526
    31  H    0.154359
    32  H    0.160486
    33  H    0.156691
    34  H    0.152657
 Sum of Mulliken charges =  -0.00000

 Dipole moment (field-independent basis, Debye):
    X=             -1.6785    Y=              4.7785    Z=              1.2153  Tot=              5.2085
 Quadrupole moment (field-independent basis, Debye-Ang):
   XX=           -100.8222   YY=            -98.8825   ZZ=            -92.6192
   XY=             14.8906   XZ=              6.0276   YZ=              0.4033

 Normal termination of Gaussian 16 at Wed May  5 20:31:28 2021.
