 Gaussian 16, Revision A.03,
 Gaussian 16:  EM64L-G16RevA.03 25-Dec-2016

 -------------
 #p 6-31g* mp2
 -------------

 ------------------------------------------------------
 Input file generated by CHIRIPA (05-May-2021 14:55:25)
 ------------------------------------------------------
 Symbolic Z-matrix:
 Charge =  0 Multiplicity = 1

                         Standard orientation:
 ---------------------------------------------------------------------
 Center     Atomic      Atomic             Coordinates (Angstroms)
 Number     Number       Type             X           Y           Z
 ---------------------------------------------------------------------
      1          6           0        5.038101    0.644142    0.218528
      2          6           0        3.983373    1.282477    0.879284
      3          6           0        2.680139    0.785865    0.781790
      4          6           0        2.466594   -0.356264    0.011576
      5          6           0        3.496518   -1.014641   -0.658565
      6          6           0        4.791741   -0.500362   -0.546938
      7          1           0        6.047373    1.036784    0.299754
      8          1           0        4.171748    2.171484    1.474455
      9          1           0        1.845138    1.260289    1.282901
     10          1           0        3.277638   -1.899061   -1.244492
     11          1           0        5.608921   -0.998172   -1.061182
     12          7           0        1.091159   -0.891357   -0.099118
     13          8           0        0.929280   -1.899081   -0.783899
     14          8           0        0.201015   -0.292906    0.500997
     15          6           0       -3.461906   -0.383491   -0.273190
     16          6           0       -4.056670   -1.342687    0.758403
     17          6           0       -4.078844   -2.792625    0.273655
     18          1           0       -4.040939   -0.451488   -1.204341
     19          1           0       -2.439860   -0.705422   -0.516456
     20          1           0       -5.076793   -1.018241    1.000682
     21          1           0       -3.476271   -1.272259    1.687270
     22          1           0       -3.064835   -3.139632    0.050103
     23          1           0       -4.674451   -2.884170   -0.640385
     24          1           0       -4.507918   -3.461128    1.026556
     25          6           0       -3.432898    1.069763    0.196852
     26          6           0       -2.838134    2.028957   -0.834741
     27          6           0       -2.815961    3.478896   -0.349993
     28          1           0       -4.454943    1.391693    0.440118
     29          1           0       -2.853865    1.137758    1.128003
     30          1           0       -3.418533    1.958530   -1.763607
     31          1           0       -1.818010    1.704511   -1.077020
     32          1           0       -2.220352    3.570441    0.564048
     33          1           0       -3.829968    3.825902   -0.126440
     34          1           0       -2.386886    4.147398   -1.102894
 ---------------------------------------------------------------------

 SCF Done:  E(RHF) =  -669.536963751     A.U. after   15 cycles
 E2 =    -0.2091892581D+01 EUMP2 =    -0.67162885633268D+03

 The electronic state is 1-A.
 Alpha  occ. eigenvalues --  -20.61192 -20.61183 -15.86186 -11.31425 -11.27974
 Alpha  occ. eigenvalues --  -11.27970 -11.27696 -11.26961 -11.26951 -11.20419
 Alpha  occ. eigenvalues --  -11.20262 -11.20121 -11.19964 -11.19682 -11.19559
 Alpha  occ. eigenvalues --   -1.60228  -1.39787  -1.19582  -1.09004  -1.06966
 Alpha  occ. eigenvalues --   -1.04964  -1.02242  -0.95859  -0.94691  -0.86369
 Alpha  occ. eigenvalues --   -0.85722  -0.82695  -0.78318  -0.77760  -0.76751
 Alpha  occ. eigenvalues --   -0.72410  -0.71527  -0.70690  -0.65242  -0.64969
 Alpha  occ. eigenvalues --   -0.63548  -0.62311  -0.59632  -0.58100  -0.56316
 Alpha  occ. eigenvalues --   -0.55474  -0.53969  -0.53300  -0.53054  -0.51472
 Alpha  occ. eigenvalues --   -0.51143  -0.49236  -0.49165  -0.48572  -0.46651
 Alpha  occ. eigenvalues --   -0.45382  -0.45181  -0.44333  -0.44024  -0.42433
 Alpha  occ. eigenvalues --   -0.37555  -0.36560
 Alpha virt. eigenvalues --    0.04743   0.11096   0.16244   0.21203   0.24234
 Alpha virt. eigenvalues --    0.25519   0.27162   0.27773   0.28419   0.28982
 Alpha virt. eigenvalues --    0.29260   0.30887   0.32219   0.32680   0.32886

 Mulliken charges:
               1
     1  C   -0.170262
     2  C   -0.218533
     3  C   -0.170492
     4  C    0.157911
     5  C   -0.170486
     6  C   -0.218607
     7  H    0.226539
     8  H    0.224414
     9  H    0.275862
    10  H    0.276145
    11  H    0.224307
    12  N    0.489394
    13  O   -0.458157
    14  O   -0.460655
    15  C   -0.307148
    16  C   -0.297519
    17  C   -0.477312
    18  H    0.140245
    19  H    0.178571
    20  H    0.143956
    21  H    0.153397
    22  H    0.164764
    23  H    0.150441
    24  H    0.153624
    25  C   -0.294450
    26  C   -0.300616
    27  C   -0.474637
    28  H    0.141405
    29  H    0.152831
    30  H    0.147490
    31  H    0.158459
    32  H    0.151680
    33  H    0.152703
    34  H    0.154736
 Sum of Mulliken charges =  -0.00000

 Dipole moment (field-independent basis, Debye):
    X=              5.3581    Y=              1.7274    Z=              0.3949  Tot=              5.6435
 Quadrupole moment (field-independent basis, Debye-Ang):
   XX=            -71.5997   YY=            -95.7203   ZZ=            -93.6367
   XY=              1.5869   XZ=              0.2408   YZ=              2.3985

 Normal termination of Gaussian 16 at Thu May  6 11:07:35 2021.
