 Gaussian 16, Revision A.03,
 Gaussian 16:  EM64L-G16RevA.03 25-Dec-2016

 -------------
 #p 6-31g* mp2
 -------------

 ------------------------------------------------------
 Input file generated by CHIRIPA (05-May-2021 14:53:17)
 ------------------------------------------------------
 Symbolic Z-matrix:
 Charge =  0 Multiplicity = 1

                         Standard orientation:
 ---------------------------------------------------------------------
 Center     Atomic      Atomic             Coordinates (Angstroms)
 Number     Number       Type             X           Y           Z
 ---------------------------------------------------------------------
      1          6           0        3.045241    0.729856   -0.591462
      2          6           0        3.679154    1.736915    0.368732
      3          6           0        3.765258    3.144230   -0.222745
      4          1           0        3.628468    0.702955   -1.522090
      5          1           0        2.038623    1.076546   -0.863346
      6          1           0        4.683745    1.387728    0.639809
      7          1           0        3.094461    1.761282    1.297256
      8          1           0        2.767722    3.517028   -0.476800
      9          1           0        4.366035    3.141352   -1.137982
     10          1           0        4.221539    3.847999    0.480375
     11          6           0        2.952193   -0.681566   -0.014439
     12          6           0        2.318280   -1.688625   -0.974633
     13          6           0        2.232176   -3.095940   -0.383157
     14          1           0        3.958811   -1.028256    0.257444
     15          1           0        2.368966   -0.654665    0.916189
     16          1           0        2.902972   -1.712992   -1.903157
     17          1           0        1.313689   -1.339438   -1.245710
     18          1           0        1.631399   -3.093062    0.532081
     19          1           0        3.229712   -3.468738   -0.129102
     20          1           0        1.775895   -3.799709   -1.086276
     21          6           0       -4.094385    1.479592   -0.789147
     22          6           0       -3.978402    0.149977   -1.207709
     23          6           0       -3.011513   -0.689351   -0.646281
     24          6           0       -2.173406   -0.163728    0.335854
     25          6           0       -2.264200    1.156531    0.773987
     26          6           0       -3.238423    1.977747    0.198624
     27          1           0       -4.848337    2.124567   -1.230691
     28          1           0       -4.641794   -0.239606   -1.974639
     29          1           0       -2.899874   -1.722636   -0.951691
     30          1           0       -1.588564    1.516335    1.540455
     31          1           0       -3.326207    3.009929    0.525637
     32          7           0       -1.145921   -1.042699    0.937588
     33          8           0       -0.419651   -0.555520    1.801199
     34          8           0       -1.086304   -2.202174    0.534223
 ---------------------------------------------------------------------

 SCF Done:  E(RHF) =  -669.536728955     A.U. after   15 cycles
 E2 =    -0.2093209561D+01 EUMP2 =    -0.67162993851554D+03

 The electronic state is 1-A.
 Alpha  occ. eigenvalues --  -20.61197 -20.61182 -15.86171 -11.31417 -11.27965
 Alpha  occ. eigenvalues --  -11.27958 -11.27685 -11.26949 -11.26939 -11.20916
 Alpha  occ. eigenvalues --  -11.20639 -11.20541 -11.20311 -11.20018 -11.19331
 Alpha  occ. eigenvalues --   -1.60223  -1.39781  -1.19572  -1.08994  -1.07397
 Alpha  occ. eigenvalues --   -1.04953  -1.02478  -0.95849  -0.94912  -0.86358
 Alpha  occ. eigenvalues --   -0.85932  -0.82685  -0.78610  -0.77750  -0.77149
 Alpha  occ. eigenvalues --   -0.72395  -0.71547  -0.70679  -0.65228  -0.64958
 Alpha  occ. eigenvalues --   -0.64008  -0.62300  -0.59860  -0.58370  -0.56522
 Alpha  occ. eigenvalues --   -0.55462  -0.54205  -0.53285  -0.53042  -0.51643
 Alpha  occ. eigenvalues --   -0.51346  -0.49293  -0.49176  -0.48698  -0.46901
 Alpha  occ. eigenvalues --   -0.45641  -0.45286  -0.44715  -0.44358  -0.42725
 Alpha  occ. eigenvalues --   -0.37542  -0.36548
 Alpha virt. eigenvalues --    0.04730   0.11101   0.16202   0.21215   0.23722
 Alpha virt. eigenvalues --    0.25379   0.27168   0.27387   0.28209   0.28691
 Alpha virt. eigenvalues --    0.29073   0.30909   0.32050   0.32567   0.32614

 Mulliken charges:
               1
     1  C   -0.295074
     2  C   -0.299758
     3  C   -0.474578
     4  H    0.145578
     5  H    0.142749
     6  H    0.151295
     7  H    0.154810
     8  H    0.150694
     9  H    0.153944
    10  H    0.157905
    11  C   -0.308882
    12  C   -0.295041
    13  C   -0.478094
    14  H    0.144550
    15  H    0.172707
    16  H    0.143585
    17  H    0.144580
    18  H    0.180648
    19  H    0.144943
    20  H    0.153362
    21  C   -0.170190
    22  C   -0.218527
    23  C   -0.170540
    24  C    0.158028
    25  C   -0.170710
    26  C   -0.218557
    27  H    0.226574
    28  H    0.224398
    29  H    0.276404
    30  H    0.275913
    31  H    0.224383
    32  N    0.488625
    33  O   -0.459510
    34  O   -0.456212
 Sum of Mulliken charges =  -0.00000

 Dipole moment (field-independent basis, Debye):
    X=             -4.0014    Y=              3.0029    Z=             -1.8795  Tot=              5.3442
 Quadrupole moment (field-independent basis, Debye-Ang):
   XX=            -79.0392   YY=            -94.6592   ZZ=            -95.1332
   XY=             -5.3592   XZ=              4.9070   YZ=              4.0055

 Normal termination of Gaussian 16 at Thu May  6 09:07:55 2021.
