 Gaussian 16, Revision A.03,
 Gaussian 16:  EM64L-G16RevA.03 25-Dec-2016

 -------------
 #p 6-31g* mp2
 -------------

 ------------------------------------------------------
 Input file generated by CHIRIPA (05-May-2021 14:57:25)
 ------------------------------------------------------
 Symbolic Z-matrix:
 Charge =  0 Multiplicity = 1

                         Standard orientation:
 ---------------------------------------------------------------------
 Center     Atomic      Atomic             Coordinates (Angstroms)
 Number     Number       Type             X           Y           Z
 ---------------------------------------------------------------------
      1          6           0        2.145910    2.310466   -0.204778
      2          6           0        3.258573    1.940973    0.558095
      3          6           0        3.667833    0.605427    0.616149
      4          6           0        2.938048   -0.338820   -0.104338
      5          6           0        1.825219   -0.001988   -0.873393
      6          6           0        1.434039    1.339518   -0.916832
      7          1           0        1.835009    3.350265   -0.244200
      8          1           0        3.813320    2.692884    1.112107
      9          1           0        4.525466    0.291756    1.198811
     10          1           0        1.292229   -0.774075   -1.414892
     11          1           0        0.569536    1.623576   -1.510121
     12          7           0        3.361743   -1.755858   -0.050614
     13          8           0        2.701909   -2.568707   -0.694456
     14          8           0        4.345647   -2.026851    0.634318
     15          6           0       -1.760416    2.371789    0.073057
     16          6           0       -1.945766    1.704666    1.288422
     17          6           0       -2.558375    0.448446    1.322593
     18          6           0       -2.975316   -0.113843    0.117072
     19          6           0       -2.804785    0.525811   -1.109733
     20          6           0       -2.189759    1.781274   -1.120039
     21          1           0       -1.283588    3.347357    0.055781
     22          1           0       -1.613334    2.160858    2.216550
     23          1           0       -2.714343   -0.090092    2.249453
     24          1           0       -3.146719    0.045663   -2.018554
     25          1           0       -2.047121    2.297057   -2.065379
     26          7           0       -3.625137   -1.443346    0.140614
     27          8           0       -3.983556   -1.917283   -0.935282
     28          8           0       -3.763742   -1.986300    1.234519
 ---------------------------------------------------------------------

 SCF Done:  E(RHF) =  -868.334584167     A.U. after   16 cycles
 E2 =    -0.2603297401D+01 EUMP2 =    -0.87093788156743D+03

 The electronic state is 1-A.
 Alpha  occ. eigenvalues --  -20.61175 -20.61166 -20.60930 -20.60916 -15.86239
 Alpha  occ. eigenvalues --  -15.85980 -11.31859 -11.31491 -11.28517 -11.28437
 Alpha  occ. eigenvalues --  -11.28348 -11.28043 -11.28003 -11.27905 -11.27599
 Alpha  occ. eigenvalues --  -11.27488 -11.27166 -11.27056  -1.60243  -1.59997
 Alpha  occ. eigenvalues --   -1.39790  -1.39546  -1.20093  -1.19667  -1.09473
 Alpha  occ. eigenvalues --   -1.09058  -1.05531  -1.05077  -0.96243  -0.95871
 Alpha  occ. eigenvalues --   -0.86950  -0.86481  -0.83056  -0.82693  -0.78041
 Alpha  occ. eigenvalues --   -0.77702  -0.72455  -0.72198  -0.71571  -0.71323
 Alpha  occ. eigenvalues --   -0.71274  -0.70809  -0.65771  -0.65588  -0.65326
 Alpha  occ. eigenvalues --   -0.65078  -0.62861  -0.62436  -0.56112  -0.55663
 Alpha  occ. eigenvalues --   -0.54137  -0.53620  -0.53343  -0.52936  -0.49232
 Alpha  occ. eigenvalues --   -0.49190  -0.48968  -0.48943  -0.45139  -0.44919
 Alpha  occ. eigenvalues --   -0.38431  -0.37477  -0.37122  -0.36491
 Alpha virt. eigenvalues --    0.04439   0.04835   0.10333   0.10973   0.15890
 Alpha virt. eigenvalues --    0.16234   0.19248   0.21989   0.25661   0.25915
 Alpha virt. eigenvalues --    0.27796   0.29184   0.29876   0.31614   0.32200

 Mulliken charges:
               1
     1  C   -0.177416
     2  C   -0.217977
     3  C   -0.171949
     4  C    0.159654
     5  C   -0.174511
     6  C   -0.209920
     7  H    0.217206
     8  H    0.222824
     9  H    0.276436
    10  H    0.277658
    11  H    0.222025
    12  N    0.487805
    13  O   -0.457298
    14  O   -0.459919
    15  C   -0.168483
    16  C   -0.214590
    17  C   -0.168041
    18  C    0.159485
    19  C   -0.171486
    20  C   -0.231352
    21  H    0.220717
    22  H    0.225583
    23  H    0.279721
    24  H    0.278452
    25  H    0.222041
    26  N    0.488297
    27  O   -0.458317
    28  O   -0.456647
 Sum of Mulliken charges =  -0.00000

 Dipole moment (field-independent basis, Debye):
    X=              0.6102    Y=              9.3774    Z=             -0.1145  Tot=              9.3979
 Quadrupole moment (field-independent basis, Debye-Ang):
   XX=           -124.9772   YY=           -110.7249   ZZ=            -98.4096
   XY=              2.0438   XZ=              3.1049   YZ=              1.0432

 Normal termination of Gaussian 16 at Thu May  6 13:06:47 2021.
