 Gaussian 16, Revision A.03,
 Gaussian 16:  EM64L-G16RevA.03 25-Dec-2016

 -------------
 #p 6-31g* mp2
 -------------

 ------------------------------------------------------
 Input file generated by CHIRIPA (05-May-2021 14:57:22)
 ------------------------------------------------------
 Symbolic Z-matrix:
 Charge =  0 Multiplicity = 1

                         Standard orientation:
 ---------------------------------------------------------------------
 Center     Atomic      Atomic             Coordinates (Angstroms)
 Number     Number       Type             X           Y           Z
 ---------------------------------------------------------------------
      1          6           0        1.304170    1.113994   -0.054182
      2          6           0        1.427121   -0.274959   -0.164694
      3          6           0        2.688988   -0.872653   -0.235408
      4          6           0        3.811759   -0.047517   -0.192663
      5          6           0        3.721969    1.339275   -0.082954
      6          6           0        2.449966    1.915266   -0.013736
      7          1           0        0.319984    1.569868    0.000169
      8          1           0        0.539020   -0.899716   -0.196332
      9          1           0        2.813035   -1.945337   -0.321314
     10          1           0        4.625608    1.935936   -0.053802
     11          1           0        2.357506    2.994217    0.072052
     12          7           0        5.153006   -0.668781   -0.266733
     13          8           0        6.126688    0.080223   -0.227060
     14          8           0        5.205198   -1.892968   -0.363059
     15          6           0       -2.200206    0.092949    2.280594
     16          6           0       -2.943306   -1.061459    2.012885
     17          6           0       -3.717301   -1.154398    0.852350
     18          6           0       -3.725134   -0.069166   -0.022579
     19          6           0       -2.995577    1.094458    0.216206
     20          6           0       -2.228663    1.165332    1.382984
     21          1           0       -1.601698    0.156576    3.184550
     22          1           0       -2.923103   -1.895838    2.708188
     23          1           0       -4.302125   -2.036225    0.620444
     24          1           0       -3.035715    1.909846   -0.495798
     25          1           0       -1.652563    2.063104    1.588306
     26          7           0       -4.540780   -0.155877   -1.254489
     27          8           0       -4.530795    0.814029   -2.009353
     28          8           0       -5.174623   -1.192104   -1.441869
 ---------------------------------------------------------------------

 SCF Done:  E(RHF) =  -868.337147853     A.U. after   16 cycles
 E2 =    -0.2600974172D+01 EUMP2 =    -0.87093812202521D+03

 The electronic state is 1-A.
 Alpha  occ. eigenvalues --  -20.61619 -20.61611 -20.61020 -20.61015 -15.86682
 Alpha  occ. eigenvalues --  -15.86075 -11.32256 -11.31495 -11.28918 -11.28821
 Alpha  occ. eigenvalues --  -11.28610 -11.28069 -11.28047 -11.27972 -11.27827
 Alpha  occ. eigenvalues --  -11.27797 -11.27120 -11.27053  -1.60691  -1.60094
 Alpha  occ. eigenvalues --   -1.40238  -1.39646  -1.20472  -1.19670  -1.09806
 Alpha  occ. eigenvalues --   -1.09060  -1.05911  -1.05076  -0.96596  -0.95889
 Alpha  occ. eigenvalues --   -0.87273  -0.86469  -0.83441  -0.82712  -0.78456
 Alpha  occ. eigenvalues --   -0.77747  -0.72889  -0.72290  -0.72025  -0.71509
 Alpha  occ. eigenvalues --   -0.71419  -0.70827  -0.66101  -0.65886  -0.65319
 Alpha  occ. eigenvalues --   -0.65075  -0.63231  -0.62417  -0.56342  -0.55678
 Alpha  occ. eigenvalues --   -0.54175  -0.53937  -0.53405  -0.53153  -0.49666
 Alpha  occ. eigenvalues --   -0.49635  -0.49054  -0.49043  -0.45597  -0.45039
 Alpha  occ. eigenvalues --   -0.38475  -0.37683  -0.37472  -0.36679
 Alpha virt. eigenvalues --    0.04065   0.04765   0.10070   0.10978   0.15364
 Alpha virt. eigenvalues --    0.16241   0.19612   0.21656   0.25363   0.26938
 Alpha virt. eigenvalues --    0.27363   0.28790   0.29894   0.31491   0.31978

 Mulliken charges:
               1
     1  C   -0.173503
     2  C   -0.221587
     3  C   -0.171275
     4  C    0.158748
     5  C   -0.170621
     6  C   -0.219594
     7  H    0.222078
     8  H    0.226802
     9  H    0.276238
    10  H    0.276214
    11  H    0.222075
    12  N    0.487976
    13  O   -0.459808
    14  O   -0.459716
    15  C   -0.171265
    16  C   -0.220772
    17  C   -0.170196
    18  C    0.158523
    19  C   -0.174314
    20  C   -0.226876
    21  H    0.231162
    22  H    0.228399
    23  H    0.279644
    24  H    0.277213
    25  H    0.221948
    26  N    0.488058
    27  O   -0.458563
    28  O   -0.456989
 Sum of Mulliken charges =  -0.00000

 Dipole moment (field-independent basis, Debye):
    X=             -2.0845    Y=              2.3156    Z=              4.6545  Tot=              5.6010
 Quadrupole moment (field-independent basis, Debye-Ang):
   XX=           -161.1822   YY=            -96.9545   ZZ=           -105.8728
   XY=             11.3032   XZ=            -14.8715   YZ=             -1.9411

 Normal termination of Gaussian 16 at Fri May  7 00:15:15 2021.
