 Gaussian 16, Revision A.03,
 Gaussian 16:  EM64L-G16RevA.03 25-Dec-2016

 -------------
 #p 6-31g* mp2
 -------------

 ------------------------------------------------------
 Input file generated by CHIRIPA (05-May-2021 14:51:10)
 ------------------------------------------------------
 Symbolic Z-matrix:
 Charge =  0 Multiplicity = 1

                         Standard orientation:
 ---------------------------------------------------------------------
 Center     Atomic      Atomic             Coordinates (Angstroms)
 Number     Number       Type             X           Y           Z
 ---------------------------------------------------------------------
      1          6           0        4.457926    0.069286    0.078531
      2          6           0        5.697861   -0.465430   -0.638843
      3          6           0        6.836384    0.553819   -0.690718
      4          1           0        4.113164    0.980751   -0.428733
      5          1           0        4.733139    0.365297    1.100309
      6          1           0        5.420096   -0.761633   -1.658512
      7          1           0        6.039599   -1.375834   -0.129927
      8          1           0        7.141724    0.842103    0.320352
      9          1           0        6.518700    1.459794   -1.216919
     10          1           0        7.712762    0.150808   -1.207829
     11          6           0        3.311107   -0.938154    0.138513
     12          6           0        2.071172   -0.403437    0.855887
     13          6           0        0.932649   -1.422686    0.907762
     14          1           0        3.035894   -1.234164   -0.883265
     15          1           0        3.655869   -1.849618    0.645777
     16          1           0        1.729434    0.506967    0.346971
     17          1           0        2.348938   -0.107234    1.875556
     18          1           0        1.250333   -2.328661    1.433963
     19          1           0        0.627310   -1.710970   -0.103308
     20          1           0        0.056271   -1.019676    1.424873
     21          6           0       -4.554072    0.179267    0.156086
     22          6           0       -5.311412   -0.690078   -0.848236
     23          6           0       -6.648956   -1.192985   -0.304310
     24          1           0       -4.384099   -0.397356    1.075629
     25          1           0       -5.182550    1.036018    0.436067
     26          1           0       -4.681148   -1.544192   -1.127292
     27          1           0       -5.479434   -0.111382   -1.765566
     28          1           0       -7.299363   -0.351929   -0.043163
     29          1           0       -6.496541   -1.792880    0.598738
     30          1           0       -7.173577   -1.812336   -1.038502
     31          6           0       -3.214961    0.689600   -0.373129
     32          6           0       -2.457621    1.558946    0.631192
     33          6           0       -1.120077    2.061852    0.087267
     34          1           0       -2.586483   -0.167150   -0.653112
     35          1           0       -3.384935    1.266223   -1.292673
     36          1           0       -2.289599    0.980249    1.548522
     37          1           0       -3.087886    2.413059    0.910248
     38          1           0       -1.272492    2.661747   -0.815782
     39          1           0       -0.469670    1.220797   -0.173880
     40          1           0       -0.595457    2.681204    0.821458
 ---------------------------------------------------------------------

 SCF Done:  E(RHF) =  -470.733014286     A.U. after   11 cycles
 E2 =    -0.1583139607D+01 EUMP2 =    -0.47231615389256D+03

 The electronic state is 1-A.
 Alpha  occ. eigenvalues --  -11.21598 -11.21595 -11.21587 -11.21576 -11.21398
 Alpha  occ. eigenvalues --  -11.21388 -11.21339 -11.21329 -11.21127 -11.21064
 Alpha  occ. eigenvalues --  -11.21058 -11.21020  -1.08440  -1.08405  -1.03578
 Alpha  occ. eigenvalues --   -1.03479  -0.96034  -0.95926  -0.87009  -0.86985
 Alpha  occ. eigenvalues --   -0.79652  -0.79533  -0.78257  -0.78210  -0.65148
 Alpha  occ. eigenvalues --   -0.64984  -0.61168  -0.60761  -0.59340  -0.59327
 Alpha  occ. eigenvalues --   -0.57640  -0.57544  -0.55412  -0.55095  -0.52684
 Alpha  occ. eigenvalues --   -0.52662  -0.52424  -0.52373  -0.49987  -0.49868
 Alpha  occ. eigenvalues --   -0.47948  -0.47875  -0.46758  -0.46479  -0.45826
 Alpha  occ. eigenvalues --   -0.45757  -0.45715  -0.45580  -0.43804  -0.43750
 Alpha virt. eigenvalues --    0.20615   0.23030   0.23630   0.25193   0.26303
 Alpha virt. eigenvalues --    0.26425   0.26992   0.27370   0.28180   0.29153
 Alpha virt. eigenvalues --    0.30348   0.31028   0.31560   0.31880   0.32400

 Mulliken charges:
               1
     1  C   -0.298426
     2  C   -0.299643
     3  C   -0.475721
     4  H    0.150063
     5  H    0.149517
     6  H    0.151920
     7  H    0.151879
     8  H    0.155163
     9  H    0.155264
    10  H    0.160217
    11  C   -0.297780
    12  C   -0.305095
    13  C   -0.478938
    14  H    0.149279
    15  H    0.149454
    16  H    0.157731
    17  H    0.152023
    18  H    0.155956
    19  H    0.154575
    20  H    0.162030
    21  C   -0.298250
    22  C   -0.299684
    23  C   -0.475706
    24  H    0.149674
    25  H    0.149435
    26  H    0.152102
    27  H    0.151821
    28  H    0.155119
    29  H    0.155243
    30  H    0.160209
    31  C   -0.299270
    32  C   -0.299761
    33  C   -0.482897
    34  H    0.150620
    35  H    0.149468
    36  H    0.151813
    37  H    0.151928
    38  H    0.154609
    39  H    0.163894
    40  H    0.160163
 Sum of Mulliken charges =  -0.00000

 Dipole moment (field-independent basis, Debye):
    X=              0.0135    Y=              0.0022    Z=             -0.0010  Tot=              0.0137
 Quadrupole moment (field-independent basis, Debye-Ang):
   XX=            -86.3299   YY=            -84.5959   ZZ=            -83.9328
   XY=             -1.4767   XZ=              0.8663   YZ=             -0.4641

 Normal termination of Gaussian 16 at Wed May  5 15:09:58 2021.
