 Gaussian 16, Revision A.03,
 Gaussian 16:  EM64L-G16RevA.03 25-Dec-2016

 -------------
 #p 6-31g* mp2
 -------------

 ------------------------------------------------------
 Input file generated by CHIRIPA (05-May-2021 14:57:22)
 ------------------------------------------------------
 Symbolic Z-matrix:
 Charge =  0 Multiplicity = 1

                         Standard orientation:
 ---------------------------------------------------------------------
 Center     Atomic      Atomic             Coordinates (Angstroms)
 Number     Number       Type             X           Y           Z
 ---------------------------------------------------------------------
      1          6           0       -2.661766   -2.445380    0.580769
      2          6           0       -3.789159   -1.876098   -0.020416
      3          6           0       -3.803348   -0.520523   -0.362125
      4          6           0       -2.667769    0.239806   -0.087082
      5          6           0       -1.529287   -0.298302    0.510905
      6          6           0       -1.537411   -1.656057    0.844047
      7          1           0       -2.659410   -3.499270    0.842890
      8          1           0       -4.663768   -2.486683   -0.226059
      9          1           0       -4.662697   -0.054144   -0.828416
     10          1           0       -0.672399    0.335788    0.703490
     11          1           0       -0.660454   -2.095480    1.310844
     12          7           0       -2.670980    1.676047   -0.444299
     13          8           0       -1.657899    2.324430   -0.191510
     14          8           0       -3.686517    2.126193   -0.970312
     15          6           0        2.457433    2.359772    0.887719
     16          6           0        3.086350    2.113729   -0.337208
     17          6           0        3.208257    0.808557   -0.823226
     18          6           0        2.687523   -0.231531   -0.054886
     19          6           0        2.055528   -0.018578    1.169256
     20          6           0        1.944932    1.294710    1.635723
     21          1           0        2.367125    3.376813    1.257675
     22          1           0        3.485300    2.938922   -0.920252
     23          1           0        3.690389    0.589680   -1.768244
     24          1           0        1.667694   -0.861694    1.727966
     25          1           0        1.456008    1.482813    2.587361
     26          7           0        2.810594   -1.617553   -0.559062
     27          8           0        2.343503   -2.516544    0.136840
     28          8           0        3.371817   -1.778683   -1.640591
 ---------------------------------------------------------------------

 SCF Done:  E(RHF) =  -868.338364269     A.U. after   16 cycles
 E2 =    -0.2602405647D+01 EUMP2 =    -0.87094076991685D+03

 The electronic state is 1-A.
 Alpha  occ. eigenvalues --  -20.61296 -20.61248 -20.60839 -20.60815 -15.86314
 Alpha  occ. eigenvalues --  -15.85873 -11.31556 -11.31039 -11.28197 -11.28020
 Alpha  occ. eigenvalues --  -11.27681 -11.27604 -11.27487 -11.27268 -11.27078
 Alpha  occ. eigenvalues --  -11.26947 -11.26577 -11.26505  -1.60337  -1.59906
 Alpha  occ. eigenvalues --   -1.39901  -1.39465  -1.19701  -1.19193  -1.09064
 Alpha  occ. eigenvalues --   -1.08618  -1.05128  -1.04561  -0.95947  -0.95489
 Alpha  occ. eigenvalues --   -0.86472  -0.85973  -0.82802  -0.82340  -0.77936
 Alpha  occ. eigenvalues --   -0.77388  -0.72537  -0.72107  -0.71651  -0.71223
 Alpha  occ. eigenvalues --   -0.70765  -0.70288  -0.65346  -0.65092  -0.64834
 Alpha  occ. eigenvalues --   -0.64556  -0.62558  -0.61851  -0.55485  -0.55086
 Alpha  occ. eigenvalues --   -0.53483  -0.53160  -0.52907  -0.52494  -0.49310
 Alpha  occ. eigenvalues --   -0.49265  -0.48863  -0.48836  -0.45329  -0.44916
 Alpha  occ. eigenvalues --   -0.37565  -0.37149  -0.36679  -0.36154
 Alpha virt. eigenvalues --    0.04603   0.05094   0.10862   0.11520   0.16121
 Alpha virt. eigenvalues --    0.16661   0.20189   0.22303   0.25461   0.27518
 Alpha virt. eigenvalues --    0.28631   0.29729   0.29918   0.31507   0.32530

 Mulliken charges:
               1
     1  C   -0.169802
     2  C   -0.219134
     3  C   -0.170511
     4  C    0.156519
     5  C   -0.182273
     6  C   -0.225341
     7  H    0.228646
     8  H    0.223360
     9  H    0.274465
    10  H    0.282592
    11  H    0.231596
    12  N    0.487752
    13  O   -0.465745
    14  O   -0.460417
    15  C   -0.160231
    16  C   -0.215436
    17  C   -0.169032
    18  C    0.163626
    19  C   -0.190076
    20  C   -0.219696
    21  H    0.232529
    22  H    0.227776
    23  H    0.277287
    24  H    0.270165
    25  H    0.226828
    26  N    0.489583
    27  O   -0.469381
    28  O   -0.455646
 Sum of Mulliken charges =  -0.00000

 Dipole moment (field-independent basis, Debye):
    X=             -0.1449    Y=              0.0355    Z=              2.9101  Tot=              2.9139
 Quadrupole moment (field-independent basis, Debye-Ang):
   XX=           -101.9282   YY=           -109.2547   ZZ=           -102.1986
   XY=             29.5080   XZ=              0.8963   YZ=             -1.1299

 Normal termination of Gaussian 16 at Thu May  6 08:09:10 2021.
