 Gaussian 16, Revision A.03,
 Gaussian 16:  EM64L-G16RevA.03 25-Dec-2016

 -------------
 #p 6-31g* mp2
 -------------

 ------------------------------------------------------
 Input file generated by CHIRIPA (05-May-2021 14:53:14)
 ------------------------------------------------------
 Symbolic Z-matrix:
 Charge =  0 Multiplicity = 1

                         Standard orientation:
 ---------------------------------------------------------------------
 Center     Atomic      Atomic             Coordinates (Angstroms)
 Number     Number       Type             X           Y           Z
 ---------------------------------------------------------------------
      1          6           0        3.969815    0.824946   -0.250476
      2          6           0        2.498156    1.202126   -0.077440
      3          6           0        2.241474    2.694408   -0.289578
      4          1           0        4.576515    1.406975    0.456702
      5          1           0        4.299502    1.115102   -1.257706
      6          1           0        2.170965    0.910089    0.928679
      7          1           0        1.894868    0.618991   -0.784981
      8          1           0        2.540835    2.997231   -1.298181
      9          1           0        2.818501    3.289983    0.425216
     10          1           0        1.183139    2.941968   -0.161117
     11          6           0        4.242309   -0.663614   -0.041519
     12          6           0        5.713968   -1.040793   -0.214555
     13          6           0        5.970650   -2.533075   -0.002417
     14          1           0        3.912622   -0.953769    0.965711
     15          1           0        3.635608   -1.245643   -0.748698
     16          1           0        6.317256   -0.457659    0.492986
     17          1           0        6.041159   -0.748757   -1.220675
     18          1           0        5.393622   -3.128651   -0.717211
     19          1           0        5.671288   -2.835899    1.006186
     20          1           0        7.028984   -2.780636   -0.130879
     21          6           0       -1.505732    1.661324    0.817848
     22          6           0       -1.762837    0.556720    1.636546
     23          6           0       -2.703830   -0.404919    1.256636
     24          6           0       -3.372417   -0.229724    0.046021
     25          6           0       -3.138356    0.859899   -0.791373
     26          6           0       -2.193099    1.809128   -0.391368
     27          1           0       -0.773090    2.403528    1.120776
     28          1           0       -1.230522    0.439351    2.576179
     29          1           0       -2.922372   -1.269703    1.871295
     30          1           0       -3.684837    0.949675   -1.722349
     31          1           0       -1.995473    2.665968   -1.029187
     32          7           0       -4.370860   -1.241198   -0.366810
     33          8           0       -4.946511   -1.063867   -1.438172
     34          8           0       -4.558884   -2.192172    0.388793
 ---------------------------------------------------------------------

 SCF Done:  E(RHF) =  -669.535381143     A.U. after   15 cycles
 E2 =    -0.2091466039D+01 EUMP2 =    -0.67162684718215D+03

 The electronic state is 1-A.
 Alpha  occ. eigenvalues --  -20.60758 -20.60753 -15.85813 -11.31180 -11.27750
 Alpha  occ. eigenvalues --  -11.27746 -11.27475 -11.26767 -11.26756 -11.22381
 Alpha  occ. eigenvalues --  -11.22087 -11.21989 -11.21974 -11.21834 -11.21363
 Alpha  occ. eigenvalues --   -1.59834  -1.39388  -1.19353  -1.09001  -1.08746
 Alpha  occ. eigenvalues --   -1.04756  -1.04133  -0.96598  -0.95579  -0.87612
 Alpha  occ. eigenvalues --   -0.86153  -0.82415  -0.80194  -0.78774  -0.77460
 Alpha  occ. eigenvalues --   -0.72030  -0.71157  -0.70492  -0.65624  -0.65006
 Alpha  occ. eigenvalues --   -0.64767  -0.62105  -0.61519  -0.60035  -0.58219
 Alpha  occ. eigenvalues --   -0.55867  -0.55261  -0.53313  -0.53096  -0.52932
 Alpha  occ. eigenvalues --   -0.52848  -0.50515  -0.48790  -0.48785  -0.48509
 Alpha  occ. eigenvalues --   -0.47216  -0.46323  -0.46227  -0.44793  -0.44384
 Alpha  occ. eigenvalues --   -0.37312  -0.36358
 Alpha virt. eigenvalues --    0.05050   0.11251   0.16467   0.19955   0.22582
 Alpha virt. eigenvalues --    0.24028   0.25938   0.26278   0.26773   0.27458
 Alpha virt. eigenvalues --    0.28769   0.30503   0.31008   0.31229   0.31796

 Mulliken charges:
               1
     1  C   -0.298991
     2  C   -0.299179
     3  C   -0.477788
     4  H    0.149931
     5  H    0.151354
     6  H    0.147154
     7  H    0.157034
     8  H    0.159905
     9  H    0.157201
    10  H    0.148172
    11  C   -0.298661
    12  C   -0.300111
    13  C   -0.476052
    14  H    0.148828
    15  H    0.151806
    16  H    0.151963
    17  H    0.152796
    18  H    0.156517
    19  H    0.155258
    20  H    0.161436
    21  C   -0.170145
    22  C   -0.219201
    23  C   -0.170944
    24  C    0.158452
    25  C   -0.171071
    26  C   -0.219821
    27  H    0.228912
    28  H    0.223407
    29  H    0.275554
    30  H    0.275580
    31  H    0.223560
    32  N    0.488073
    33  O   -0.460499
    34  O   -0.460429
 Sum of Mulliken charges =  -0.00000

 Dipole moment (field-independent basis, Debye):
    X=              3.6562    Y=              3.4969    Z=              1.4080  Tot=              5.2515
 Quadrupole moment (field-independent basis, Debye-Ang):
   XX=           -118.7316   YY=            -96.8016   ZZ=            -90.3200
   XY=            -13.1300   XZ=             -3.9359   YZ=             -2.4331

 Normal termination of Gaussian 16 at Thu May  6 07:24:26 2021.
