 Gaussian 16, Revision A.03,
 Gaussian 16:  EM64L-G16RevA.03 25-Dec-2016

 -------------
 #p 6-31g* mp2
 -------------

 ------------------------------------------------------
 Input file generated by CHIRIPA (05-May-2021 14:57:21)
 ------------------------------------------------------
 Symbolic Z-matrix:
 Charge =  0 Multiplicity = 1

                         Standard orientation:
 ---------------------------------------------------------------------
 Center     Atomic      Atomic             Coordinates (Angstroms)
 Number     Number       Type             X           Y           Z
 ---------------------------------------------------------------------
      1          6           0       -5.644892    0.771245    0.889275
      2          6           0       -5.587088    0.230574   -0.399466
      3          6           0       -4.398437   -0.322891   -0.884576
      4          6           0       -3.281654   -0.319009   -0.050268
      5          6           0       -3.307629    0.212071    1.238363
      6          6           0       -4.506984    0.760287    1.702643
      7          1           0       -6.572422    1.199151    1.258030
      8          1           0       -6.469235    0.237715   -1.033351
      9          1           0       -4.325791   -0.748169   -1.878196
     10          1           0       -2.411749    0.190530    1.846929
     11          1           0       -4.548951    1.179476    2.703924
     12          7           0       -2.017616   -0.902160   -0.552806
     13          8           0       -1.047670   -0.886564    0.201911
     14          8           0       -2.020745   -1.363787   -1.691897
     15          6           0        4.294548   -2.046366    0.721786
     16          6           0        4.990508   -0.894540    1.103175
     17          6           0        4.553820    0.368001    0.691057
     18          6           0        3.412200    0.442284   -0.105484
     19          6           0        2.697246   -0.686836   -0.501993
     20          6           0        3.152151   -1.939027   -0.078170
     21          1           0        4.640854   -3.023118    1.046476
     22          1           0        5.878025   -0.974881    1.724388
     23          1           0        5.073593    1.276006    0.971735
     24          1           0        1.815860   -0.574918   -1.121712
     25          1           0        2.609666   -2.831842   -0.375889
     26          7           0        2.940254    1.773400   -0.547970
     27          8           0        1.931671    1.811969   -1.249333
     28          8           0        3.587862    2.752956   -0.185050
 ---------------------------------------------------------------------

 SCF Done:  E(RHF) =  -868.339915319     A.U. after   16 cycles
 E2 =    -0.2598575573D+01 EUMP2 =    -0.87093849089204D+03

 The electronic state is 1-A.
 Alpha  occ. eigenvalues --  -20.61022 -20.61011 -20.59830 -20.59799 -15.86035
 Alpha  occ. eigenvalues --  -15.84864 -11.31206 -11.30045 -11.27759 -11.27749
 Alpha  occ. eigenvalues --  -11.27482 -11.26741 -11.26734 -11.26728 -11.26446
 Alpha  occ. eigenvalues --  -11.26439 -11.25733 -11.25524  -1.60073  -1.58898
 Alpha  occ. eigenvalues --   -1.39631  -1.38451  -1.19364  -1.18241  -1.08801
 Alpha  occ. eigenvalues --   -1.07694  -1.04742  -1.03599  -0.95669  -0.94539
 Alpha  occ. eigenvalues --   -0.86151  -0.85024  -0.82509  -0.81364  -0.77573
 Alpha  occ. eigenvalues --   -0.76408  -0.72279  -0.71356  -0.71093  -0.70482
 Alpha  occ. eigenvalues --   -0.70216  -0.69369  -0.65026  -0.64754  -0.63899
 Alpha  occ. eigenvalues --   -0.63617  -0.62094  -0.60922  -0.55265  -0.54184
 Alpha  occ. eigenvalues --   -0.53075  -0.52839  -0.51975  -0.51692  -0.49037
 Alpha  occ. eigenvalues --   -0.49025  -0.47856  -0.47829  -0.45071  -0.43896
 Alpha  occ. eigenvalues --   -0.37334  -0.36332  -0.36277  -0.35182
 Alpha virt. eigenvalues --    0.04952   0.06096   0.11326   0.12450   0.16481
 Alpha virt. eigenvalues --    0.17587   0.21450   0.22542   0.27371   0.28305
 Alpha virt. eigenvalues --    0.28523   0.29476   0.31020   0.32026   0.32559

 Mulliken charges:
               1
     1  C   -0.170006
     2  C   -0.218577
     3  C   -0.169987
     4  C    0.159290
     5  C   -0.169079
     6  C   -0.218458
     7  H    0.226064
     8  H    0.223754
     9  H    0.275558
    10  H    0.276025
    11  H    0.224071
    12  N    0.490701
    13  O   -0.465360
    14  O   -0.461583
    15  C   -0.171569
    16  C   -0.220226
    17  C   -0.172515
    18  C    0.154123
    19  C   -0.163602
    20  C   -0.220181
    21  H    0.221538
    22  H    0.218420
    23  H    0.271204
    24  H    0.290492
    25  H    0.227060
    26  N    0.487927
    27  O   -0.458336
    28  O   -0.466749
 Sum of Mulliken charges =  -0.00000

 Dipole moment (field-independent basis, Debye):
    X=             -3.2367    Y=             -2.7071    Z=              3.2291  Tot=              5.3133
 Quadrupole moment (field-independent basis, Debye-Ang):
   XX=            -62.4563   YY=           -110.7831   ZZ=           -101.1781
   XY=            -18.8611   XZ=              3.4767   YZ=              3.0073

 Normal termination of Gaussian 16 at Thu May  6 01:40:27 2021.
