 Gaussian 16, Revision A.03,
 Gaussian 16:  EM64L-G16RevA.03 25-Dec-2016

 -------------
 #p 6-31g* mp2
 -------------

 ------------------------------------------------------
 Input file generated by CHIRIPA (05-May-2021 14:53:12)
 ------------------------------------------------------
 Symbolic Z-matrix:
 Charge =  0 Multiplicity = 1

                         Standard orientation:
 ---------------------------------------------------------------------
 Center     Atomic      Atomic             Coordinates (Angstroms)
 Number     Number       Type             X           Y           Z
 ---------------------------------------------------------------------
      1          6           0       -3.264646   -0.104283    0.161845
      2          6           0       -4.726712   -0.532986    0.033146
      3          6           0       -5.050126   -1.783892    0.850723
      4          1           0       -2.616977   -0.931536   -0.159283
      5          1           0       -3.035456    0.079216    1.220710
      6          1           0       -4.953454   -0.714285   -1.025312
      7          1           0       -5.370979    0.295451    0.354436
      8          1           0       -4.851663   -1.611464    1.913494
      9          1           0       -4.431766   -2.626937    0.525906
     10          1           0       -6.100426   -2.072663    0.744222
     11          6           0       -2.925896    1.144819   -0.649771
     12          6           0       -1.463830    1.573522   -0.521072
     13          6           0       -1.140416    2.824428   -1.338649
     14          1           0       -3.155086    0.961320   -1.708636
     15          1           0       -3.573565    1.972071   -0.328643
     16          1           0       -0.819563    0.745085   -0.842362
     17          1           0       -1.237088    1.754820    0.537387
     18          1           0       -1.758776    3.667473   -1.013832
     19          1           0       -1.338879    2.652000   -2.401420
     20          1           0       -0.090116    3.113198   -1.232148
     21          6           0        2.791287    1.920625    1.091369
     22          6           0        3.740200    1.336922    0.245569
     23          6           0        3.543895    0.048133   -0.259441
     24          6           0        2.382110   -0.631433    0.103512
     25          6           0        1.418185   -0.076935    0.944150
     26          6           0        1.635347    1.213081    1.437351
     27          1           0        2.951883    2.922265    1.479086
     28          1           0        4.638851    1.884063   -0.024813
     29          1           0        4.262186   -0.427627   -0.916044
     30          1           0        0.532201   -0.647086    1.195900
     31          1           0        0.896699    1.663889    2.094021
     32          7           0        2.163251   -1.996466   -0.424867
     33          8           0        1.131412   -2.574284   -0.090094
     34          8           0        3.027692   -2.462714   -1.163780
 ---------------------------------------------------------------------

 SCF Done:  E(RHF) =  -669.534730890     A.U. after   15 cycles
 E2 =    -0.2093408070D+01 EUMP2 =    -0.67162813896069D+03

 The electronic state is 1-A.
 Alpha  occ. eigenvalues --  -20.60797 -20.60790 -15.85847 -11.31180 -11.27751
 Alpha  occ. eigenvalues --  -11.27732 -11.27505 -11.26762 -11.26743 -11.21901
 Alpha  occ. eigenvalues --  -11.21602 -11.21539 -11.21450 -11.21372 -11.20969
 Alpha  occ. eigenvalues --   -1.59871  -1.39425  -1.19366  -1.08766  -1.08573
 Alpha  occ. eigenvalues --   -1.04771  -1.03654  -0.96095  -0.95602  -0.87116
 Alpha  occ. eigenvalues --   -0.86163  -0.82443  -0.79764  -0.78415  -0.77451
 Alpha  occ. eigenvalues --   -0.72065  -0.71196  -0.70471  -0.65236  -0.65011
 Alpha  occ. eigenvalues --   -0.64743  -0.62124  -0.61051  -0.59495  -0.57729
 Alpha  occ. eigenvalues --   -0.55374  -0.55267  -0.53127  -0.52864  -0.52751
 Alpha  occ. eigenvalues --   -0.52519  -0.50034  -0.48822  -0.48821  -0.48053
 Alpha  occ. eigenvalues --   -0.46783  -0.45935  -0.45828  -0.44828  -0.43914
 Alpha  occ. eigenvalues --   -0.37346  -0.36258
 Alpha virt. eigenvalues --    0.05050   0.11187   0.16484   0.20446   0.22954
 Alpha virt. eigenvalues --    0.24181   0.25383   0.26013   0.27543   0.28232
 Alpha virt. eigenvalues --    0.29338   0.30449   0.31483   0.31604   0.32147

 Mulliken charges:
               1
     1  C   -0.302308
     2  C   -0.299425
     3  C   -0.476624
     4  H    0.158816
     5  H    0.142980
     6  H    0.153820
     7  H    0.150537
     8  H    0.153432
     9  H    0.160209
    10  H    0.160349
    11  C   -0.297777
    12  C   -0.299826
    13  C   -0.476889
    14  H    0.152490
    15  H    0.148322
    16  H    0.158440
    17  H    0.139426
    18  H    0.153782
    19  H    0.158445
    20  H    0.158670
    21  C   -0.172661
    22  C   -0.218835
    23  C   -0.171062
    24  C    0.156713
    25  C   -0.168474
    26  C   -0.215071
    27  H    0.225697
    28  H    0.223366
    29  H    0.275456
    30  H    0.277695
    31  H    0.223623
    32  N    0.488277
    33  O   -0.461365
    34  O   -0.460228
 Sum of Mulliken charges =  -0.00000

 Dipole moment (field-independent basis, Debye):
    X=              0.7551    Y=              4.7206    Z=              1.7858  Tot=              5.1032
 Quadrupole moment (field-independent basis, Debye-Ang):
   XX=            -87.5549   YY=           -102.1034   ZZ=            -93.3884
   XY=             11.2066   XZ=              2.3650   YZ=              0.1502

 Normal termination of Gaussian 16 at Wed May  5 16:58:39 2021.
