 Gaussian 16, Revision A.03,
 Gaussian 16:  EM64L-G16RevA.03 25-Dec-2016

 -------------
 #p 6-31g* mp2
 -------------

 ------------------------------------------------------
 Input file generated by CHIRIPA (05-May-2021 14:55:21)
 ------------------------------------------------------
 Symbolic Z-matrix:
 Charge =  0 Multiplicity = 1

                         Standard orientation:
 ---------------------------------------------------------------------
 Center     Atomic      Atomic             Coordinates (Angstroms)
 Number     Number       Type             X           Y           Z
 ---------------------------------------------------------------------
      1          6           0       -1.027191    0.196366    1.064162
      2          6           0       -1.675251   -1.026264    1.268400
      3          6           0       -2.951184   -1.250074    0.742611
      4          6           0       -3.552406   -0.224720    0.014277
      5          6           0       -2.932545    1.004252   -0.206379
      6          6           0       -1.656796    1.205943    0.328721
      7          1           0       -0.036087    0.361636    1.476225
      8          1           0       -1.188703   -1.812116    1.839147
      9          1           0       -3.475672   -2.187032    0.885576
     10          1           0       -3.442967    1.768637   -0.779619
     11          1           0       -1.155891    2.156456    0.168519
     12          7           0       -4.903082   -0.449949   -0.547281
     13          8           0       -5.411311    0.469423   -1.185322
     14          8           0       -5.427937   -1.541590   -0.338757
     15          6           0        4.863168   -0.084667   -0.478366
     16          6           0        5.191119   -1.475656    0.065310
     17          6           0        6.395900   -2.112448   -0.628081
     18          1           0        4.671535   -0.155660   -1.557803
     19          1           0        5.741589    0.564560   -0.358891
     20          1           0        4.311881   -2.121680   -0.053893
     21          1           0        5.381805   -1.401373    1.143612
     22          1           0        7.287972   -1.491233   -0.498073
     23          1           0        6.211968   -2.215633   -1.702382
     24          1           0        6.612689   -3.106224   -0.224012
     25          6           0        3.661117    0.564922    0.204887
     26          6           0        3.333167    1.955911   -0.338790
     27          6           0        2.128384    2.592703    0.354601
     28          1           0        2.782695   -0.084305    0.085411
     29          1           0        3.852749    0.635915    1.284323
     30          1           0        3.142480    1.881629   -1.417093
     31          1           0        4.212404    2.601935   -0.219587
     32          1           0        2.312316    2.695887    1.428902
     33          1           0        1.236314    1.971489    0.224592
     34          1           0        1.911596    3.586479   -0.049468
 ---------------------------------------------------------------------

 SCF Done:  E(RHF) =  -669.534961373     A.U. after   15 cycles
 E2 =    -0.2092043734D+01 EUMP2 =    -0.67162700510650D+03

 The electronic state is 1-A.
 Alpha  occ. eigenvalues --  -20.60735 -20.60730 -15.85788 -11.31149 -11.27716
 Alpha  occ. eigenvalues --  -11.27708 -11.27409 -11.26724 -11.26683 -11.22593
 Alpha  occ. eigenvalues --  -11.22369 -11.22342 -11.22246 -11.22100 -11.21583
 Alpha  occ. eigenvalues --   -1.59811  -1.39364  -1.19317  -1.09282  -1.08713
 Alpha  occ. eigenvalues --   -1.04721  -1.04387  -0.96871  -0.95549  -0.87897
 Alpha  occ. eigenvalues --   -0.86117  -0.82381  -0.80475  -0.79075  -0.77431
 Alpha  occ. eigenvalues --   -0.72007  -0.71134  -0.70444  -0.65919  -0.64974
 Alpha  occ. eigenvalues --   -0.64752  -0.62138  -0.61705  -0.60245  -0.58454
 Alpha  occ. eigenvalues --   -0.56163  -0.55216  -0.53553  -0.53305  -0.53039
 Alpha  occ. eigenvalues --   -0.52784  -0.50788  -0.48788  -0.48763  -0.48740
 Alpha  occ. eigenvalues --   -0.47475  -0.46615  -0.46512  -0.44771  -0.44630
 Alpha  occ. eigenvalues --   -0.37286  -0.36321
 Alpha virt. eigenvalues --    0.05085   0.11254   0.16536   0.20256   0.22373
 Alpha virt. eigenvalues --    0.23778   0.25675   0.25978   0.26297   0.27720
 Alpha virt. eigenvalues --    0.29501   0.29989   0.30795   0.30875   0.31481

 Mulliken charges:
               1
     1  C   -0.175019
     2  C   -0.219197
     3  C   -0.171021
     4  C    0.158305
     5  C   -0.171329
     6  C   -0.221994
     7  H    0.230529
     8  H    0.223406
     9  H    0.275401
    10  H    0.275539
    11  H    0.227726
    12  N    0.488087
    13  O   -0.460471
    14  O   -0.460531
    15  C   -0.298784
    16  C   -0.300266
    17  C   -0.476192
    18  H    0.152182
    19  H    0.151772
    20  H    0.151375
    21  H    0.151828
    22  H    0.156310
    23  H    0.156657
    24  H    0.161754
    25  C   -0.300720
    26  C   -0.298766
    27  C   -0.486174
    28  H    0.146383
    29  H    0.149133
    30  H    0.155918
    31  H    0.156330
    32  H    0.156897
    33  H    0.150334
    34  H    0.164601
 Sum of Mulliken charges =  -0.00000

 Dipole moment (field-independent basis, Debye):
    X=              4.9957    Y=              0.8126    Z=              1.9219  Tot=              5.4139
 Quadrupole moment (field-independent basis, Debye-Ang):
   XX=           -128.7097   YY=            -90.9380   ZZ=            -94.3204
   XY=             -3.0381   XZ=             -6.4422   YZ=             -2.5367

 Normal termination of Gaussian 16 at Wed May  5 15:57:57 2021.
