 Gaussian 16, Revision A.03,
 Gaussian 16:  EM64L-G16RevA.03 25-Dec-2016

 -------------
 #p 6-31g* mp2
 -------------

 ------------------------------------------------------
 Input file generated by CHIRIPA (05-May-2021 14:53:16)
 ------------------------------------------------------
 Symbolic Z-matrix:
 Charge =  0 Multiplicity = 1

                         Standard orientation:
 ---------------------------------------------------------------------
 Center     Atomic      Atomic             Coordinates (Angstroms)
 Number     Number       Type             X           Y           Z
 ---------------------------------------------------------------------
      1          6           0       -3.570537    0.663351   -0.465765
      2          6           0       -3.544743    2.081672    0.104924
      3          6           0       -2.589238    3.005659   -0.650755
      4          1           0       -2.555014    0.245168   -0.437792
      5          1           0       -3.861620    0.706814   -1.524432
      6          1           0       -3.255138    2.035423    1.162565
      7          1           0       -4.560479    2.496456    0.075766
      8          1           0       -2.878955    3.081504   -1.703805
      9          1           0       -1.566197    2.617851   -0.610830
     10          1           0       -2.586479    4.014402   -0.226148
     11          6           0       -4.521136   -0.272188    0.279121
     12          6           0       -4.546930   -1.690509   -0.291568
     13          6           0       -5.502435   -2.614496    0.464111
     14          1           0       -4.230053   -0.315651    1.337788
     15          1           0       -5.536659    0.145995    0.251148
     16          1           0       -3.531194   -2.105293   -0.262410
     17          1           0       -4.836535   -1.644260   -1.349209
     18          1           0       -6.525476   -2.226688    0.424186
     19          1           0       -5.212718   -2.690341    1.517161
     20          1           0       -5.505194   -3.623238    0.039504
     21          6           0        0.685505    0.188943    0.422194
     22          6           0        1.587033    0.507260    1.443194
     23          6           0        2.960691    0.322001    1.260738
     24          6           0        3.400113   -0.185836    0.039140
     25          6           0        2.526869   -0.512447   -0.997229
     26          6           0        1.157468   -0.319000   -0.792617
     27          1           0       -0.379933    0.336037    0.572535
     28          1           0        1.223349    0.901898    2.387672
     29          1           0        3.680658    0.560083    2.034290
     30          1           0        2.919431   -0.904124   -1.927768
     31          1           0        0.459639   -0.567085   -1.587308
     32          7           0        4.852091   -0.386296   -0.165746
     33          8           0        5.213874   -0.835151   -1.251231
     34          8           0        5.600872   -0.090767    0.763030
 ---------------------------------------------------------------------

 SCF Done:  E(RHF) =  -669.535436362     A.U. after   15 cycles
 E2 =    -0.2091706250D+01 EUMP2 =    -0.67162714261194D+03

 The electronic state is 1-A.
 Alpha  occ. eigenvalues --  -20.60759 -20.60754 -15.85813 -11.31188 -11.27750
 Alpha  occ. eigenvalues --  -11.27746 -11.27476 -11.26774 -11.26763 -11.22662
 Alpha  occ. eigenvalues --  -11.22585 -11.22443 -11.22325 -11.22023 -11.21742
 Alpha  occ. eigenvalues --   -1.59834  -1.39387  -1.19357  -1.09452  -1.08752
 Alpha  occ. eigenvalues --   -1.04760  -1.04451  -0.96894  -0.95588  -0.87903
 Alpha  occ. eigenvalues --   -0.86157  -0.82421  -0.80516  -0.79270  -0.77461
 Alpha  occ. eigenvalues --   -0.72030  -0.71157  -0.70508  -0.66098  -0.65008
 Alpha  occ. eigenvalues --   -0.64756  -0.62106  -0.61852  -0.60262  -0.58502
 Alpha  occ. eigenvalues --   -0.56204  -0.55273  -0.53542  -0.53315  -0.53079
 Alpha  occ. eigenvalues --   -0.52850  -0.50842  -0.48824  -0.48786  -0.48783
 Alpha  occ. eigenvalues --   -0.47564  -0.46790  -0.46719  -0.44791  -0.44729
 Alpha  occ. eigenvalues --   -0.37333  -0.36363
 Alpha virt. eigenvalues --    0.05042   0.11284   0.16439   0.18487   0.22738
 Alpha virt. eigenvalues --    0.23579   0.25069   0.26031   0.27091   0.27593
 Alpha virt. eigenvalues --    0.29697   0.30339   0.30874   0.31175   0.31886

 Mulliken charges:
               1
     1  C   -0.301897
     2  C   -0.301415
     3  C   -0.477991
     4  H    0.138145
     5  H    0.154506
     6  H    0.149256
     7  H    0.157478
     8  H    0.158636
     9  H    0.151338
    10  H    0.164680
    11  C   -0.298443
    12  C   -0.300069
    13  C   -0.476192
    14  H    0.148920
    15  H    0.153929
    16  H    0.149282
    17  H    0.153724
    18  H    0.157037
    19  H    0.155941
    20  H    0.162800
    21  C   -0.177181
    22  C   -0.219523
    23  C   -0.170730
    24  C    0.158540
    25  C   -0.170855
    26  C   -0.221179
    27  H    0.234854
    28  H    0.223878
    29  H    0.275570
    30  H    0.275720
    31  H    0.223972
    32  N    0.487998
    33  O   -0.460356
    34  O   -0.460369
 Sum of Mulliken charges =  -0.00000

 Dipole moment (field-independent basis, Debye):
    X=             -5.3457    Y=              0.7327    Z=              0.6954  Tot=              5.4403
 Quadrupole moment (field-independent basis, Debye-Ang):
   XX=           -128.6956   YY=            -95.3633   ZZ=            -90.2848
   XY=              2.9129   XZ=              4.0918   YZ=              1.8607

 Normal termination of Gaussian 16 at Thu May  6 17:11:20 2021.
