 Gaussian 16, Revision A.03,
 Gaussian 16:  EM64L-G16RevA.03 25-Dec-2016

 -------------
 #p 6-31g* mp2
 -------------

 ------------------------------------------------------
 Input file generated by CHIRIPA (05-May-2021 14:55:22)
 ------------------------------------------------------
 Symbolic Z-matrix:
 Charge =  0 Multiplicity = 1

                         Standard orientation:
 ---------------------------------------------------------------------
 Center     Atomic      Atomic             Coordinates (Angstroms)
 Number     Number       Type             X           Y           Z
 ---------------------------------------------------------------------
      1          6           0       -0.675162    2.111176    0.174278
      2          6           0       -0.960231    1.289435    1.269722
      3          6           0       -2.036792    0.398476    1.227822
      4          6           0       -2.810959    0.355144    0.069342
      5          6           0       -2.552349    1.160953   -1.038396
      6          6           0       -1.470729    2.044430   -0.974260
      7          1           0        0.163101    2.800389    0.215464
      8          1           0       -0.344092    1.339128    2.163002
      9          1           0       -2.279903   -0.249082    2.061479
     10          1           0       -3.184551    1.088836   -1.915059
     11          1           0       -1.251691    2.681411   -1.826506
     12          7           0       -3.953345   -0.584114    0.013214
     13          8           0       -4.620186   -0.603226   -1.019063
     14          8           0       -4.160274   -1.283407    1.002560
     15          6           0        4.080981   -0.588187   -0.335467
     16          6           0        4.861769    0.502267    0.398879
     17          6           0        6.308420    0.619238   -0.082068
     18          1           0        4.592771   -1.550874   -0.200374
     19          1           0        4.093928   -0.375883   -1.413500
     20          1           0        4.846180    0.288717    1.475340
     21          1           0        4.347956    1.462437    0.262182
     22          1           0        6.341245    0.855922   -1.150480
     23          1           0        6.842300   -0.324466    0.069572
     24          1           0        6.848161    1.404647    0.456145
     25          6           0        2.633081   -0.717274    0.134271
     26          6           0        1.852293   -1.807727   -0.600076
     27          6           0        0.405642   -1.924698   -0.119128
     28          1           0        2.620134   -0.929577    1.212303
     29          1           0        2.121292    0.245413   -0.000822
     30          1           0        2.366106   -2.767898   -0.463379
     31          1           0        1.867882   -1.594178   -1.676537
     32          1           0       -0.128238   -0.980994   -0.270768
     33          1           0        0.372817   -2.161382    0.949284
     34          1           0       -0.134099   -2.710107   -0.657342
 ---------------------------------------------------------------------

 SCF Done:  E(RHF) =  -669.533889936     A.U. after   15 cycles
 E2 =    -0.2094457774D+01 EUMP2 =    -0.67162834770998D+03

 The electronic state is 1-A.
 Alpha  occ. eigenvalues --  -20.60789 -20.60783 -15.85843 -11.31239 -11.27846
 Alpha  occ. eigenvalues --  -11.27766 -11.27586 -11.26885 -11.26793 -11.22118
 Alpha  occ. eigenvalues --  -11.21835 -11.21788 -11.21749 -11.21501 -11.20981
 Alpha  occ. eigenvalues --   -1.59862  -1.39415  -1.19454  -1.08843  -1.08791
 Alpha  occ. eigenvalues --   -1.04850  -1.03833  -0.96281  -0.95646  -0.87299
 Alpha  occ. eigenvalues --   -0.86228  -0.82473  -0.79927  -0.78646  -0.77513
 Alpha  occ. eigenvalues --   -0.72062  -0.71187  -0.70538  -0.65454  -0.65080
 Alpha  occ. eigenvalues --   -0.64829  -0.62178  -0.61264  -0.59660  -0.57943
 Alpha  occ. eigenvalues --   -0.55678  -0.55338  -0.53567  -0.52945  -0.52916
 Alpha  occ. eigenvalues --   -0.52390  -0.50145  -0.48824  -0.48813  -0.48166
 Alpha  occ. eigenvalues --   -0.46921  -0.46147  -0.46073  -0.44810  -0.44108
 Alpha  occ. eigenvalues --   -0.37426  -0.36362
 Alpha virt. eigenvalues --    0.04992   0.11130   0.16391   0.20928   0.22673
 Alpha virt. eigenvalues --    0.24088   0.25849   0.26560   0.27332   0.27917
 Alpha virt. eigenvalues --    0.28893   0.30827   0.31149   0.31589   0.31802

 Mulliken charges:
               1
     1  C   -0.172055
     2  C   -0.215953
     3  C   -0.172347
     4  C    0.161287
     5  C   -0.172274
     6  C   -0.218637
     7  H    0.226287
     8  H    0.224834
     9  H    0.275936
    10  H    0.276148
    11  H    0.224032
    12  N    0.488375
    13  O   -0.460568
    14  O   -0.459897
    15  C   -0.298192
    16  C   -0.298763
    17  C   -0.475725
    18  H    0.151942
    19  H    0.149716
    20  H    0.151693
    21  H    0.146357
    22  H    0.155569
    23  H    0.157062
    24  H    0.160326
    25  C   -0.298771
    26  C   -0.298796
    27  C   -0.482600
    28  H    0.146898
    29  H    0.143910
    30  H    0.152666
    31  H    0.151355
    32  H    0.167091
    33  H    0.150020
    34  H    0.163074
 Sum of Mulliken charges =  -0.00000

 Dipole moment (field-independent basis, Debye):
    X=              3.9463    Y=              3.3015    Z=              0.1891  Tot=              5.1487
 Quadrupole moment (field-independent basis, Debye-Ang):
   XX=           -118.9150   YY=            -92.1813   ZZ=            -90.0990
   XY=             -8.7769   XZ=              1.2468   YZ=             -1.8117

 Normal termination of Gaussian 16 at Thu May  6 06:16:04 2021.
