 Gaussian 16, Revision A.03,
 Gaussian 16:  EM64L-G16RevA.03 25-Dec-2016

 -------------
 #p 6-31g* mp2
 -------------

 ------------------------------------------------------
 Input file generated by CHIRIPA (05-May-2021 14:55:19)
 ------------------------------------------------------
 Symbolic Z-matrix:
 Charge =  0 Multiplicity = 1

                         Standard orientation:
 ---------------------------------------------------------------------
 Center     Atomic      Atomic             Coordinates (Angstroms)
 Number     Number       Type             X           Y           Z
 ---------------------------------------------------------------------
      1          6           0        1.887176    2.747800    0.012449
      2          6           0        1.287938    1.891322    0.941900
      3          6           0        1.703714    0.561135    1.052723
      4          6           0        2.726019    0.118774    0.214570
      5          6           0        3.342696    0.947695   -0.721319
      6          6           0        2.910838    2.274089   -0.814736
      7          1           0        1.557944    3.779648   -0.066880
      8          1           0        0.492726    2.256474    1.585598
      9          1           0        1.257135   -0.123461    1.763577
     10          1           0        4.133059    0.554837   -1.349338
     11          1           0        3.378031    2.936984   -1.537471
     12          7           0        3.174696   -1.287427    0.322680
     13          8           0        4.077326   -1.652785   -0.427259
     14          8           0        2.615242   -1.997623    1.155309
     15          6           0       -2.817502   -0.921792   -0.089063
     16          6           0       -1.632718   -0.784629   -1.045858
     17          6           0       -0.486024   -1.737645   -0.707264
     18          1           0       -2.474798   -0.735123    0.937900
     19          1           0       -3.181539   -1.958263   -0.113560
     20          1           0       -1.271900    0.251609   -1.020600
     21          1           0       -1.978321   -0.971457   -2.070686
     22          1           0       -0.823990   -2.778045   -0.751428
     23          1           0       -0.113555   -1.548029    0.304623
     24          1           0        0.350397   -1.622784   -1.403730
     25          6           0       -3.971802    0.024427   -0.414623
     26          6           0       -5.156586   -0.112737    0.542172
     27          6           0       -6.303280    0.840281    0.203577
     28          1           0       -3.607764    1.060897   -0.390126
     29          1           0       -4.314506   -0.162242   -1.441587
     30          1           0       -4.810983    0.074092    1.566998
     31          1           0       -5.517404   -1.148974    0.516914
     32          1           0       -6.675749    0.650664   -0.808309
     33          1           0       -5.965314    1.880679    0.247742
     34          1           0       -7.139701    0.725419    0.900044
 ---------------------------------------------------------------------

 SCF Done:  E(RHF) =  -669.534598302     A.U. after   15 cycles
 E2 =    -0.2093812432D+01 EUMP2 =    -0.67162841073384D+03

 The electronic state is 1-A.
 Alpha  occ. eigenvalues --  -20.60834 -20.60804 -15.85849 -11.31214 -11.27821
 Alpha  occ. eigenvalues --  -11.27804 -11.27558 -11.26834 -11.26805 -11.21777
 Alpha  occ. eigenvalues --  -11.21565 -11.21539 -11.21454 -11.21263 -11.20741
 Alpha  occ. eigenvalues --   -1.59880  -1.39438  -1.19413  -1.08801  -1.08528
 Alpha  occ. eigenvalues --   -1.04829  -1.03564  -0.96014  -0.95631  -0.87032
 Alpha  occ. eigenvalues --   -0.86213  -0.82473  -0.79636  -0.78343  -0.77517
 Alpha  occ. eigenvalues --   -0.72083  -0.71201  -0.70538  -0.65187  -0.65068
 Alpha  occ. eigenvalues --   -0.64828  -0.62216  -0.60958  -0.59391  -0.57615
 Alpha  occ. eigenvalues --   -0.55448  -0.55233  -0.53118  -0.52931  -0.52645
 Alpha  occ. eigenvalues --   -0.52399  -0.49957  -0.48844  -0.48834  -0.47932
 Alpha  occ. eigenvalues --   -0.46692  -0.45893  -0.45821  -0.44744  -0.43827
 Alpha  occ. eigenvalues --   -0.37358  -0.36388
 Alpha virt. eigenvalues --    0.04987   0.11183   0.16480   0.20935   0.22811
 Alpha virt. eigenvalues --    0.24152   0.26076   0.27014   0.27608   0.27700
 Alpha virt. eigenvalues --    0.28628   0.30527   0.31422   0.31579   0.31824

 Mulliken charges:
               1
     1  C   -0.170801
     2  C   -0.219766
     3  C   -0.169181
     4  C    0.161757
     5  C   -0.171542
     6  C   -0.218490
     7  H    0.225849
     8  H    0.223459
     9  H    0.275083
    10  H    0.275806
    11  H    0.223624
    12  N    0.489608
    13  O   -0.460173
    14  O   -0.459345
    15  C   -0.297039
    16  C   -0.302662
    17  C   -0.476193
    18  H    0.144244
    19  H    0.152466
    20  H    0.148205
    21  H    0.151851
    22  H    0.158982
    23  H    0.158501
    24  H    0.157985
    25  C   -0.297423
    26  C   -0.299458
    27  C   -0.475503
    28  H    0.145281
    29  H    0.150827
    30  H    0.150293
    31  H    0.153751
    32  H    0.155923
    33  H    0.153277
    34  H    0.160804
 Sum of Mulliken charges =  -0.00000

 Dipole moment (field-independent basis, Debye):
    X=             -1.4937    Y=              4.8779    Z=             -0.3823  Tot=              5.1157
 Quadrupole moment (field-independent basis, Debye-Ang):
   XX=           -102.2539   YY=            -93.7642   ZZ=            -92.4039
   XY=             15.0434   XZ=             -4.0419   YZ=              0.8603

 Normal termination of Gaussian 16 at Wed May  5 20:32:04 2021.
