 Gaussian 16, Revision A.03,
 Gaussian 16:  EM64L-G16RevA.03 25-Dec-2016

 -------------
 #p 6-31g* mp2
 -------------

 ------------------------------------------------------
 Input file generated by CHIRIPA (05-May-2021 14:57:21)
 ------------------------------------------------------
 Symbolic Z-matrix:
 Charge =  0 Multiplicity = 1

                         Standard orientation:
 ---------------------------------------------------------------------
 Center     Atomic      Atomic             Coordinates (Angstroms)
 Number     Number       Type             X           Y           Z
 ---------------------------------------------------------------------
      1          6           0       -3.510598    2.448245    0.222862
      2          6           0       -2.342902    2.079972   -0.453438
      3          6           0       -2.077516    0.735857   -0.731776
      4          6           0       -3.005729   -0.218110   -0.317458
      5          6           0       -4.178074    0.117256    0.358135
      6          6           0       -4.422849    1.467441    0.625779
      7          1           0       -3.708751    3.494744    0.434928
      8          1           0       -1.632650    2.839529   -0.767540
      9          1           0       -1.181414    0.422910   -1.253775
     10          1           0       -4.867265   -0.662550    0.658694
     11          1           0       -5.330524    1.750528    1.151167
     12          7           0       -2.735686   -1.644277   -0.606462
     13          8           0       -3.569334   -2.465607   -0.230849
     14          8           0       -1.695492   -1.913773   -1.203124
     15          6           0        0.843991   -0.722004    1.270476
     16          6           0        1.876227   -1.654547    1.124276
     17          6           0        3.102836   -1.275061    0.571133
     18          6           0        3.263526    0.051224    0.173088
     19          6           0        2.254235    1.003609    0.305691
     20          6           0        1.035952    0.601764    0.861439
     21          1           0       -0.105634   -1.025482    1.701182
     22          1           0        1.729974   -2.683285    1.441061
     23          1           0        3.918856   -1.976473    0.446426
     24          1           0        2.429814    2.021911   -0.019343
     25          1           0        0.236076    1.328141    0.973772
     26          7           0        4.557675    0.464803   -0.413878
     27          8           0        4.674095    1.639334   -0.756749
     28          8           0        5.431106   -0.393395   -0.519957
 ---------------------------------------------------------------------

 SCF Done:  E(RHF) =  -868.337104785     A.U. after   16 cycles
 E2 =    -0.2602590645D+01 EUMP2 =    -0.87093969543004D+03

 The electronic state is 1-A.
 Alpha  occ. eigenvalues --  -20.61675 -20.61651 -20.60693 -20.60676 -15.86707
 Alpha  occ. eigenvalues --  -15.85740 -11.32110 -11.31062 -11.28696 -11.28662
 Alpha  occ. eigenvalues --  -11.28437 -11.27710 -11.27700 -11.27647 -11.27576
 Alpha  occ. eigenvalues --  -11.27338 -11.26642 -11.26521  -1.60748  -1.59764
 Alpha  occ. eigenvalues --   -1.40291  -1.39319  -1.20319  -1.19230  -1.09687
 Alpha  occ. eigenvalues --   -1.08622  -1.05722  -1.04637  -0.96508  -0.95466
 Alpha  occ. eigenvalues --   -0.87091  -0.86035  -0.83335  -0.82308  -0.78382
 Alpha  occ. eigenvalues --   -0.77371  -0.72912  -0.72122  -0.71962  -0.71367
 Alpha  occ. eigenvalues --   -0.71086  -0.70311  -0.65951  -0.65679  -0.64882
 Alpha  occ. eigenvalues --   -0.64674  -0.63025  -0.61984  -0.56169  -0.55112
 Alpha  occ. eigenvalues --   -0.54111  -0.53794  -0.52897  -0.52672  -0.49686
 Alpha  occ. eigenvalues --   -0.49670  -0.48721  -0.48710  -0.45680  -0.44736
 Alpha  occ. eigenvalues --   -0.38319  -0.37559  -0.36937  -0.36159
 Alpha virt. eigenvalues --    0.04107   0.05167   0.10074   0.11589   0.15441
 Alpha virt. eigenvalues --    0.16704   0.20457   0.21691   0.26039   0.27576
 Alpha virt. eigenvalues --    0.27909   0.28168   0.30066   0.31405   0.32077

 Mulliken charges:
               1
     1  C   -0.170153
     2  C   -0.227246
     3  C   -0.175048
     4  C    0.152504
     5  C   -0.170697
     6  C   -0.219192
     7  H    0.229463
     8  H    0.225572
     9  H    0.283729
    10  H    0.277942
    11  H    0.226871
    12  N    0.485876
    13  O   -0.458968
    14  O   -0.457099
    15  C   -0.163541
    16  C   -0.213838
    17  C   -0.170122
    18  C    0.159151
    19  C   -0.174819
    20  C   -0.229904
    21  H    0.225824
    22  H    0.228248
    23  H    0.276496
    24  H    0.270944
    25  H    0.222124
    26  N    0.488243
    27  O   -0.463109
    28  O   -0.459251
 Sum of Mulliken charges =  -0.00000

 Dipole moment (field-independent basis, Debye):
    X=             -5.7049    Y=              3.3557    Z=              3.0712  Tot=              7.2965
 Quadrupole moment (field-independent basis, Debye-Ang):
   XX=           -124.7659   YY=           -102.8384   ZZ=           -105.0822
   XY=            -21.3763   XZ=              1.2824   YZ=             -3.3430

 Normal termination of Gaussian 16 at Wed May  5 17:44:43 2021.
