 Gaussian 16, Revision A.03,
 Gaussian 16:  EM64L-G16RevA.03 25-Dec-2016

 -------------
 #p 6-31g* mp2
 -------------

 ------------------------------------------------------
 Input file generated by CHIRIPA (05-May-2021 14:57:25)
 ------------------------------------------------------
 Symbolic Z-matrix:
 Charge =  0 Multiplicity = 1

                         Standard orientation:
 ---------------------------------------------------------------------
 Center     Atomic      Atomic             Coordinates (Angstroms)
 Number     Number       Type             X           Y           Z
 ---------------------------------------------------------------------
      1          6           0        5.402498   -1.340930   -0.572234
      2          6           0        5.597378    0.041827   -0.653012
      3          6           0        4.538382    0.923166   -0.415697
      4          6           0        3.292183    0.384909   -0.098593
      5          6           0        3.066439   -0.987889   -0.010521
      6          6           0        4.139877   -1.850477   -0.251812
      7          1           0        6.230761   -2.018292   -0.758131
      8          1           0        6.576856    0.440376   -0.901658
      9          1           0        4.661386    1.997955   -0.471533
     10          1           0        2.078564   -1.355377    0.239428
     11          1           0        3.985610   -2.923893   -0.188377
     12          7           0        2.163427    1.308017    0.154747
     13          8           0        1.075217    0.808648    0.432354
     14          8           0        2.388291    2.513440    0.070910
     15          6           0       -5.334834    0.408064   -1.443390
     16          6           0       -4.835017   -0.898344   -1.442763
     17          6           0       -3.806444   -1.264604   -0.569585
     18          6           0       -3.298724   -0.294723    0.293455
     19          6           0       -3.775578    1.014996    0.316635
     20          6           0       -4.804455    1.358889   -0.565238
     21          1           0       -6.133973    0.683897   -2.125073
     22          1           0       -5.245002   -1.638852   -2.123648
     23          1           0       -3.400861   -2.268825   -0.548095
     24          1           0       -3.346701    1.731193    1.006957
     25          1           0       -5.190665    2.374213   -0.563524
     26          7           0       -2.209659   -0.670626    1.222452
     27          8           0       -1.779398    0.202397    1.973014
     28          8           0       -1.806932   -1.831164    1.182446
 ---------------------------------------------------------------------

 SCF Done:  E(RHF) =  -868.337425555     A.U. after   16 cycles
 E2 =    -0.2599836507D+01 EUMP2 =    -0.87093726206261D+03

 The electronic state is 1-A.
 Alpha  occ. eigenvalues --  -20.60026 -20.59950 -20.59923 -20.59760 -15.85038
 Alpha  occ. eigenvalues --  -15.84889 -11.30510 -11.30432 -11.27148 -11.27078
 Alpha  occ. eigenvalues --  -11.27021 -11.26977 -11.26909 -11.26842 -11.26190
 Alpha  occ. eigenvalues --  -11.26137 -11.26121 -11.26073  -1.59071  -1.58886
 Alpha  occ. eigenvalues --   -1.38617  -1.38442  -1.18708  -1.18629  -1.08095
 Alpha  occ. eigenvalues --   -1.07996  -1.04123  -1.04067  -0.94907  -0.94798
 Alpha  occ. eigenvalues --   -0.85518  -0.85458  -0.81736  -0.81633  -0.76749
 Alpha  occ. eigenvalues --   -0.76649  -0.71347  -0.71096  -0.70400  -0.70122
 Alpha  occ. eigenvalues --   -0.69811  -0.69757  -0.64359  -0.64289  -0.64132
 Alpha  occ. eigenvalues --   -0.64087  -0.61453  -0.61414  -0.54646  -0.54585
 Alpha  occ. eigenvalues --   -0.52460  -0.52379  -0.52213  -0.52171  -0.48068
 Alpha  occ. eigenvalues --   -0.48006  -0.47893  -0.47846  -0.44026  -0.43749
 Alpha  occ. eigenvalues --   -0.36719  -0.36623  -0.35735  -0.35676
 Alpha virt. eigenvalues --    0.05737   0.05957   0.11915   0.11977   0.17206
 Alpha virt. eigenvalues --    0.17387   0.22008   0.22062   0.27929   0.27947
 Alpha virt. eigenvalues --    0.28906   0.29021   0.31494   0.31613   0.33237

 Mulliken charges:
               1
     1  C   -0.171390
     2  C   -0.219093
     3  C   -0.171673
     4  C    0.157449
     5  C   -0.172738
     6  C   -0.219503
     7  H    0.223243
     8  H    0.220812
     9  H    0.273562
    10  H    0.285895
    11  H    0.223401
    12  N    0.488020
    13  O   -0.452284
    14  O   -0.466482
    15  C   -0.171602
    16  C   -0.218846
    17  C   -0.171974
    18  C    0.161159
    19  C   -0.167698
    20  C   -0.218880
    21  H    0.222866
    22  H    0.219971
    23  H    0.271848
    24  H    0.279541
    25  H    0.222337
    26  N    0.491198
    27  O   -0.446591
    28  O   -0.472547
 Sum of Mulliken charges =  -0.00000

 Dipole moment (field-independent basis, Debye):
    X=              0.0926    Y=             -1.8236    Z=             -3.9670  Tot=              4.3670
 Quadrupole moment (field-independent basis, Debye-Ang):
   XX=            -54.5943   YY=           -101.4782   ZZ=           -107.3264
   XY=            -10.5607   XZ=              5.7901   YZ=              2.7258

 Normal termination of Gaussian 16 at Thu May  6 16:25:24 2021.
