 Gaussian 16, Revision A.03,
 Gaussian 16:  EM64L-G16RevA.03 25-Dec-2016

 -------------
 #p 6-31g* mp2
 -------------

 ------------------------------------------------------
 Input file generated by CHIRIPA (05-May-2021 14:53:15)
 ------------------------------------------------------
 Symbolic Z-matrix:
 Charge =  0 Multiplicity = 1

                         Standard orientation:
 ---------------------------------------------------------------------
 Center     Atomic      Atomic             Coordinates (Angstroms)
 Number     Number       Type             X           Y           Z
 ---------------------------------------------------------------------
      1          6           0       -2.779250    0.548871   -0.251037
      2          6           0       -3.072479    2.000148   -0.632875
      3          6           0       -1.815009    2.869479   -0.661644
      4          1           0       -2.293715    0.526557    0.734205
      5          1           0       -2.057588    0.127902   -0.964748
      6          1           0       -3.794428    2.417827    0.080532
      7          1           0       -3.557546    2.018997   -1.617238
      8          1           0       -1.093480    2.479360   -1.386767
      9          1           0       -1.331707    2.880455    0.320649
     10          1           0       -2.047611    3.902923   -0.936868
     11          6           0       -4.026437   -0.332695   -0.217959
     12          6           0       -3.733209   -1.783971    0.163878
     13          6           0       -4.990679   -2.653302    0.192648
     14          1           0       -4.748100    0.088275    0.495752
     15          1           0       -4.511973   -0.310380   -1.203201
     16          1           0       -3.248142   -1.802820    1.148241
     17          1           0       -3.011260   -2.201650   -0.549528
     18          1           0       -5.473981   -2.664279   -0.789646
     19          1           0       -5.712208   -2.263183    0.917771
     20          1           0       -4.758077   -3.686747    0.467872
     21          6           0        3.925956   -1.035034   -1.780414
     22          6           0        4.244967   -1.438602   -0.479689
     23          6           0        3.549319   -0.918506    0.615812
     24          6           0        2.535936    0.007456    0.373037
     25          6           0        2.194705    0.429315   -0.911052
     26          6           0        2.903645   -0.104006   -1.991573
     27          1           0        4.471515   -1.444194   -2.625606
     28          1           0        5.038429   -2.161499   -0.312704
     29          1           0        3.775648   -1.213486    1.633251
     30          1           0        1.398705    1.151538   -1.045942
     31          1           0        2.653734    0.211239   -3.000636
     32          7           0        1.792450    0.565057    1.524864
     33          8           0        0.903911    1.379477    1.284326
     34          8           0        2.112320    0.177128    2.646395
 ---------------------------------------------------------------------

 SCF Done:  E(RHF) =  -669.536037162     A.U. after   15 cycles
 E2 =    -0.2091726161D+01 EUMP2 =    -0.67162776332294D+03

 The electronic state is 1-A.
 Alpha  occ. eigenvalues --  -20.60871 -20.60866 -15.85910 -11.31227 -11.27797
 Alpha  occ. eigenvalues --  -11.27778 -11.27538 -11.26805 -11.26794 -11.21205
 Alpha  occ. eigenvalues --  -11.20993 -11.20903 -11.20759 -11.20712 -11.20300
 Alpha  occ. eigenvalues --   -1.59936  -1.39491  -1.19398  -1.08805  -1.07891
 Alpha  occ. eigenvalues --   -1.04795  -1.03001  -0.95654  -0.95436  -0.86459
 Alpha  occ. eigenvalues --   -0.86195  -0.82485  -0.79082  -0.77735  -0.77476
 Alpha  occ. eigenvalues --   -0.72142  -0.71247  -0.70510  -0.65058  -0.64805
 Alpha  occ. eigenvalues --   -0.64518  -0.62146  -0.60398  -0.58820  -0.57047
 Alpha  occ. eigenvalues --   -0.55305  -0.54721  -0.53127  -0.52892  -0.52160
 Alpha  occ. eigenvalues --   -0.51849  -0.49383  -0.48896  -0.48885  -0.47366
 Alpha  occ. eigenvalues --   -0.46108  -0.45293  -0.45180  -0.44780  -0.43256
 Alpha  occ. eigenvalues --   -0.37380  -0.36396
 Alpha virt. eigenvalues --    0.04984   0.11246   0.16473   0.20671   0.23282
 Alpha virt. eigenvalues --    0.24084   0.26160   0.27444   0.27643   0.28193
 Alpha virt. eigenvalues --    0.29425   0.30826   0.31479   0.32199   0.32537

 Mulliken charges:
               1
     1  C   -0.299372
     2  C   -0.299575
     3  C   -0.479998
     4  H    0.164294
     5  H    0.140908
     6  H    0.152226
     7  H    0.146364
     8  H    0.140498
     9  H    0.182542
    10  H    0.155152
    11  C   -0.297979
    12  C   -0.299466
    13  C   -0.475312
    14  H    0.149893
    15  H    0.146336
    16  H    0.155114
    17  H    0.148682
    18  H    0.153455
    19  H    0.155599
    20  H    0.158852
    21  C   -0.170373
    22  C   -0.218870
    23  C   -0.170298
    24  C    0.156779
    25  C   -0.173861
    26  C   -0.220052
    27  H    0.225737
    28  H    0.223547
    29  H    0.275592
    30  H    0.282089
    31  H    0.223748
    32  N    0.493413
    33  O   -0.465863
    34  O   -0.459802
 Sum of Mulliken charges =  -0.00000

 Dipole moment (field-independent basis, Debye):
    X=              2.7540    Y=             -1.9208    Z=             -3.8373  Tot=              5.0990
 Quadrupole moment (field-independent basis, Debye-Ang):
   XX=            -81.5543   YY=            -94.5507   ZZ=            -95.4110
   XY=             -7.6736   XZ=             -8.1171   YZ=             -2.0644

 Normal termination of Gaussian 16 at Thu May  6 01:06:08 2021.
