 Gaussian 16, Revision A.03,
 Gaussian 16:  EM64L-G16RevA.03 25-Dec-2016

 -------------
 #p 6-31g* mp2
 -------------

 ------------------------------------------------------
 Input file generated by CHIRIPA (05-May-2021 14:51:12)
 ------------------------------------------------------
 Symbolic Z-matrix:
 Charge =  0 Multiplicity = 1

                         Standard orientation:
 ---------------------------------------------------------------------
 Center     Atomic      Atomic             Coordinates (Angstroms)
 Number     Number       Type             X           Y           Z
 ---------------------------------------------------------------------
      1          6           0       -2.719024   -0.247883   -0.287823
      2          6           0       -1.823431   -1.339245    0.299395
      3          6           0       -0.396845   -1.291688   -0.248681
      4          1           0       -2.741284   -0.349762   -1.381473
      5          1           0       -2.275803    0.734663   -0.074388
      6          1           0       -2.268924   -2.319379    0.086115
      7          1           0       -1.803453   -1.234873    1.391789
      8          1           0        0.070599   -0.327748   -0.023035
      9          1           0       -0.397516   -1.418416   -1.336128
     10          1           0        0.226122   -2.080485    0.184415
     11          6           0       -4.148309   -0.282416    0.250398
     12          6           0       -5.043902    0.808946   -0.336821
     13          6           0       -6.470487    0.761389    0.211255
     14          1           0       -4.591530   -1.264962    0.036962
     15          1           0       -4.126049   -0.180537    1.344048
     16          1           0       -5.063880    0.704574   -1.429214
     17          1           0       -4.598409    1.789080   -0.123540
     18          1           0       -6.469817    0.888117    1.298702
     19          1           0       -6.937932   -0.202551   -0.014390
     20          1           0       -7.093455    1.550186   -0.221840
     21          6           0        3.344711    0.931354   -0.344179
     22          6           0        3.491139    2.145835    0.573197
     23          6           0        3.310532    3.471263   -0.167353
     24          1           0        4.081001    1.002474   -1.156438
     25          1           0        2.353502    0.955715   -0.817789
     26          1           0        4.481253    2.118449    1.045998
     27          1           0        2.754544    2.071718    1.383474
     28          1           0        2.317526    3.524490   -0.625293
     29          1           0        4.054047    3.571487   -0.964686
     30          1           0        3.419257    4.326160    0.507325
     31          6           0        3.522622   -0.401055    0.381605
     32          6           0        3.376194   -1.615535   -0.535772
     33          6           0        3.556801   -2.940965    0.204778
     34          1           0        4.513831   -0.425415    0.855214
     35          1           0        2.786332   -0.472175    1.193864
     36          1           0        4.112789   -1.541419   -1.346048
     37          1           0        2.386080   -1.588150   -1.008573
     38          1           0        2.813286   -3.041188    1.002112
     39          1           0        4.549807   -2.994191    0.662719
     40          1           0        3.448076   -3.795861   -0.469901
 ---------------------------------------------------------------------

 SCF Done:  E(RHF) =  -470.732736820     A.U. after   11 cycles
 E2 =    -0.1583709748D+01 EUMP2 =    -0.47231644656877D+03

 The electronic state is 1-A.
 Alpha  occ. eigenvalues --  -11.21672 -11.21637 -11.21573 -11.21461 -11.21418
 Alpha  occ. eigenvalues --  -11.21398 -11.21326 -11.21257 -11.21177 -11.21098
 Alpha  occ. eigenvalues --  -11.21055 -11.21012  -1.08493  -1.08350  -1.03610
 Alpha  occ. eigenvalues --   -1.03449  -0.96054  -0.95922  -0.87093  -0.86925
 Alpha  occ. eigenvalues --   -0.79704  -0.79496  -0.78310  -0.78148  -0.65155
 Alpha  occ. eigenvalues --   -0.64975  -0.60990  -0.60948  -0.59361  -0.59282
 Alpha  occ. eigenvalues --   -0.57666  -0.57526  -0.55430  -0.55130  -0.52752
 Alpha  occ. eigenvalues --   -0.52622  -0.52462  -0.52335  -0.49989  -0.49862
 Alpha  occ. eigenvalues --   -0.47991  -0.47839  -0.46726  -0.46520  -0.45923
 Alpha  occ. eigenvalues --   -0.45771  -0.45678  -0.45528  -0.43804  -0.43704
 Alpha virt. eigenvalues --    0.20668   0.22999   0.23498   0.24871   0.25740
 Alpha virt. eigenvalues --    0.26556   0.26871   0.27620   0.27799   0.29466
 Alpha virt. eigenvalues --    0.30455   0.30740   0.31763   0.32176   0.32284

 Mulliken charges:
               1
     1  C   -0.298589
     2  C   -0.300856
     3  C   -0.482165
     4  H    0.149812
     5  H    0.149271
     6  H    0.152419
     7  H    0.152005
     8  H    0.158535
     9  H    0.155337
    10  H    0.164317
    11  C   -0.298330
    12  C   -0.299669
    13  C   -0.475741
    14  H    0.149699
    15  H    0.149735
    16  H    0.152020
    17  H    0.151966
    18  H    0.155233
    19  H    0.155251
    20  H    0.160395
    21  C   -0.301327
    22  C   -0.299575
    23  C   -0.475594
    24  H    0.149630
    25  H    0.151806
    26  H    0.152001
    27  H    0.151177
    28  H    0.154855
    29  H    0.155281
    30  H    0.160057
    31  C   -0.298141
    32  C   -0.306720
    33  C   -0.476883
    34  H    0.149018
    35  H    0.149990
    36  H    0.151080
    37  H    0.163206
    38  H    0.154566
    39  H    0.155050
    40  H    0.159877
 Sum of Mulliken charges =  -0.00000

 Dipole moment (field-independent basis, Debye):
    X=             -0.0527    Y=             -0.0126    Z=             -0.0187  Tot=              0.0573
 Quadrupole moment (field-independent basis, Debye-Ang):
   XX=            -85.0200   YY=            -85.5444   ZZ=            -84.4204
   XY=              0.4552   XZ=              0.2619   YZ=              0.8837

 Normal termination of Gaussian 16 at Wed May  5 15:18:11 2021.
