 Gaussian 16, Revision A.03,
 Gaussian 16:  EM64L-G16RevA.03 25-Dec-2016

 -------------
 #p 6-31g* mp2
 -------------

 ------------------------------------------------------
 Input file generated by CHIRIPA (05-May-2021 14:55:21)
 ------------------------------------------------------
 Symbolic Z-matrix:
 Charge =  0 Multiplicity = 1

                         Standard orientation:
 ---------------------------------------------------------------------
 Center     Atomic      Atomic             Coordinates (Angstroms)
 Number     Number       Type             X           Y           Z
 ---------------------------------------------------------------------
      1          6           0        4.860779    1.097289   -0.442473
      2          6           0        4.535288    0.779360    0.880213
      3          6           0        3.356922    0.087049    1.174674
      4          6           0        2.523276   -0.273537    0.117176
      5          6           0        2.819944    0.028749   -1.210944
      6          6           0        4.003579    0.721631   -1.481997
      7          1           0        5.778208    1.635315   -0.662125
      8          1           0        5.199114    1.069835    1.689537
      9          1           0        3.080562   -0.171854    2.189569
     10          1           0        2.138326   -0.274154   -1.996478
     11          1           0        4.253804    0.967200   -2.510165
     12          7           0        1.273004   -1.006758    0.416518
     13          8           0        0.555348   -1.313169   -0.533071
     14          8           0        1.034370   -1.261161    1.595064
     15          6           0       -3.764220    0.804876    0.285678
     16          6           0       -3.412852    2.132202   -0.387175
     17          6           0       -3.961291    3.342129    0.369848
     18          1           0       -4.856405    0.721899    0.370487
     19          1           0       -3.370261    0.806179    1.311441
     20          1           0       -3.806159    2.127843   -1.411825
     21          1           0       -2.321383    2.211941   -0.470565
     22          1           0       -3.559310    3.374331    1.387677
     23          1           0       -5.052522    3.289755    0.441069
     24          1           0       -3.698481    4.280422   -0.128549
     25          6           0       -3.222880   -0.413982   -0.459350
     26          6           0       -3.574249   -1.741307    0.213503
     27          6           0       -3.025810   -2.951235   -0.543520
     28          1           0       -3.616839   -0.415284   -1.485112
     29          1           0       -2.130695   -0.331005   -0.544159
     30          1           0       -4.665718   -1.821047    0.296894
     31          1           0       -3.180942   -1.736949    1.238153
     32          1           0       -1.934579   -2.898860   -0.614740
     33          1           0       -3.427790   -2.983437   -1.561349
     34          1           0       -3.288618   -3.889528   -0.045123
 ---------------------------------------------------------------------

 SCF Done:  E(RHF) =  -669.536809431     A.U. after   15 cycles
 E2 =    -0.2091889514D+01 EUMP2 =    -0.67162869894428D+03

 The electronic state is 1-A.
 Alpha  occ. eigenvalues --  -20.61194 -20.61172 -15.86182 -11.31421 -11.27970
 Alpha  occ. eigenvalues --  -11.27966 -11.27694 -11.26957 -11.26947 -11.20821
 Alpha  occ. eigenvalues --  -11.20471 -11.20290 -11.20049 -11.19822 -11.19286
 Alpha  occ. eigenvalues --   -1.60225  -1.39784  -1.19579  -1.09000  -1.07202
 Alpha  occ. eigenvalues --   -1.04960  -1.02313  -0.95855  -0.94765  -0.86365
 Alpha  occ. eigenvalues --   -0.85788  -0.82693  -0.78456  -0.77757  -0.76938
 Alpha  occ. eigenvalues --   -0.72404  -0.71527  -0.70686  -0.65236  -0.64964
 Alpha  occ. eigenvalues --   -0.63824  -0.62307  -0.59698  -0.58212  -0.56367
 Alpha  occ. eigenvalues --   -0.55468  -0.54035  -0.53297  -0.53050  -0.51521
 Alpha  occ. eigenvalues --   -0.51187  -0.49219  -0.49160  -0.48684  -0.46739
 Alpha  occ. eigenvalues --   -0.45484  -0.45290  -0.44490  -0.44167  -0.42560
 Alpha  occ. eigenvalues --   -0.37552  -0.36556
 Alpha virt. eigenvalues --    0.04732   0.11100   0.16233   0.21231   0.24021
 Alpha virt. eigenvalues --    0.25627   0.27172   0.27771   0.28199   0.28782
 Alpha virt. eigenvalues --    0.29206   0.30839   0.32293   0.32639   0.32730

 Mulliken charges:
               1
     1  C   -0.170236
     2  C   -0.218627
     3  C   -0.170346
     4  C    0.157354
     5  C   -0.170616
     6  C   -0.218561
     7  H    0.226530
     8  H    0.224285
     9  H    0.276085
    10  H    0.276354
    11  H    0.224408
    12  N    0.489650
    13  O   -0.460096
    14  O   -0.457535
    15  C   -0.297863
    16  C   -0.297872
    17  C   -0.474857
    18  H    0.145451
    19  H    0.149980
    20  H    0.149528
    21  H    0.149368
    22  H    0.154241
    23  H    0.154205
    24  H    0.156136
    25  C   -0.306860
    26  C   -0.295755
    27  C   -0.485315
    28  H    0.141954
    29  H    0.170488
    30  H    0.143084
    31  H    0.155558
    32  H    0.181600
    33  H    0.145827
    34  H    0.152452
 Sum of Mulliken charges =  -0.00000

 Dipole moment (field-independent basis, Debye):
    X=              4.9169    Y=              2.5159    Z=             -1.0020  Tot=              5.6133
 Quadrupole moment (field-independent basis, Debye-Ang):
   XX=            -73.7119   YY=            -98.6647   ZZ=            -90.1816
   XY=              5.8624   XZ=             -0.5599   YZ=              0.2037

 Normal termination of Gaussian 16 at Thu May  6 14:11:27 2021.
