 Gaussian 16, Revision A.03,
 Gaussian 16:  EM64L-G16RevA.03 25-Dec-2016

 -------------
 #p 6-31g* mp2
 -------------

 ------------------------------------------------------
 Input file generated by CHIRIPA (05-May-2021 14:55:22)
 ------------------------------------------------------
 Symbolic Z-matrix:
 Charge =  0 Multiplicity = 1

                         Standard orientation:
 ---------------------------------------------------------------------
 Center     Atomic      Atomic             Coordinates (Angstroms)
 Number     Number       Type             X           Y           Z
 ---------------------------------------------------------------------
      1          6           0        3.490822    0.960775    0.933662
      2          6           0        2.603808    0.329727    1.812016
      3          6           0        1.704438   -0.632485    1.343156
      4          6           0        1.719345   -0.940747   -0.016271
      5          6           0        2.590861   -0.329516   -0.916352
      6          6           0        3.481534    0.629723   -0.425323
      7          1           0        4.186096    1.707090    1.306495
      8          1           0        2.608787    0.584831    2.867924
      9          1           0        1.006943   -1.136461    2.001128
     10          1           0        2.562351   -0.604841   -1.963635
     11          1           0        4.169269    1.118185   -1.109772
     12          7           0        0.771826   -1.957824   -0.524367
     13          8           0        0.804839   -2.211652   -1.726497
     14          8           0        0.014088   -2.481922    0.289140
     15          6           0       -2.003455    1.409841   -0.585421
     16          6           0       -0.762508    2.062917    0.024110
     17          6           0        0.021642    2.900336   -0.986647
     18          1           0       -1.699376    0.777151   -1.430516
     19          1           0       -2.655101    2.191918   -0.999071
     20          1           0       -0.114055    1.279939    0.437718
     21          1           0       -1.069557    2.693974    0.867972
     22          1           0       -0.604857    3.701708   -1.391497
     23          1           0        0.356074    2.279637   -1.824197
     24          1           0        0.904635    3.357978   -0.529758
     25          6           0       -2.797845    0.569346    0.412699
     26          6           0       -4.038791   -0.083729   -0.196832
     27          6           0       -4.822941   -0.921149    0.813925
     28          1           0       -2.146199   -0.212731    0.826349
     29          1           0       -3.101924    1.202036    1.257794
     30          1           0       -3.731742   -0.714787   -1.040694
     31          1           0       -4.687244    0.699249   -0.610440
     32          1           0       -5.157374   -0.300450    1.651475
     33          1           0       -4.196443   -1.722521    1.218775
     34          1           0       -5.705935   -1.378791    0.357036
 ---------------------------------------------------------------------

 SCF Done:  E(RHF) =  -669.535191179     A.U. after   15 cycles
 E2 =    -0.2095274861D+01 EUMP2 =    -0.67163046603974D+03

 The electronic state is 1-A.
 Alpha  occ. eigenvalues --  -20.61001 -20.60994 -15.86025 -11.31324 -11.27910
 Alpha  occ. eigenvalues --  -11.27873 -11.27647 -11.26920 -11.26905 -11.21309
 Alpha  occ. eigenvalues --  -11.21014 -11.20971 -11.20926 -11.20786 -11.20390
 Alpha  occ. eigenvalues --   -1.60058  -1.39613  -1.19529  -1.08921  -1.07975
 Alpha  occ. eigenvalues --   -1.04916  -1.03098  -0.95765  -0.95561  -0.86587
 Alpha  occ. eigenvalues --   -0.86311  -0.82592  -0.79194  -0.77776  -0.77641
 Alpha  occ. eigenvalues --   -0.72246  -0.71390  -0.70622  -0.65173  -0.64906
 Alpha  occ. eigenvalues --   -0.64607  -0.62256  -0.60547  -0.58978  -0.57180
 Alpha  occ. eigenvalues --   -0.55411  -0.54913  -0.53189  -0.52996  -0.52256
 Alpha  occ. eigenvalues --   -0.51990  -0.49514  -0.49009  -0.49002  -0.47490
 Alpha  occ. eigenvalues --   -0.46216  -0.45437  -0.45293  -0.44777  -0.43347
 Alpha  occ. eigenvalues --   -0.37453  -0.36428
 Alpha virt. eigenvalues --    0.04840   0.11059   0.16329   0.21203   0.23045
 Alpha virt. eigenvalues --    0.24638   0.26586   0.27069   0.27978   0.28256
 Alpha virt. eigenvalues --    0.28526   0.30994   0.31535   0.31968   0.32389

 Mulliken charges:
               1
     1  C   -0.171314
     2  C   -0.213067
     3  C   -0.179556
     4  C    0.162997
     5  C   -0.171414
     6  C   -0.215448
     7  H    0.226540
     8  H    0.224673
     9  H    0.276268
    10  H    0.276017
    11  H    0.224578
    12  N    0.488528
    13  O   -0.459383
    14  O   -0.460514
    15  C   -0.300397
    16  C   -0.307083
    17  C   -0.472832
    18  H    0.153490
    19  H    0.147973
    20  H    0.158382
    21  H    0.148094
    22  H    0.154275
    23  H    0.153167
    24  H    0.154017
    25  C   -0.302687
    26  C   -0.299142
    27  C   -0.477053
    28  H    0.157635
    29  H    0.144580
    30  H    0.159060
    31  H    0.148096
    32  H    0.150655
    33  H    0.161842
    34  H    0.159024
 Sum of Mulliken charges =  -0.00000

 Dipole moment (field-independent basis, Debye):
    X=              3.5069    Y=              3.3773    Z=              1.7796  Tot=              5.1838
 Quadrupole moment (field-independent basis, Debye-Ang):
   XX=            -83.3682   YY=           -102.3392   ZZ=            -90.9105
   XY=              2.9284   XZ=              1.6269   YZ=             -1.7243

 Normal termination of Gaussian 16 at Thu May  6 03:04:48 2021.
