 Gaussian 16, Revision A.03,
 Gaussian 16:  EM64L-G16RevA.03 25-Dec-2016

 -------------
 #p 6-31g* mp2
 -------------

 ------------------------------------------------------
 Input file generated by CHIRIPA (05-May-2021 14:51:12)
 ------------------------------------------------------
 Symbolic Z-matrix:
 Charge =  0 Multiplicity = 1

                         Standard orientation:
 ---------------------------------------------------------------------
 Center     Atomic      Atomic             Coordinates (Angstroms)
 Number     Number       Type             X           Y           Z
 ---------------------------------------------------------------------
      1          6           0       -2.916142    1.219639    0.326595
      2          6           0       -1.468368    1.272640    0.815598
      3          6           0       -1.136727    2.577218    1.540777
      4          1           0       -3.101628    2.070499   -0.343164
      5          1           0       -3.590579    1.344741    1.185013
      6          1           0       -0.796877    1.146090   -0.043297
      7          1           0       -1.286252    0.421448    1.484121
      8          1           0       -1.782742    2.706936    2.415098
      9          1           0       -1.290586    3.435695    0.879002
     10          1           0       -0.096882    2.593826    1.881815
     11          6           0       -3.262908   -0.078449   -0.400349
     12          6           0       -4.710683   -0.131449   -0.889352
     13          6           0       -5.042324   -1.436028   -1.614530
     14          1           0       -2.588472   -0.203551   -1.258766
     15          1           0       -3.077422   -0.929308    0.269411
     16          1           0       -4.892798    0.719743   -1.557875
     17          1           0       -5.382174   -0.004900   -0.030457
     18          1           0       -4.888464   -2.294505   -0.952756
     19          1           0       -4.396308   -1.565745   -2.488852
     20          1           0       -6.082168   -1.452635   -1.955569
     21          6           0        2.633503   -0.634483    0.646298
     22          6           0        1.929801   -1.988892    0.737737
     23          6           0        1.021034   -2.101440    1.962184
     24          1           0        3.223576   -0.472671    1.558754
     25          1           0        1.877546    0.162446    0.617505
     26          1           0        2.686833   -2.783108    0.764955
     27          1           0        1.341487   -2.147583   -0.175127
     28          1           0        0.244668   -1.329903    1.937942
     29          1           0        1.597658   -1.969039    2.883366
     30          1           0        0.528022   -3.077509    2.007875
     31          6           0        3.545547   -0.506708   -0.572545
     32          6           0        4.249250    0.847702   -0.663983
     33          6           0        5.158017    0.960249   -1.888430
     34          1           0        4.301504   -1.303637   -0.543750
     35          1           0        2.955475   -0.668519   -1.485000
     36          1           0        4.837563    1.006392    0.248880
     37          1           0        3.492218    1.641918   -0.691202
     38          1           0        4.581393    0.827849   -2.809612
     39          1           0        5.934382    0.188712   -1.864189
     40          1           0        5.651029    1.936319   -1.934121
 ---------------------------------------------------------------------

 SCF Done:  E(RHF) =  -470.733268627     A.U. after   11 cycles
 E2 =    -0.1583252893D+01 EUMP2 =    -0.47231652152012D+03

 The electronic state is 1-A.
 Alpha  occ. eigenvalues --  -11.21683 -11.21633 -11.21593 -11.21559 -11.21456
 Alpha  occ. eigenvalues --  -11.21395 -11.21376 -11.21312 -11.21128 -11.21094
 Alpha  occ. eigenvalues --  -11.21066 -11.21005  -1.08488  -1.08398  -1.03591
 Alpha  occ. eigenvalues --   -1.03494  -0.96024  -0.95953  -0.87044  -0.86968
 Alpha  occ. eigenvalues --   -0.79695  -0.79533  -0.78336  -0.78177  -0.65122
 Alpha  occ. eigenvalues --   -0.65033  -0.61039  -0.60867  -0.59418  -0.59291
 Alpha  occ. eigenvalues --   -0.57641  -0.57560  -0.55343  -0.55218  -0.52720
 Alpha  occ. eigenvalues --   -0.52646  -0.52471  -0.52366  -0.50048  -0.49844
 Alpha  occ. eigenvalues --   -0.48094  -0.47801  -0.46759  -0.46520  -0.45959
 Alpha  occ. eigenvalues --   -0.45748  -0.45722  -0.45482  -0.43832  -0.43757
 Alpha virt. eigenvalues --    0.20623   0.23120   0.23607   0.24530   0.25625
 Alpha virt. eigenvalues --    0.26051   0.27025   0.27591   0.28496   0.29132
 Alpha virt. eigenvalues --    0.30464   0.31321   0.31647   0.31765   0.32031

 Mulliken charges:
               1
     1  C   -0.297724
     2  C   -0.307982
     3  C   -0.476464
     4  H    0.149856
     5  H    0.149861
     6  H    0.152044
     7  H    0.158866
     8  H    0.155646
     9  H    0.155421
    10  H    0.161343
    11  C   -0.298633
    12  C   -0.299673
    13  C   -0.475756
    14  H    0.149181
    15  H    0.150079
    16  H    0.152000
    17  H    0.152100
    18  H    0.155382
    19  H    0.155130
    20  H    0.160377
    21  C   -0.302581
    22  C   -0.298523
    23  C   -0.482985
    24  H    0.149291
    25  H    0.154026
    26  H    0.151663
    27  H    0.151987
    28  H    0.162028
    29  H    0.154764
    30  H    0.159737
    31  C   -0.298152
    32  C   -0.299634
    33  C   -0.475659
    34  H    0.149535
    35  H    0.149337
    36  H    0.151942
    37  H    0.151699
    38  H    0.155040
    39  H    0.155216
    40  H    0.160213
 Sum of Mulliken charges =  -0.00000

 Dipole moment (field-independent basis, Debye):
    X=             -0.0378    Y=              0.0205    Z=              0.0059  Tot=              0.0434
 Quadrupole moment (field-independent basis, Debye-Ang):
   XX=            -84.7159   YY=            -85.3543   ZZ=            -84.6960
   XY=             -0.6648   XZ=              0.5165   YZ=             -0.8221

 Normal termination of Gaussian 16 at Thu May  6 05:31:55 2021.
