 Gaussian 16, Revision A.03,
 Gaussian 16:  EM64L-G16RevA.03 25-Dec-2016

 -------------
 #p 6-31g* mp2
 -------------

 ------------------------------------------------------
 Input file generated by CHIRIPA (05-May-2021 14:53:16)
 ------------------------------------------------------
 Symbolic Z-matrix:
 Charge =  0 Multiplicity = 1

                         Standard orientation:
 ---------------------------------------------------------------------
 Center     Atomic      Atomic             Coordinates (Angstroms)
 Number     Number       Type             X           Y           Z
 ---------------------------------------------------------------------
      1          6           0        3.153308    0.910032   -0.525957
      2          6           0        2.052008    1.969836   -0.569974
      3          6           0        2.405239    3.152299   -1.472639
      4          1           0        4.086002    1.373874   -0.176846
      5          1           0        3.346287    0.549216   -1.545744
      6          1           0        1.860200    2.327549    0.449764
      7          1           0        1.121781    1.503374   -0.918839
      8          1           0        2.576502    2.814996   -2.500012
      9          1           0        3.319116    3.643853   -1.123633
     10          1           0        1.604192    3.897886   -1.489433
     11          6           0        2.814882   -0.278382    0.372303
     12          6           0        3.916183   -1.338186    0.416320
     13          6           0        3.562951   -2.520649    1.318984
     14          1           0        2.621904    0.082434    1.392090
     15          1           0        1.882189   -0.742224    0.023191
     16          1           0        4.846410   -0.871724    0.765185
     17          1           0        4.107991   -1.695899   -0.603418
     18          1           0        2.649075   -3.012203    0.969979
     19          1           0        3.391689   -2.183346    2.346358
     20          1           0        4.363999   -3.266236    1.335779
     21          6           0       -2.022426   -1.713860   -1.969280
     22          6           0       -0.993205   -1.592766   -1.029832
     23          6           0       -1.153312   -0.782689    0.098302
     24          6           0       -2.361188   -0.104903    0.256206
     25          6           0       -3.405253   -0.205138   -0.662037
     26          6           0       -3.223049   -1.020881   -1.782712
     27          1           0       -1.889469   -2.345348   -2.842744
     28          1           0       -0.059706   -2.129772   -1.172135
     29          1           0       -0.372958   -0.670928    0.841252
     30          1           0       -4.324441    0.342502   -0.492916
     31          1           0       -4.024079   -1.113036   -2.510657
     32          7           0       -2.542383    0.755689    1.446564
     33          8           0       -3.616120    1.342415    1.562657
     34          8           0       -1.607235    0.827199    2.240933
 ---------------------------------------------------------------------

 SCF Done:  E(RHF) =  -669.535237922     A.U. after   15 cycles
 E2 =    -0.2092982136D+01 EUMP2 =    -0.67162822005791D+03

 The electronic state is 1-A.
 Alpha  occ. eigenvalues --  -20.60751 -20.60745 -15.85805 -11.31172 -11.27764
 Alpha  occ. eigenvalues --  -11.27710 -11.27514 -11.26781 -11.26771 -11.22077
 Alpha  occ. eigenvalues --  -11.21922 -11.21686 -11.21620 -11.21562 -11.21103
 Alpha  occ. eigenvalues --   -1.59825  -1.39378  -1.19362  -1.08797  -1.08753
 Alpha  occ. eigenvalues --   -1.04771  -1.03814  -0.96291  -0.95585  -0.87301
 Alpha  occ. eigenvalues --   -0.86162  -0.82429  -0.79894  -0.78646  -0.77434
 Alpha  occ. eigenvalues --   -0.72024  -0.71147  -0.70471  -0.65472  -0.64995
 Alpha  occ. eigenvalues --   -0.64772  -0.62125  -0.61203  -0.59657  -0.57883
 Alpha  occ. eigenvalues --   -0.55599  -0.55264  -0.53116  -0.52956  -0.52850
 Alpha  occ. eigenvalues --   -0.52688  -0.50238  -0.48784  -0.48777  -0.48199
 Alpha  occ. eigenvalues --   -0.46938  -0.46132  -0.46024  -0.44779  -0.44095
 Alpha  occ. eigenvalues --   -0.37344  -0.36339
 Alpha virt. eigenvalues --    0.05039   0.11259   0.16447   0.19728   0.22926
 Alpha virt. eigenvalues --    0.23874   0.25444   0.26204   0.27559   0.28170
 Alpha virt. eigenvalues --    0.29733   0.30033   0.31440   0.31737   0.32217

 Mulliken charges:
               1
     1  C   -0.297461
     2  C   -0.304236
     3  C   -0.475935
     4  H    0.152395
     5  H    0.147171
     6  H    0.160432
     7  H    0.151188
     8  H    0.152839
     9  H    0.155870
    10  H    0.163085
    11  C   -0.305268
    12  C   -0.299653
    13  C   -0.475721
    14  H    0.158380
    15  H    0.139406
    16  H    0.156057
    17  H    0.150056
    18  H    0.147437
    19  H    0.160177
    20  H    0.162743
    21  C   -0.170649
    22  C   -0.222194
    23  C   -0.172256
    24  C    0.157544
    25  C   -0.170627
    26  C   -0.218837
    27  H    0.225632
    28  H    0.224097
    29  H    0.281727
    30  H    0.275623
    31  H    0.223510
    32  N    0.488506
    33  O   -0.460637
    34  O   -0.460401
 Sum of Mulliken charges =  -0.00000

 Dipole moment (field-independent basis, Debye):
    X=              0.7192    Y=             -2.9231    Z=             -4.0945  Tot=              5.0820
 Quadrupole moment (field-independent basis, Debye-Ang):
   XX=            -92.9912   YY=            -95.0905   ZZ=            -96.7399
   XY=              6.1600   XZ=             12.6356   YZ=              0.2995

 Normal termination of Gaussian 16 at Thu May  6 04:21:34 2021.
