 Gaussian 16, Revision A.03,
 Gaussian 16:  EM64L-G16RevA.03 25-Dec-2016

 -------------
 #p 6-31g* mp2
 -------------

 ------------------------------------------------------
 Input file generated by CHIRIPA (05-May-2021 14:51:08)
 ------------------------------------------------------
 Symbolic Z-matrix:
 Charge =  0 Multiplicity = 1

                         Standard orientation:
 ---------------------------------------------------------------------
 Center     Atomic      Atomic             Coordinates (Angstroms)
 Number     Number       Type             X           Y           Z
 ---------------------------------------------------------------------
      1          6           0        4.340194    0.531378   -0.223151
      2          6           0        5.699811    0.264166    0.423397
      3          6           0        6.735437    1.337618    0.087282
      4          1           0        4.465390    0.593692   -1.312825
      5          1           0        3.972135    1.513059    0.105831
      6          1           0        6.064559   -0.717324    0.094380
      7          1           0        5.571333    0.202291    1.511644
      8          1           0        6.396894    2.320487    0.430733
      9          1           0        6.892923    1.395647   -0.994583
     10          1           0        7.699938    1.126857    0.559697
     11          6           0        3.294312   -0.533099    0.103571
     12          6           0        1.934696   -0.265887   -0.542978
     13          6           0        0.899070   -1.339339   -0.206862
     14          1           0        3.662371   -1.514780   -0.225412
     15          1           0        3.169117   -0.595412    1.193244
     16          1           0        2.063173   -0.204011   -1.631224
     17          1           0        1.569947    0.715603   -0.213961
     18          1           0        0.741584   -1.397368    0.875003
     19          1           0        1.237613   -2.322208   -0.550313
     20          1           0       -0.065432   -1.128578   -0.679277
     21          6           0       -3.573921   -0.613011    0.443696
     22          6           0       -3.162003   -1.772150   -0.464437
     23          6           0       -2.677515   -2.992989    0.318261
     24          1           0       -2.721290   -0.330181    1.076130
     25          1           0       -4.367847   -0.952890    1.123076
     26          1           0       -2.370054   -1.429795   -1.142836
     27          1           0       -4.015656   -2.052128   -1.094917
     28          1           0       -3.465215   -3.361759    0.983197
     29          1           0       -1.810262   -2.735889    0.935005
     30          1           0       -2.388138   -3.809663   -0.350443
     31          6           0       -4.060586    0.614731   -0.324116
     32          6           0       -4.472504    1.773871    0.584017
     33          6           0       -4.956992    2.994710   -0.198680
     34          1           0       -3.266659    0.954611   -1.003496
     35          1           0       -4.913217    0.331901   -0.956549
     36          1           0       -3.618851    2.053848    1.214498
     37          1           0       -5.264453    1.431516    1.262417
     38          1           0       -5.824243    2.737610   -0.815425
     39          1           0       -4.169292    3.363479   -0.863617
     40          1           0       -5.246368    3.811384    0.470023
 ---------------------------------------------------------------------

 SCF Done:  E(RHF) =  -470.732988460     A.U. after   11 cycles
 E2 =    -0.1583060097D+01 EUMP2 =    -0.47231604855758D+03

 The electronic state is 1-A.
 Alpha  occ. eigenvalues --  -11.21643 -11.21620 -11.21592 -11.21551 -11.21433
 Alpha  occ. eigenvalues --  -11.21382 -11.21373 -11.21319 -11.21102 -11.21086
 Alpha  occ. eigenvalues --  -11.21064 -11.20960  -1.08464  -1.08401  -1.03583
 Alpha  occ. eigenvalues --   -1.03475  -0.96039  -0.95912  -0.87041  -0.86947
 Alpha  occ. eigenvalues --   -0.79628  -0.79561  -0.78272  -0.78220  -0.65103
 Alpha  occ. eigenvalues --   -0.65049  -0.61027  -0.60927  -0.59353  -0.59274
 Alpha  occ. eigenvalues --   -0.57646  -0.57523  -0.55318  -0.55221  -0.52684
 Alpha  occ. eigenvalues --   -0.52626  -0.52456  -0.52345  -0.49972  -0.49861
 Alpha  occ. eigenvalues --   -0.47973  -0.47860  -0.46681  -0.46556  -0.45823
 Alpha  occ. eigenvalues --   -0.45761  -0.45736  -0.45659  -0.43798  -0.43728
 Alpha virt. eigenvalues --    0.20987   0.23037   0.23761   0.24969   0.26166
 Alpha virt. eigenvalues --    0.26394   0.26770   0.27626   0.27918   0.29026
 Alpha virt. eigenvalues --    0.30522   0.30705   0.31675   0.31822   0.32310

 Mulliken charges:
               1
     1  C   -0.298233
     2  C   -0.299649
     3  C   -0.475718
     4  H    0.149694
     5  H    0.149474
     6  H    0.152000
     7  H    0.151971
     8  H    0.155186
     9  H    0.155208
    10  H    0.160331
    11  C   -0.298653
    12  C   -0.299961
    13  C   -0.481544
    14  H    0.149710
    15  H    0.149654
    16  H    0.151978
    17  H    0.151508
    18  H    0.154546
    19  H    0.156072
    20  H    0.167029
    21  C   -0.299156
    22  C   -0.302893
    23  C   -0.477980
    24  H    0.150300
    25  H    0.149596
    26  H    0.153540
    27  H    0.152205
    28  H    0.154332
    29  H    0.160084
    30  H    0.159858
    31  C   -0.298162
    32  C   -0.299592
    33  C   -0.475701
    34  H    0.149017
    35  H    0.149679
    36  H    0.151813
    37  H    0.151937
    38  H    0.155187
    39  H    0.155155
    40  H    0.160179
 Sum of Mulliken charges =  -0.00000

 Dipole moment (field-independent basis, Debye):
    X=              0.0224    Y=             -0.0127    Z=              0.0030  Tot=              0.0259
 Quadrupole moment (field-independent basis, Debye-Ang):
   XX=            -84.7361   YY=            -85.7896   ZZ=            -84.3044
   XY=             -0.0739   XZ=             -0.3209   YZ=              0.9526

 Normal termination of Gaussian 16 at Wed May  5 16:35:51 2021.
