 Gaussian 16, Revision A.03,
 Gaussian 16:  EM64L-G16RevA.03 25-Dec-2016

 -------------
 #p 6-31g* mp2
 -------------

 ------------------------------------------------------
 Input file generated by CHIRIPA (05-May-2021 14:57:26)
 ------------------------------------------------------
 Symbolic Z-matrix:
 Charge =  0 Multiplicity = 1

                         Standard orientation:
 ---------------------------------------------------------------------
 Center     Atomic      Atomic             Coordinates (Angstroms)
 Number     Number       Type             X           Y           Z
 ---------------------------------------------------------------------
      1          6           0       -5.327731    0.148488    0.846295
      2          6           0       -4.213030    0.665695    1.514471
      3          6           0       -2.924338    0.452022    1.016307
      4          6           0       -2.786334   -0.286728   -0.157785
      5          6           0       -3.877237   -0.815027   -0.846348
      6          6           0       -5.156579   -0.588922   -0.329909
      7          1           0       -6.325186    0.319302    1.240379
      8          1           0       -4.342941    1.238752    2.428130
      9          1           0       -2.043991    0.840962    1.513431
     10          1           0       -3.716044   -1.382331   -1.754974
     11          1           0       -6.020448   -0.991794   -0.850936
     12          7           0       -1.427003   -0.519514   -0.694843
     13          8           0       -1.332176   -1.173686   -1.731039
     14          8           0       -0.482125   -0.043391   -0.069422
     15          6           0        4.128094   -1.800035    1.028794
     16          6           0        3.570045   -0.842558    1.882222
     17          6           0        2.948273    0.296285    1.361659
     18          6           0        2.902310    0.446393   -0.023491
     19          6           0        3.449083   -0.489773   -0.899804
     20          6           0        4.065941   -1.620902   -0.357053
     21          1           0        4.609193   -2.681719    1.441798
     22          1           0        3.616837   -0.979051    2.958896
     23          1           0        2.508110    1.053231    1.999396
     24          1           0        3.386882   -0.326064   -1.968798
     25          1           0        4.498475   -2.362845   -1.022243
     26          7           0        2.246669    1.647953   -0.586333
     27          8           0        2.219309    1.756859   -1.810272
     28          8           0        1.772552    2.458076    0.207109
 ---------------------------------------------------------------------

 SCF Done:  E(RHF) =  -868.338735596     A.U. after   16 cycles
 E2 =    -0.2600833854D+01 EUMP2 =    -0.87093956944969D+03

 The electronic state is 1-A.
 Alpha  occ. eigenvalues --  -20.60657 -20.60646 -20.59323 -20.59294 -15.85692
 Alpha  occ. eigenvalues --  -15.84370 -11.30981 -11.29767 -11.27562 -11.27521
 Alpha  occ. eigenvalues --  -11.27306 -11.26570 -11.26545 -11.26419 -11.26353
 Alpha  occ. eigenvalues --  -11.26241 -11.25531 -11.25477  -1.59705  -1.58342
 Alpha  occ. eigenvalues --   -1.39266  -1.37919  -1.19153  -1.17970  -1.08569
 Alpha  occ. eigenvalues --   -1.07374  -1.04549  -1.03438  -0.95419  -0.94213
 Alpha  occ. eigenvalues --   -0.85952  -0.84840  -0.82263  -0.81085  -0.77301
 Alpha  occ. eigenvalues --   -0.76092  -0.72052  -0.71015  -0.70647  -0.70276
 Alpha  occ. eigenvalues --   -0.69447  -0.69178  -0.64812  -0.64559  -0.63680
 Alpha  occ. eigenvalues --   -0.63509  -0.61894  -0.60818  -0.55070  -0.54005
 Alpha  occ. eigenvalues --   -0.52879  -0.52646  -0.51716  -0.51584  -0.48690
 Alpha  occ. eigenvalues --   -0.48664  -0.47388  -0.47366  -0.44683  -0.43335
 Alpha  occ. eigenvalues --   -0.37137  -0.36147  -0.35918  -0.35029
 Alpha virt. eigenvalues --    0.05231   0.06559   0.11510   0.12621   0.16727
 Alpha virt. eigenvalues --    0.17976   0.21619   0.22513   0.27528   0.28335
 Alpha virt. eigenvalues --    0.28540   0.29439   0.31151   0.31966   0.32780

 Mulliken charges:
               1
     1  C   -0.170567
     2  C   -0.218815
     3  C   -0.169270
     4  C    0.158378
     5  C   -0.170403
     6  C   -0.218833
     7  H    0.224984
     8  H    0.223341
     9  H    0.278413
    10  H    0.275054
    11  H    0.222714
    12  N    0.493608
    13  O   -0.459860
    14  O   -0.466718
    15  C   -0.172048
    16  C   -0.219559
    17  C   -0.167199
    18  C    0.176338
    19  C   -0.166066
    20  C   -0.218725
    21  H    0.219602
    22  H    0.216403
    23  H    0.269157
    24  H    0.274564
    25  H    0.218984
    26  N    0.498007
    27  O   -0.462867
    28  O   -0.468618
 Sum of Mulliken charges =  -0.00000

 Dipole moment (field-independent basis, Debye):
    X=             -2.7701    Y=             -3.3492    Z=              3.7096  Tot=              5.7142
 Quadrupole moment (field-independent basis, Debye-Ang):
   XX=            -66.2673   YY=           -109.0263   ZZ=            -99.0149
   XY=            -11.4507   XZ=              1.2435   YZ=              4.4904

 Normal termination of Gaussian 16 at Wed May  5 16:31:07 2021.
