 Gaussian 16, Revision A.03,
 Gaussian 16:  EM64L-G16RevA.03 25-Dec-2016

 -------------
 #p 6-31g* mp2
 -------------

 ------------------------------------------------------
 Input file generated by CHIRIPA (05-May-2021 14:51:13)
 ------------------------------------------------------
 Symbolic Z-matrix:
 Charge =  0 Multiplicity = 1

                         Standard orientation:
 ---------------------------------------------------------------------
 Center     Atomic      Atomic             Coordinates (Angstroms)
 Number     Number       Type             X           Y           Z
 ---------------------------------------------------------------------
      1          6           0       -2.682037    0.875033    0.299046
      2          6           0       -2.610642    2.334540   -0.151206
      3          6           0       -2.563933    3.313589    1.022281
      4          1           0       -3.570365    0.735711    0.930241
      5          1           0       -1.811430    0.650450    0.930712
      6          1           0       -3.480404    2.555917   -0.782968
      7          1           0       -1.722485    2.470360   -0.781560
      8          1           0       -1.687753    3.121169    1.649883
      9          1           0       -3.455660    3.207212    1.648467
     10          1           0       -2.513159    4.351155    0.677696
     11          6           0       -2.729327   -0.115751   -0.862780
     12          6           0       -2.800721   -1.575258   -0.412528
     13          6           0       -2.847431   -2.554307   -1.586016
     14          1           0       -3.599934    0.108832   -1.494446
     15          1           0       -1.840999    0.023571   -1.493975
     16          1           0       -3.688879   -1.711078    0.217826
     17          1           0       -1.930960   -1.796635    0.219234
     18          1           0       -1.955704   -2.447930   -2.212201
     19          1           0       -3.723611   -2.361887   -2.213618
     20          1           0       -2.898205   -3.591873   -1.241431
     21          6           0        2.901010    0.115053   -0.266363
     22          6           0        4.395874    0.435748   -0.289206
     23          6           0        4.771092    1.426787   -1.391408
     24          1           0        2.604669   -0.291194   -1.243138
     25          1           0        2.335164    1.047169   -0.130810
     26          1           0        4.958787   -0.496864   -0.423290
     27          1           0        4.688730    0.841101    0.687799
     28          1           0        4.235257    2.372164   -1.258193
     29          1           0        4.506850    1.026597   -2.375595
     30          1           0        5.844213    1.641887   -1.389600
     31          6           0        2.510354   -0.874335    0.830098
     32          6           0        1.015490   -1.195030    0.852941
     33          6           0        0.640272   -2.186069    1.955142
     34          1           0        3.076200   -1.806450    0.694545
     35          1           0        2.806695   -0.468087    1.806873
     36          1           0        0.722634   -1.600383   -0.124065
     37          1           0        0.452577   -0.262419    0.987023
     38          1           0        0.904515   -1.785878    2.939329
     39          1           0        1.176107   -3.131445    1.821927
     40          1           0       -0.432849   -2.401169    1.953334
 ---------------------------------------------------------------------

 SCF Done:  E(RHF) =  -470.732530012     A.U. after   11 cycles
 E2 =    -0.1584541786D+01 EUMP2 =    -0.47231707179823D+03

 The electronic state is 1-A.
 Alpha  occ. eigenvalues --  -11.21696 -11.21653 -11.21588 -11.21508 -11.21480
 Alpha  occ. eigenvalues --  -11.21420 -11.21356 -11.21296 -11.21138 -11.21112
 Alpha  occ. eigenvalues --  -11.21079 -11.21047  -1.08525  -1.08379  -1.03625
 Alpha  occ. eigenvalues --   -1.03487  -0.96054  -0.95955  -0.87069  -0.86968
 Alpha  occ. eigenvalues --   -0.79682  -0.79571  -0.78384  -0.78157  -0.65171
 Alpha  occ. eigenvalues --   -0.65032  -0.61119  -0.60858  -0.59479  -0.59244
 Alpha  occ. eigenvalues --   -0.57673  -0.57550  -0.55375  -0.55210  -0.52769
 Alpha  occ. eigenvalues --   -0.52644  -0.52511  -0.52354  -0.50014  -0.49873
 Alpha  occ. eigenvalues --   -0.48038  -0.47847  -0.46822  -0.46487  -0.46022
 Alpha  occ. eigenvalues --   -0.45808  -0.45703  -0.45391  -0.43858  -0.43748
 Alpha virt. eigenvalues --    0.20364   0.23087   0.23363   0.24290   0.26036
 Alpha virt. eigenvalues --    0.26264   0.26940   0.27817   0.28405   0.29522
 Alpha virt. eigenvalues --    0.30225   0.30831   0.31680   0.31925   0.32626

 Mulliken charges:
               1
     1  C   -0.304183
     2  C   -0.299714
     3  C   -0.475488
     4  H    0.149507
     5  H    0.154673
     6  H    0.152072
     7  H    0.151925
     8  H    0.154260
     9  H    0.155329
    10  H    0.160250
    11  C   -0.297134
    12  C   -0.311144
    13  C   -0.475411
    14  H    0.149223
    15  H    0.150135
    16  H    0.151163
    17  H    0.164739
    18  H    0.154529
    19  H    0.155182
    20  H    0.159913
    21  C   -0.298371
    22  C   -0.299716
    23  C   -0.475788
    24  H    0.149539
    25  H    0.149153
    26  H    0.152146
    27  H    0.152125
    28  H    0.155253
    29  H    0.155237
    30  H    0.160496
    31  C   -0.297794
    32  C   -0.306927
    33  C   -0.480848
    34  H    0.149982
    35  H    0.149922
    36  H    0.152912
    37  H    0.156762
    38  H    0.155801
    39  H    0.155956
    40  H    0.164335
 Sum of Mulliken charges =  -0.00000

 Dipole moment (field-independent basis, Debye):
    X=              0.0420    Y=             -0.0132    Z=              0.0178  Tot=              0.0475
 Quadrupole moment (field-independent basis, Debye-Ang):
   XX=            -83.9571   YY=            -85.3851   ZZ=            -85.4770
   XY=             -0.5343   XZ=              0.1590   YZ=              0.3695

 Normal termination of Gaussian 16 at Wed May  5 19:58:22 2021.
