 Gaussian 16, Revision A.03,
 Gaussian 16:  EM64L-G16RevA.03 25-Dec-2016

 -------------
 #p 6-31g* mp2
 -------------

 ------------------------------------------------------
 Input file generated by CHIRIPA (05-May-2021 14:53:11)
 ------------------------------------------------------
 Symbolic Z-matrix:
 Charge =  0 Multiplicity = 1

                         Standard orientation:
 ---------------------------------------------------------------------
 Center     Atomic      Atomic             Coordinates (Angstroms)
 Number     Number       Type             X           Y           Z
 ---------------------------------------------------------------------
      1          6           0        3.601187   -0.160791    0.102261
      2          6           0        3.920600   -0.812665   -1.243480
      3          6           0        4.810346   -2.048413   -1.105379
      4          1           0        4.540388    0.115703    0.600658
      5          1           0        3.108285   -0.897991    0.751090
      6          1           0        4.411508   -0.074051   -1.890067
      7          1           0        2.980524   -1.087466   -1.738817
      8          1           0        4.323981   -2.805569   -0.481869
      9          1           0        5.763096   -1.786397   -0.633979
     10          1           0        5.026201   -2.498574   -2.079351
     11          6           0        2.712554    1.075846   -0.019349
     12          6           0        2.393142    1.727720    1.326393
     13          6           0        1.503395    2.963468    1.188291
     14          1           0        3.205456    1.813046   -0.668177
     15          1           0        1.773354    0.799352   -0.517745
     16          1           0        3.333218    2.002520    1.821729
     17          1           0        1.902234    0.989106    1.972980
     18          1           0        0.550646    2.701451    0.716892
     19          1           0        1.989760    3.720624    0.564781
     20          1           0        1.287540    3.413628    2.162264
     21          6           0       -1.565815   -2.380471    1.176909
     22          6           0       -0.718633   -1.307751    0.880132
     23          6           0       -1.206711   -0.181753    0.210463
     24          6           0       -2.553361   -0.161864   -0.149298
     25          6           0       -3.422477   -1.214796    0.132237
     26          6           0       -2.912659   -2.330658    0.802673
     27          1           0       -1.178220   -3.251236    1.697422
     28          1           0        0.327783   -1.343685    1.169556
     29          1           0       -0.572953    0.662693   -0.031778
     30          1           0       -4.460962   -1.149990   -0.169042
     31          1           0       -3.572908   -3.162281    1.031845
     32          7           0       -3.081576    1.024814   -0.858653
     33          8           0       -4.271890    1.017865   -1.164825
     34          8           0       -2.295275    1.939410   -1.095042
 ---------------------------------------------------------------------

 SCF Done:  E(RHF) =  -669.535018411     A.U. after   15 cycles
 E2 =    -0.2093311994D+01 EUMP2 =    -0.67162833040511D+03

 The electronic state is 1-A.
 Alpha  occ. eigenvalues --  -20.60798 -20.60793 -15.85844 -11.31196 -11.27772
 Alpha  occ. eigenvalues --  -11.27742 -11.27514 -11.26789 -11.26773 -11.22192
 Alpha  occ. eigenvalues --  -11.22150 -11.22096 -11.22035 -11.21565 -11.21314
 Alpha  occ. eigenvalues --   -1.59868  -1.39423  -1.19374  -1.09071  -1.08771
 Alpha  occ. eigenvalues --   -1.04783  -1.04050  -0.96484  -0.95608  -0.87488
 Alpha  occ. eigenvalues --   -0.86181  -0.82442  -0.80104  -0.78890  -0.77498
 Alpha  occ. eigenvalues --   -0.72065  -0.71187  -0.70512  -0.65799  -0.65013
 Alpha  occ. eigenvalues --   -0.64802  -0.62229  -0.61300  -0.59846  -0.58087
 Alpha  occ. eigenvalues --   -0.55801  -0.55278  -0.53142  -0.53105  -0.52906
 Alpha  occ. eigenvalues --   -0.52849  -0.50442  -0.48822  -0.48818  -0.48392
 Alpha  occ. eigenvalues --   -0.47150  -0.46383  -0.46349  -0.44827  -0.44332
 Alpha  occ. eigenvalues --   -0.37355  -0.36372
 Alpha virt. eigenvalues --    0.05009   0.11238   0.16483   0.18102   0.22772
 Alpha virt. eigenvalues --    0.23533   0.24834   0.25658   0.27277   0.28532
 Alpha virt. eigenvalues --    0.29704   0.31122   0.31421   0.31565   0.31935

 Mulliken charges:
               1
     1  C   -0.298758
     2  C   -0.300556
     3  C   -0.475621
     4  H    0.153654
     5  H    0.140689
     6  H    0.155861
     7  H    0.152899
     8  H    0.152238
     9  H    0.156589
    10  H    0.162882
    11  C   -0.304290
    12  C   -0.303947
    13  C   -0.481934
    14  H    0.157331
    15  H    0.145950
    16  H    0.155877
    17  H    0.144590
    18  H    0.163427
    19  H    0.160243
    20  H    0.163046
    21  C   -0.171100
    22  C   -0.227033
    23  C   -0.182615
    24  C    0.159145
    25  C   -0.169927
    26  C   -0.218735
    27  H    0.225951
    28  H    0.229046
    29  H    0.290172
    30  H    0.275682
    31  H    0.223577
    32  N    0.487454
    33  O   -0.459906
    34  O   -0.461878
 Sum of Mulliken charges =  -0.00000

 Dipole moment (field-independent basis, Debye):
    X=              1.9753    Y=             -4.0440    Z=              2.4290  Tot=              5.1143
 Quadrupole moment (field-independent basis, Debye-Ang):
   XX=            -99.2557   YY=            -93.0058   ZZ=            -96.3104
   XY=             14.1058   XZ=             -6.8401   YZ=              0.1957

 Normal termination of Gaussian 16 at Wed May  5 21:41:30 2021.
