 Gaussian 16, Revision A.03,
 Gaussian 16:  EM64L-G16RevA.03 25-Dec-2016

 -------------
 #p 6-31g* mp2
 -------------

 ------------------------------------------------------
 Input file generated by CHIRIPA (05-May-2021 14:53:12)
 ------------------------------------------------------
 Symbolic Z-matrix:
 Charge =  0 Multiplicity = 1

                         Standard orientation:
 ---------------------------------------------------------------------
 Center     Atomic      Atomic             Coordinates (Angstroms)
 Number     Number       Type             X           Y           Z
 ---------------------------------------------------------------------
      1          6           0        2.464831   -1.171171    0.094700
      2          6           0        1.445488   -1.567806   -0.973759
      3          6           0        0.469421   -2.640788   -0.490231
      4          1           0        3.024161   -2.063347    0.407936
      5          1           0        1.931081   -0.808633    0.984123
      6          1           0        1.981034   -1.928187   -1.861414
      7          1           0        0.888650   -0.674548   -1.284625
      8          1           0       -0.090582   -2.287429    0.381626
      9          1           0        1.008009   -3.548192   -0.198440
     10          1           0       -0.250378   -2.909358   -1.269730
     11          6           0        3.447499   -0.099398   -0.373696
     12          6           0        4.466842    0.297237    0.694763
     13          6           0        5.442908    1.370218    0.211235
     14          1           0        3.981249   -0.461936   -1.263119
     15          1           0        2.888169    0.792778   -0.686932
     16          1           0        5.023679   -0.596022    1.005629
     17          1           0        3.931295    0.657618    1.582418
     18          1           0        4.904321    2.277622   -0.080556
     19          1           0        6.002911    1.016860   -0.660622
     20          1           0        6.162708    1.638789    0.990734
     21          6           0       -2.895618   -1.896397    0.654250
     22          6           0       -2.512503   -1.019598    1.674528
     23          6           0       -2.185561    0.308279    1.384012
     24          6           0       -2.252841    0.727635    0.056269
     25          6           0       -2.630938   -0.121877   -0.982318
     26          6           0       -2.953510   -1.445533   -0.668584
     27          1           0       -3.147896   -2.926285    0.888947
     28          1           0       -2.466656   -1.366984    2.702762
     29          1           0       -1.885783    1.008302    2.154413
     30          1           0       -2.667287    0.253507   -1.997791
     31          1           0       -3.250708   -2.124241   -1.462986
     32          7           0       -1.909034    2.131165   -0.263576
     33          8           0       -1.976206    2.476056   -1.441361
     34          8           0       -1.578899    2.859785    0.669569
 ---------------------------------------------------------------------

 SCF Done:  E(RHF) =  -669.534068891     A.U. after   15 cycles
 E2 =    -0.2094159108D+01 EUMP2 =    -0.67162822799843D+03

 The electronic state is 1-A.
 Alpha  occ. eigenvalues --  -20.60857 -20.60851 -15.85912 -11.31295 -11.27875
 Alpha  occ. eigenvalues --  -11.27854 -11.27546 -11.26850 -11.26817 -11.21607
 Alpha  occ. eigenvalues --  -11.21437 -11.21361 -11.21207 -11.21110 -11.20844
 Alpha  occ. eigenvalues --   -1.59934  -1.39486  -1.19468  -1.08858  -1.08343
 Alpha  occ. eigenvalues --   -1.04866  -1.03454  -0.95923  -0.95676  -0.86942
 Alpha  occ. eigenvalues --   -0.86257  -0.82514  -0.79535  -0.78154  -0.77563
 Alpha  occ. eigenvalues --   -0.72127  -0.71261  -0.70555  -0.65109  -0.64984
 Alpha  occ. eigenvalues --   -0.64861  -0.62210  -0.60898  -0.59309  -0.57530
 Alpha  occ. eigenvalues --   -0.55407  -0.55348  -0.53197  -0.52951  -0.52509
 Alpha  occ. eigenvalues --   -0.52290  -0.49781  -0.48888  -0.48882  -0.47840
 Alpha  occ. eigenvalues --   -0.46569  -0.45692  -0.45618  -0.44888  -0.43730
 Alpha  occ. eigenvalues --   -0.37302  -0.36441
 Alpha virt. eigenvalues --    0.04957   0.11096   0.16411   0.21171   0.22901
 Alpha virt. eigenvalues --    0.24361   0.26663   0.26838   0.27600   0.28028
 Alpha virt. eigenvalues --    0.28499   0.30506   0.31483   0.31791   0.32063

 Mulliken charges:
               1
     1  C   -0.298069
     2  C   -0.299765
     3  C   -0.477250
     4  H    0.148038
     5  H    0.148137
     6  H    0.151225
     7  H    0.153171
     8  H    0.160423
     9  H    0.150891
    10  H    0.151744
    11  C   -0.299416
    12  C   -0.299522
    13  C   -0.476197
    14  H    0.149032
    15  H    0.154684
    16  H    0.150043
    17  H    0.152291
    18  H    0.158642
    19  H    0.154455
    20  H    0.159638
    21  C   -0.169426
    22  C   -0.220365
    23  C   -0.171187
    24  C    0.158939
    25  C   -0.171451
    26  C   -0.212550
    27  H    0.226728
    28  H    0.224199
    29  H    0.275961
    30  H    0.276107
    31  H    0.223692
    32  N    0.487710
    33  O   -0.460109
    34  O   -0.460443
 Sum of Mulliken charges =  -0.00000

 Dipole moment (field-independent basis, Debye):
    X=             -1.3233    Y=             -4.8589    Z=              1.1420  Tot=              5.1637
 Quadrupole moment (field-independent basis, Debye-Ang):
   XX=            -89.9813   YY=           -102.8364   ZZ=            -89.9525
   XY=              9.9589   XZ=             -1.7314   YZ=              1.7865

 Normal termination of Gaussian 16 at Thu May  6 04:08:06 2021.
