 Gaussian 16, Revision A.03,
 Gaussian 16:  EM64L-G16RevA.03 25-Dec-2016

 -------------
 #p 6-31g* mp2
 -------------

 ------------------------------------------------------
 Input file generated by CHIRIPA (05-May-2021 14:51:09)
 ------------------------------------------------------
 Symbolic Z-matrix:
 Charge =  0 Multiplicity = 1

                         Standard orientation:
 ---------------------------------------------------------------------
 Center     Atomic      Atomic             Coordinates (Angstroms)
 Number     Number       Type             X           Y           Z
 ---------------------------------------------------------------------
      1          6           0       -2.701408   -0.074962   -0.029399
      2          6           0       -4.084515    0.194385   -0.623075
      3          6           0       -4.385770    1.686490   -0.766817
      4          1           0       -2.630120    0.411274    0.953168
      5          1           0       -1.938914    0.394293   -0.666421
      6          1           0       -4.844079   -0.276414    0.014127
      7          1           0       -4.152586   -0.292709   -1.604259
      8          1           0       -3.649856    2.166937   -1.419659
      9          1           0       -4.345278    2.183325    0.207922
     10          1           0       -5.379427    1.856195   -1.193088
     11          6           0       -2.385619   -1.562085    0.120503
     12          6           0       -1.002512   -1.831433    0.714179
     13          6           0       -0.701257   -3.323538    0.857921
     14          1           0       -3.148113   -2.031341    0.757525
     15          1           0       -2.456907   -2.048321   -0.862064
     16          1           0       -0.934440   -1.344338    1.695363
     17          1           0       -0.242948   -1.360633    0.076977
     18          1           0       -0.741749   -3.820372   -0.116818
     19          1           0       -1.437171   -3.803985    1.510763
     20          1           0        0.292400   -3.493242    1.284192
     21          6           0        2.566427    0.056743   -0.096514
     22          6           0        3.868824   -0.471804   -0.698500
     23          6           0        3.899586   -1.997499   -0.793905
     24          1           0        2.429326   -0.377425    0.903308
     25          1           0        1.721146   -0.290529   -0.706676
     26          1           0        4.711496   -0.122490   -0.088174
     27          1           0        4.002935   -0.036178   -1.696929
     28          1           0        3.078189   -2.360987   -1.419831
     29          1           0        3.790776   -2.447789    0.198063
     30          1           0        4.839458   -2.353799   -1.226977
     31          6           0        2.520600    1.580304    0.005411
     32          6           0        1.218203    2.108851    0.607396
     33          6           0        1.187441    3.634547    0.702800
     34          1           0        3.365880    1.927576    0.615572
     35          1           0        2.657701    2.014473   -0.994413
     36          1           0        1.084091    1.673226    1.605825
     37          1           0        0.375530    1.759537   -0.002930
     38          1           0        1.296250    4.084837   -0.289167
     39          1           0        2.008837    3.998035    1.328728
     40          1           0        0.247569    3.990846    1.135873
 ---------------------------------------------------------------------

 SCF Done:  E(RHF) =  -470.732965661     A.U. after   11 cycles
 E2 =    -0.1584084065D+01 EUMP2 =    -0.47231704972600D+03

 The electronic state is 1-A.
 Alpha  occ. eigenvalues --  -11.21615 -11.21599 -11.21560 -11.21474 -11.21406
 Alpha  occ. eigenvalues --  -11.21385 -11.21347 -11.21316 -11.21090 -11.21074
 Alpha  occ. eigenvalues --  -11.21048 -11.21009  -1.08456  -1.08379  -1.03529
 Alpha  occ. eigenvalues --   -1.03488  -0.95984  -0.95944  -0.87004  -0.86954
 Alpha  occ. eigenvalues --   -0.79629  -0.79529  -0.78451  -0.78008  -0.65171
 Alpha  occ. eigenvalues --   -0.64938  -0.60959  -0.60867  -0.59368  -0.59298
 Alpha  occ. eigenvalues --   -0.57652  -0.57493  -0.55290  -0.55223  -0.52686
 Alpha  occ. eigenvalues --   -0.52624  -0.52442  -0.52341  -0.49977  -0.49845
 Alpha  occ. eigenvalues --   -0.48002  -0.47817  -0.46749  -0.46632  -0.46204
 Alpha  occ. eigenvalues --   -0.45805  -0.45639  -0.45006  -0.43783  -0.43739
 Alpha virt. eigenvalues --    0.20939   0.22914   0.23573   0.24331   0.24896
 Alpha virt. eigenvalues --    0.26217   0.27271   0.27651   0.28314   0.29631
 Alpha virt. eigenvalues --    0.30804   0.31289   0.31628   0.31914   0.32295

 Mulliken charges:
               1
     1  C   -0.300726
     2  C   -0.299531
     3  C   -0.475621
     4  H    0.150347
     5  H    0.150988
     6  H    0.152113
     7  H    0.151727
     8  H    0.154859
     9  H    0.155224
    10  H    0.160278
    11  C   -0.297986
    12  C   -0.306853
    13  C   -0.475429
    14  H    0.149254
    15  H    0.148862
    16  H    0.151260
    17  H    0.160903
    18  H    0.154520
    19  H    0.154711
    20  H    0.160255
    21  C   -0.302315
    22  C   -0.299096
    23  C   -0.475808
    24  H    0.151051
    25  H    0.152547
    26  H    0.152030
    27  H    0.151703
    28  H    0.155055
    29  H    0.155145
    30  H    0.160443
    31  C   -0.298013
    32  C   -0.303598
    33  C   -0.475621
    34  H    0.149486
    35  H    0.149119
    36  H    0.152164
    37  H    0.156281
    38  H    0.154814
    39  H    0.154968
    40  H    0.160489
 Sum of Mulliken charges =  -0.00000

 Dipole moment (field-independent basis, Debye):
    X=              0.0211    Y=              0.0101    Z=              0.0045  Tot=              0.0239
 Quadrupole moment (field-independent basis, Debye-Ang):
   XX=            -84.6762   YY=            -87.1864   ZZ=            -83.0458
   XY=              0.4764   XZ=             -0.0265   YZ=              0.0119

 Normal termination of Gaussian 16 at Wed May  5 16:39:05 2021.
