 Gaussian 16, Revision A.03,
 Gaussian 16:  EM64L-G16RevA.03 25-Dec-2016

 -------------
 #p 6-31g* mp2
 -------------

 ------------------------------------------------------
 Input file generated by CHIRIPA (05-May-2021 14:51:14)
 ------------------------------------------------------
 Symbolic Z-matrix:
 Charge =  0 Multiplicity = 1

                         Standard orientation:
 ---------------------------------------------------------------------
 Center     Atomic      Atomic             Coordinates (Angstroms)
 Number     Number       Type             X           Y           Z
 ---------------------------------------------------------------------
      1          6           0       -1.849169    1.133453   -0.223658
      2          6           0       -1.459704    2.484578    0.376976
      3          6           0       -0.049459    2.923063   -0.018922
      4          1           0       -1.123633    0.373674    0.097710
      5          1           0       -1.776189    1.192021   -1.318482
      6          1           0       -1.534731    2.423892    1.470276
      7          1           0       -2.186360    3.241192    0.054296
      8          1           0        0.035281    3.011567   -1.106850
      9          1           0        0.690613    2.189623    0.317176
     10          1           0        0.208335    3.891348    0.421334
     11          6           0       -3.256283    0.681557    0.163057
     12          6           0       -3.645749   -0.669568   -0.437577
     13          6           0       -5.055993   -1.108052   -0.041679
     14          1           0       -3.329263    0.622989    1.257881
     15          1           0       -3.981819    1.441336   -0.158311
     16          1           0       -2.919092   -1.426181   -0.114897
     17          1           0       -3.570722   -0.608881   -1.530877
     18          1           0       -5.796065   -0.374613   -0.377777
     19          1           0       -5.140733   -1.196557    1.046249
     20          1           0       -5.313787   -2.076338   -0.481935
     21          6           0        2.007167   -1.247079    0.443201
     22          6           0        0.878727   -1.831780   -0.406936
     23          6           0       -0.205101   -2.507774    0.433387
     24          1           0        2.455521   -2.047945    1.046971
     25          1           0        1.584753   -0.520864    1.151419
     26          1           0        1.303326   -2.555658   -1.114280
     27          1           0        0.433134   -1.029466   -1.008895
     28          1           0       -0.655820   -1.792190    1.128652
     29          1           0        0.219315   -3.327054    1.022668
     30          1           0       -1.001883   -2.918727   -0.194399
     31          6           0        3.098285   -0.567931   -0.382600
     32          6           0        4.226725    0.016770    0.467537
     33          6           0        5.310553    0.692764   -0.372786
     34          1           0        3.520699   -1.294146   -1.090818
     35          1           0        2.649931    0.232934   -0.986369
     36          1           0        4.672319   -0.785544    1.069495
     37          1           0        3.802127    0.740647    1.174881
     38          1           0        4.886136    1.512044   -0.962067
     39          1           0        5.761272   -0.022820   -1.068051
     40          1           0        6.107335    1.103717    0.255000
 ---------------------------------------------------------------------

 SCF Done:  E(RHF) =  -470.731613727     A.U. after   11 cycles
 E2 =    -0.1585752819D+01 EUMP2 =    -0.47231736654680D+03

 The electronic state is 1-A.
 Alpha  occ. eigenvalues --  -11.21639 -11.21606 -11.21595 -11.21479 -11.21440
 Alpha  occ. eigenvalues --  -11.21380 -11.21365 -11.21322 -11.21152 -11.21137
 Alpha  occ. eigenvalues --  -11.21060 -11.21019  -1.08515  -1.08378  -1.03567
 Alpha  occ. eigenvalues --   -1.03525  -0.96052  -0.95959  -0.87073  -0.86972
 Alpha  occ. eigenvalues --   -0.79699  -0.79521  -0.78309  -0.78227  -0.65463
 Alpha  occ. eigenvalues --   -0.64773  -0.60980  -0.60953  -0.59461  -0.59278
 Alpha  occ. eigenvalues --   -0.57637  -0.57589  -0.55527  -0.55076  -0.52780
 Alpha  occ. eigenvalues --   -0.52644  -0.52493  -0.52336  -0.50039  -0.49877
 Alpha  occ. eigenvalues --   -0.48065  -0.47806  -0.46754  -0.46518  -0.46019
 Alpha  occ. eigenvalues --   -0.45821  -0.45617  -0.45366  -0.43789  -0.43761
 Alpha virt. eigenvalues --    0.19489   0.22295   0.24109   0.24452   0.26113
 Alpha virt. eigenvalues --    0.26189   0.26947   0.27689   0.28413   0.30599
 Alpha virt. eigenvalues --    0.30687   0.31344   0.31614   0.31846   0.32253

 Mulliken charges:
               1
     1  C   -0.309035
     2  C   -0.298758
     3  C   -0.479529
     4  H    0.161916
     5  H    0.148743
     6  H    0.151517
     7  H    0.152309
     8  H    0.155272
     9  H    0.157172
    10  H    0.160850
    11  C   -0.297104
    12  C   -0.308953
    13  C   -0.475045
    14  H    0.148533
    15  H    0.149504
    16  H    0.163165
    17  H    0.150671
    18  H    0.154744
    19  H    0.154877
    20  H    0.159766
    21  C   -0.300322
    22  C   -0.305712
    23  C   -0.480773
    24  H    0.150196
    25  H    0.149291
    26  H    0.153328
    27  H    0.157270
    28  H    0.155156
    29  H    0.156470
    30  H    0.163490
    31  C   -0.299939
    32  C   -0.299880
    33  C   -0.475794
    34  H    0.149730
    35  H    0.151984
    36  H    0.151867
    37  H    0.151922
    38  H    0.155769
    39  H    0.155077
    40  H    0.160253
 Sum of Mulliken charges =  -0.00000

 Dipole moment (field-independent basis, Debye):
    X=              0.0316    Y=             -0.0328    Z=             -0.0122  Tot=              0.0472
 Quadrupole moment (field-independent basis, Debye-Ang):
   XX=            -86.3446   YY=            -84.2124   ZZ=            -84.3836
   XY=             -1.4832   XZ=              0.8252   YZ=              0.0039

 Normal termination of Gaussian 16 at Wed May  5 16:54:51 2021.
