 Gaussian 16, Revision A.03,
 Gaussian 16:  EM64L-G16RevA.03 25-Dec-2016

 -------------
 #p 6-31g* mp2
 -------------

 ------------------------------------------------------
 Input file generated by CHIRIPA (05-May-2021 14:55:19)
 ------------------------------------------------------
 Symbolic Z-matrix:
 Charge =  0 Multiplicity = 1

                         Standard orientation:
 ---------------------------------------------------------------------
 Center     Atomic      Atomic             Coordinates (Angstroms)
 Number     Number       Type             X           Y           Z
 ---------------------------------------------------------------------
      1          6           0        2.244680    2.159423   -0.552561
      2          6           0        1.664936    0.936022   -0.904282
      3          6           0        2.357151   -0.261770   -0.702587
      4          6           0        3.633009   -0.199022   -0.144431
      5          6           0        4.237532    1.004167    0.216371
      6          6           0        3.526867    2.189538    0.005659
      7          1           0        1.699784    3.085072   -0.712744
      8          1           0        0.669322    0.909606   -1.337987
      9          1           0        1.932077   -1.222753   -0.965725
     10          1           0        5.231585    0.998589    0.646772
     11          1           0        3.979593    3.138194    0.279770
     12          7           0        4.375592   -1.460495    0.073867
     13          8           0        5.498295   -1.378273    0.567238
     14          8           0        3.820865   -2.507575   -0.252535
     15          6           0       -3.940017    0.069746    0.750925
     16          6           0       -2.611556    0.536198    0.154601
     17          6           0       -1.513951    0.693839    1.207315
     18          1           0       -4.263993    0.788901    1.515648
     19          1           0       -3.785955   -0.887720    1.267568
     20          1           0       -2.768371    1.491816   -0.361946
     21          1           0       -2.290801   -0.184050   -0.608925
     22          1           0       -1.328525   -0.257717    1.715999
     23          1           0       -1.808808    1.427671    1.964382
     24          1           0       -0.572975    1.028018    0.759266
     25          6           0       -5.047177   -0.092491   -0.289076
     26          6           0       -6.375637   -0.558943    0.307247
     27          6           0       -7.473242   -0.716582   -0.745467
     28          1           0       -5.201238    0.864975   -0.805719
     29          1           0       -4.723201   -0.811645   -1.053799
     30          1           0       -6.696392    0.161307    1.070774
     31          1           0       -6.218823   -1.514560    0.823794
     32          1           0       -7.178386   -1.450416   -1.502534
     33          1           0       -7.658669    0.234973   -1.254151
     34          1           0       -8.414219   -1.050763   -0.297418
 ---------------------------------------------------------------------

 SCF Done:  E(RHF) =  -669.534868252     A.U. after   15 cycles
 E2 =    -0.2092021229D+01 EUMP2 =    -0.67162688948071D+03

 The electronic state is 1-A.
 Alpha  occ. eigenvalues --  -20.60785 -20.60780 -15.85838 -11.31222 -11.27787
 Alpha  occ. eigenvalues --  -11.27783 -11.27538 -11.26807 -11.26787 -11.22292
 Alpha  occ. eigenvalues --  -11.21922 -11.21875 -11.21773 -11.21572 -11.21341
 Alpha  occ. eigenvalues --   -1.59859  -1.39412  -1.19400  -1.08901  -1.08791
 Alpha  occ. eigenvalues --   -1.04811  -1.03997  -0.96427  -0.95621  -0.87446
 Alpha  occ. eigenvalues --   -0.86200  -0.82452  -0.80074  -0.78702  -0.77499
 Alpha  occ. eigenvalues --   -0.72057  -0.71182  -0.70499  -0.65526  -0.65051
 Alpha  occ. eigenvalues --   -0.64848  -0.62194  -0.61387  -0.59809  -0.58057
 Alpha  occ. eigenvalues --   -0.55692  -0.55299  -0.53493  -0.52965  -0.52953
 Alpha  occ. eigenvalues --   -0.52551  -0.50352  -0.48817  -0.48810  -0.48381
 Alpha  occ. eigenvalues --   -0.47112  -0.46242  -0.46156  -0.44814  -0.44253
 Alpha  occ. eigenvalues --   -0.37355  -0.36356
 Alpha virt. eigenvalues --    0.05037   0.11122   0.16500   0.20482   0.22602
 Alpha virt. eigenvalues --    0.23935   0.25985   0.26413   0.27251   0.28142
 Alpha virt. eigenvalues --    0.28755   0.30387   0.31013   0.31741   0.31855

 Mulliken charges:
               1
     1  C   -0.171455
     2  C   -0.219477
     3  C   -0.171499
     4  C    0.158599
     5  C   -0.170683
     6  C   -0.218084
     7  H    0.226353
     8  H    0.228013
     9  H    0.275895
    10  H    0.275810
    11  H    0.223710
    12  N    0.488101
    13  O   -0.460275
    14  O   -0.460287
    15  C   -0.298182
    16  C   -0.301346
    17  C   -0.482935
    18  H    0.151068
    19  H    0.152323
    20  H    0.148696
    21  H    0.147687
    22  H    0.159613
    23  H    0.156447
    24  H    0.160113
    25  C   -0.298629
    26  C   -0.300107
    27  C   -0.475963
    28  H    0.148811
    29  H    0.149843
    30  H    0.152377
    31  H    0.153295
    32  H    0.155693
    33  H    0.154971
    34  H    0.161505
 Sum of Mulliken charges =  -0.00000

 Dipole moment (field-independent basis, Debye):
    X=             -2.6467    Y=              4.4236    Z=             -0.7331  Tot=              5.2068
 Quadrupole moment (field-independent basis, Debye-Ang):
   XX=           -111.2944   YY=            -94.7112   ZZ=            -94.9461
   XY=             18.8586   XZ=             -1.4999   YZ=              0.6436

 Normal termination of Gaussian 16 at Thu May  6 09:13:09 2021.
