 Gaussian 16, Revision A.03,
 Gaussian 16:  EM64L-G16RevA.03 25-Dec-2016

 -------------
 #p 6-31g* mp2
 -------------

 ------------------------------------------------------
 Input file generated by CHIRIPA (05-May-2021 14:51:10)
 ------------------------------------------------------
 Symbolic Z-matrix:
 Charge =  0 Multiplicity = 1

                         Standard orientation:
 ---------------------------------------------------------------------
 Center     Atomic      Atomic             Coordinates (Angstroms)
 Number     Number       Type             X           Y           Z
 ---------------------------------------------------------------------
      1          6           0        2.889332   -0.056054   -0.185733
      2          6           0        4.179600   -0.811687    0.133973
      3          6           0        4.092181   -2.300245   -0.204181
      4          1           0        2.057998   -0.511477    0.369621
      5          1           0        2.656236   -0.177570   -1.252642
      6          1           0        4.410936   -0.687635    1.199671
      7          1           0        5.007992   -0.354292   -0.422058
      8          1           0        3.885226   -2.441690   -1.269903
      9          1           0        3.284778   -2.776927    0.361040
     10          1           0        5.025257   -2.821126    0.032275
     11          6           0        2.961185    1.433228    0.146839
     12          6           0        1.670917    2.188861   -0.172867
     13          6           0        1.758337    3.677419    0.165287
     14          1           0        3.194281    1.554744    1.213748
     15          1           0        3.792519    1.888651   -0.408515
     16          1           0        0.842525    1.731466    0.383165
     17          1           0        1.439581    2.064809   -1.238565
     18          1           0        2.565740    4.154101   -0.399934
     19          1           0        1.965291    3.818864    1.231009
     20          1           0        0.825260    4.198300   -0.071169
     21          6           0       -2.431511   -1.141405    0.386326
     22          6           0       -1.166451   -1.437896   -0.419715
     23          6           0       -0.188419   -2.345009    0.327542
     24          1           0       -2.150001   -0.673162    1.339449
     25          1           0       -2.927922   -2.088813    0.638100
     26          1           0       -0.673312   -0.490137   -0.671078
     27          1           0       -1.451016   -1.905314   -1.371113
     28          1           0       -0.658033   -3.305045    0.565019
     29          1           0        0.124091   -1.881827    1.269032
     30          1           0        0.708766   -2.544026   -0.266859
     31          6           0       -3.419006   -0.235769   -0.347432
     32          6           0       -4.684067    0.060722    0.458609
     33          6           0       -5.662098    0.967835   -0.288649
     34          1           0       -2.922595    0.711639   -0.599206
     35          1           0       -3.700516   -0.704013   -1.300555
     36          1           0       -4.399501    0.528140    1.410007
     37          1           0       -5.177206   -0.887037    0.709972
     38          1           0       -5.974608    0.504654   -1.230137
     39          1           0       -5.192485    1.927871   -0.526125
     40          1           0       -6.559283    1.166852    0.305753
 ---------------------------------------------------------------------

 SCF Done:  E(RHF) =  -470.732490973     A.U. after   11 cycles
 E2 =    -0.1584276276D+01 EUMP2 =    -0.47231676724845D+03

 The electronic state is 1-A.
 Alpha  occ. eigenvalues --  -11.21651 -11.21597 -11.21574 -11.21562 -11.21396
 Alpha  occ. eigenvalues --  -11.21381 -11.21336 -11.21266 -11.21111 -11.21067
 Alpha  occ. eigenvalues --  -11.21049 -11.21040  -1.08460  -1.08386  -1.03558
 Alpha  occ. eigenvalues --   -1.03503  -0.96006  -0.95955  -0.87028  -0.86973
 Alpha  occ. eigenvalues --   -0.79679  -0.79511  -0.78276  -0.78203  -0.65197
 Alpha  occ. eigenvalues --   -0.64934  -0.60988  -0.60891  -0.59491  -0.59212
 Alpha  occ. eigenvalues --   -0.57602  -0.57576  -0.55408  -0.55150  -0.52734
 Alpha  occ. eigenvalues --   -0.52638  -0.52419  -0.52387  -0.50051  -0.49819
 Alpha  occ. eigenvalues --   -0.48036  -0.47780  -0.46740  -0.46506  -0.45889
 Alpha  occ. eigenvalues --   -0.45770  -0.45635  -0.45526  -0.43780  -0.43727
 Alpha virt. eigenvalues --    0.20751   0.22937   0.23657   0.24176   0.26063
 Alpha virt. eigenvalues --    0.26354   0.27014   0.27486   0.27772   0.29780
 Alpha virt. eigenvalues --    0.30958   0.31066   0.31662   0.31815   0.32558

 Mulliken charges:
               1
     1  C   -0.307624
     2  C   -0.298758
     3  C   -0.479250
     4  H    0.162677
     5  H    0.148379
     6  H    0.151484
     7  H    0.151563
     8  H    0.154499
     9  H    0.158909
    10  H    0.160284
    11  C   -0.297698
    12  C   -0.301645
    13  C   -0.475635
    14  H    0.149058
    15  H    0.149507
    16  H    0.152485
    17  H    0.152197
    18  H    0.155578
    19  H    0.155244
    20  H    0.160054
    21  C   -0.298133
    22  C   -0.304652
    23  C   -0.482233
    24  H    0.148923
    25  H    0.149540
    26  H    0.157330
    27  H    0.151952
    28  H    0.155909
    29  H    0.152821
    30  H    0.167193
    31  C   -0.298341
    32  C   -0.299606
    33  C   -0.475693
    34  H    0.149719
    35  H    0.149663
    36  H    0.151809
    37  H    0.151913
    38  H    0.155178
    39  H    0.155183
    40  H    0.160218
 Sum of Mulliken charges =  -0.00000

 Dipole moment (field-independent basis, Debye):
    X=              0.0066    Y=             -0.0119    Z=             -0.0055  Tot=              0.0147
 Quadrupole moment (field-independent basis, Debye-Ang):
   XX=            -85.2658   YY=            -85.6958   ZZ=            -83.9439
   XY=              1.0258   XZ=             -0.3944   YZ=              0.2266

 Normal termination of Gaussian 16 at Thu May  6 03:48:52 2021.
