 Gaussian 16, Revision A.03,
 Gaussian 16:  EM64L-G16RevA.03 25-Dec-2016

 -------------
 #p 6-31g* mp2
 -------------

 ------------------------------------------------------
 Input file generated by CHIRIPA (05-May-2021 14:55:23)
 ------------------------------------------------------
 Symbolic Z-matrix:
 Charge =  0 Multiplicity = 1

                         Standard orientation:
 ---------------------------------------------------------------------
 Center     Atomic      Atomic             Coordinates (Angstroms)
 Number     Number       Type             X           Y           Z
 ---------------------------------------------------------------------
      1          6           0        2.911663    2.005840   -1.272416
      2          6           0        4.021150    1.161211   -1.162137
      3          6           0        3.919609   -0.060165   -0.489473
      4          6           0        2.687816   -0.406983    0.063422
      5          6           0        1.564266    0.412935   -0.029636
      6          6           0        1.688918    1.629669   -0.706811
      7          1           0        2.999520    2.952832   -1.796710
      8          1           0        4.972003    1.450764   -1.600410
      9          1           0        4.762530   -0.733114   -0.389260
     10          1           0        0.629605    0.097035    0.417618
     11          1           0        0.825598    2.283621   -0.790901
     12          7           0        2.568085   -1.697543    0.777929
     13          8           0        1.471732   -1.980076    1.256283
     14          8           0        3.572860   -2.402114    0.846076
     15          6           0       -3.517730   -0.512396    0.031086
     16          6           0       -4.460515   -1.000843   -1.069169
     17          6           0       -4.554134   -2.525599   -1.133585
     18          1           0       -2.517992   -0.935795   -0.136847
     19          1           0       -3.863032   -0.900707    0.999268
     20          1           0       -4.114328   -0.610588   -2.034815
     21          1           0       -5.458078   -0.576078   -0.898706
     22          1           0       -4.921232   -2.929459   -0.184513
     23          1           0       -3.569847   -2.964164   -1.327077
     24          1           0       -5.233307   -2.852960   -1.926943
     25          6           0       -3.413595    1.009762    0.108018
     26          6           0       -2.470810    1.498209    1.208273
     27          6           0       -2.377191    3.022965    1.272689
     28          1           0       -3.068293    1.398073   -0.860164
     29          1           0       -4.413333    1.433162    0.275951
     30          1           0       -1.473247    1.073444    1.037809
     31          1           0       -2.816997    1.107953    2.173919
     32          1           0       -3.361479    3.461530    1.466181
     33          1           0       -2.010094    3.426825    0.323616
     34          1           0       -1.698017    3.350326    2.066047
 ---------------------------------------------------------------------

 SCF Done:  E(RHF) =  -669.535452141     A.U. after   15 cycles
 E2 =    -0.2091686300D+01 EUMP2 =    -0.67162713844119D+03

 The electronic state is 1-A.
 Alpha  occ. eigenvalues --  -20.60769 -20.60764 -15.85820 -11.31183 -11.27754
 Alpha  occ. eigenvalues --  -11.27740 -11.27498 -11.26773 -11.26759 -11.22215
 Alpha  occ. eigenvalues --  -11.21790 -11.21729 -11.21685 -11.21519 -11.20996
 Alpha  occ. eigenvalues --   -1.59843  -1.39397  -1.19357  -1.08755  -1.08749
 Alpha  occ. eigenvalues --   -1.04764  -1.03845  -0.96276  -0.95589  -0.87293
 Alpha  occ. eigenvalues --   -0.86160  -0.82422  -0.79933  -0.78512  -0.77466
 Alpha  occ. eigenvalues --   -0.72039  -0.71166  -0.70479  -0.65421  -0.65005
 Alpha  occ. eigenvalues --   -0.64765  -0.62171  -0.61198  -0.59662  -0.57870
 Alpha  occ. eigenvalues --   -0.55574  -0.55261  -0.53090  -0.52990  -0.52864
 Alpha  occ. eigenvalues --   -0.52679  -0.50224  -0.48798  -0.48796  -0.48221
 Alpha  occ. eigenvalues --   -0.46984  -0.46047  -0.45961  -0.44802  -0.44082
 Alpha  occ. eigenvalues --   -0.37340  -0.36364
 Alpha virt. eigenvalues --    0.05061   0.11283   0.16553   0.18680   0.23058
 Alpha virt. eigenvalues --    0.23665   0.24436   0.26184   0.27473   0.28346
 Alpha virt. eigenvalues --    0.29396   0.30641   0.31386   0.31596   0.32594

 Mulliken charges:
               1
     1  C   -0.170837
     2  C   -0.218823
     3  C   -0.170328
     4  C    0.161059
     5  C   -0.182362
     6  C   -0.222409
     7  H    0.225714
     8  H    0.223500
     9  H    0.275598
    10  H    0.286145
    11  H    0.225149
    12  N    0.487473
    13  O   -0.460277
    14  O   -0.460374
    15  C   -0.299975
    16  C   -0.299900
    17  C   -0.476295
    18  H    0.152418
    19  H    0.153404
    20  H    0.150301
    21  H    0.151649
    22  H    0.156898
    23  H    0.158705
    24  H    0.159896
    25  C   -0.298253
    26  C   -0.304691
    27  C   -0.476471
    28  H    0.145373
    29  H    0.152019
    30  H    0.145617
    31  H    0.159655
    32  H    0.159746
    33  H    0.148091
    34  H    0.162583
 Sum of Mulliken charges =  -0.00000

 Dipole moment (field-independent basis, Debye):
    X=              0.2907    Y=              4.4800    Z=             -2.4473  Tot=              5.1131
 Quadrupole moment (field-independent basis, Debye-Ang):
   XX=            -86.6791   YY=           -100.0553   ZZ=            -95.1783
   XY=             11.0348   XZ=             -8.7945   YZ=              1.3897

 Normal termination of Gaussian 16 at Thu May  6 17:36:03 2021.
