 Gaussian 16, Revision A.03,
 Gaussian 16:  EM64L-G16RevA.03 25-Dec-2016

 -------------
 #p 6-31g* mp2
 -------------

 ------------------------------------------------------
 Input file generated by CHIRIPA (05-May-2021 14:57:26)
 ------------------------------------------------------
 Symbolic Z-matrix:
 Charge =  0 Multiplicity = 1

                         Standard orientation:
 ---------------------------------------------------------------------
 Center     Atomic      Atomic             Coordinates (Angstroms)
 Number     Number       Type             X           Y           Z
 ---------------------------------------------------------------------
      1          6           0       -1.400611    2.408049    0.732637
      2          6           0       -0.932414    1.885120   -0.477263
      3          6           0       -1.493335    0.721656   -1.012303
      4          6           0       -2.525582    0.104081   -0.307776
      5          6           0       -3.013842    0.600604    0.899848
      6          6           0       -2.438002    1.765255    1.416126
      7          1           0       -0.959079    3.312317    1.140981
      8          1           0       -0.126886    2.382208   -1.010247
      9          1           0       -1.150094    0.295218   -1.947050
     10          1           0       -3.818130    0.082807    1.408204
     11          1           0       -2.803625    2.169104    2.355951
     12          7           0       -3.127301   -1.128255   -0.864268
     13          8           0       -4.035616   -1.653534   -0.224203
     14          8           0       -2.679220   -1.545546   -1.929973
     15          6           0        3.282808    0.940083   -1.803057
     16          6           0        3.291986   -0.458567   -1.788434
     17          6           0        2.819915   -1.160091   -0.675079
     18          6           0        2.343618   -0.427766    0.411260
     19          6           0        2.321472    0.965990    0.426852
     20          6           0        2.798433    1.646652   -0.697316
     21          1           0        3.651423    1.476940   -2.672139
     22          1           0        3.667574   -1.009921   -2.645749
     23          1           0        2.815548   -2.242662   -0.637146
     24          1           0        1.940930    1.487976    1.296414
     25          1           0        2.790103    2.732885   -0.705883
     26          7           0        1.841269   -1.159394    1.595644
     27          8           0        1.426832   -0.490887    2.540090
     28          8           0        1.871478   -2.387498    1.557093
 ---------------------------------------------------------------------

 SCF Done:  E(RHF) =  -868.336234495     A.U. after   16 cycles
 E2 =    -0.2602989590D+01 EUMP2 =    -0.87093922408508D+03

 The electronic state is 1-A.
 Alpha  occ. eigenvalues --  -20.61061 -20.61039 -20.60605 -20.60582 -15.86115
 Alpha  occ. eigenvalues --  -15.85650 -11.31621 -11.31058 -11.28325 -11.28207
 Alpha  occ. eigenvalues --  -11.28064 -11.27635 -11.27554 -11.27416 -11.27363
 Alpha  occ. eigenvalues --  -11.27217 -11.26703 -11.26627  -1.60122  -1.59666
 Alpha  occ. eigenvalues --   -1.39672  -1.39220  -1.19864  -1.19225  -1.09218
 Alpha  occ. eigenvalues --   -1.08638  -1.05313  -1.04623  -0.96020  -0.95462
 Alpha  occ. eigenvalues --   -0.86677  -0.86054  -0.82861  -0.82288  -0.77877
 Alpha  occ. eigenvalues --   -0.77317  -0.72335  -0.71874  -0.71447  -0.70983
 Alpha  occ. eigenvalues --   -0.70960  -0.70378  -0.65517  -0.65308  -0.64892
 Alpha  occ. eigenvalues --   -0.64673  -0.62639  -0.61988  -0.55783  -0.55206
 Alpha  occ. eigenvalues --   -0.53810  -0.53404  -0.52832  -0.52642  -0.49105
 Alpha  occ. eigenvalues --   -0.49075  -0.48635  -0.48620  -0.45044  -0.44617
 Alpha  occ. eigenvalues --   -0.37912  -0.37522  -0.36874  -0.35829
 Alpha virt. eigenvalues --    0.04663   0.05197   0.10476   0.11593   0.16063
 Alpha virt. eigenvalues --    0.16647   0.20219   0.21954   0.26095   0.27327
 Alpha virt. eigenvalues --    0.27936   0.28990   0.29863   0.31313   0.32353

 Mulliken charges:
               1
     1  C   -0.173834
     2  C   -0.216618
     3  C   -0.173947
     4  C    0.159932
     5  C   -0.168171
     6  C   -0.212733
     7  H    0.220787
     8  H    0.218667
     9  H    0.273497
    10  H    0.277279
    11  H    0.225163
    12  N    0.488622
    13  O   -0.458038
    14  O   -0.462605
    15  C   -0.172428
    16  C   -0.219540
    17  C   -0.168542
    18  C    0.159014
    19  C   -0.164397
    20  C   -0.228594
    21  H    0.226863
    22  H    0.226992
    23  H    0.280171
    24  H    0.273012
    25  H    0.218922
    26  N    0.488463
    27  O   -0.461617
    28  O   -0.456321
 Sum of Mulliken charges =  -0.00000

 Dipole moment (field-independent basis, Debye):
    X=              3.8621    Y=              6.6284    Z=             -2.0936  Tot=              7.9520
 Quadrupole moment (field-independent basis, Debye-Ang):
   XX=           -105.8371   YY=           -103.4627   ZZ=           -106.1556
   XY=             -6.7074   XZ=            -18.5594   YZ=              3.9308

 Normal termination of Gaussian 16 at Thu May  6 13:07:37 2021.
