 Gaussian 16, Revision A.03,
 Gaussian 16:  EM64L-G16RevA.03 25-Dec-2016

 -------------
 #p 6-31g* mp2
 -------------

 ------------------------------------------------------
 Input file generated by CHIRIPA (05-May-2021 14:53:18)
 ------------------------------------------------------
 Symbolic Z-matrix:
 Charge =  0 Multiplicity = 1

                         Standard orientation:
 ---------------------------------------------------------------------
 Center     Atomic      Atomic             Coordinates (Angstroms)
 Number     Number       Type             X           Y           Z
 ---------------------------------------------------------------------
      1          6           0       -3.705028   -0.689932    0.123660
      2          6           0       -4.998374   -1.499969    0.218966
      3          6           0       -4.746335   -2.994832    0.418103
      4          1           0       -3.099112   -1.075041   -0.707906
      5          1           0       -3.115436   -0.844718    1.037891
      6          1           0       -5.585990   -1.342610   -0.694577
      7          1           0       -5.601368   -1.112763    1.050282
      8          1           0       -4.180962   -3.170868    1.338954
      9          1           0       -4.165497   -3.402020   -0.415820
     10          1           0       -5.684367   -3.554890    0.483611
     11          6           0       -3.940568    0.806257   -0.075506
     12          6           0       -2.647222    1.616293   -0.170811
     13          6           0       -2.899261    3.111156   -0.369948
     14          1           0       -4.530160    0.961042   -0.989736
     15          1           0       -4.546483    1.191365    0.756061
     16          1           0       -2.044228    1.229088   -1.002127
     17          1           0       -2.059606    1.458934    0.742732
     18          1           0       -3.480099    3.518345    0.463974
     19          1           0       -3.464634    3.287192   -1.290799
     20          1           0       -1.961229    3.671214   -0.435456
     21          6           0        5.289553   -1.073695    0.050767
     22          6           0        4.251322   -1.726896   -0.621487
     23          6           0        2.971310   -1.166454   -0.666508
     24          6           0        2.763916    0.053968   -0.025537
     25          6           0        3.777808    0.729103    0.652332
     26          6           0        5.049905    0.150062    0.684413
     27          1           0        6.280822   -1.516284    0.080714
     28          1           0        4.434533   -2.677389   -1.114478
     29          1           0        2.149437   -1.650669   -1.179810
     30          1           0        3.564600    1.675468    1.134362
     31          1           0        5.854312    0.659597    1.207241
     32          7           0        1.413015    0.657128   -0.066350
     33          8           0        1.256113    1.733280    0.506291
     34          8           0        0.536662    0.042313   -0.670206
 ---------------------------------------------------------------------

 SCF Done:  E(RHF) =  -669.536096857     A.U. after   15 cycles
 E2 =    -0.2091735682D+01 EUMP2 =    -0.67162783253939D+03

 The electronic state is 1-A.
 Alpha  occ. eigenvalues --  -20.61007 -20.60999 -15.86024 -11.31336 -11.27895
 Alpha  occ. eigenvalues --  -11.27892 -11.27629 -11.26898 -11.26888 -11.20646
 Alpha  occ. eigenvalues --  -11.20335 -11.20085 -11.19882 -11.19450 -11.19372
 Alpha  occ. eigenvalues --   -1.60052  -1.39610  -1.19500  -1.08907  -1.07038
 Alpha  occ. eigenvalues --   -1.04894  -1.02126  -0.95750  -0.94661  -0.86295
 Alpha  occ. eigenvalues --   -0.85695  -0.82586  -0.78229  -0.77639  -0.76711
 Alpha  occ. eigenvalues --   -0.72234  -0.71366  -0.70608  -0.65155  -0.64896
 Alpha  occ. eigenvalues --   -0.63691  -0.62241  -0.59540  -0.58070  -0.56209
 Alpha  occ. eigenvalues --   -0.55392  -0.53992  -0.53227  -0.52985  -0.51386
 Alpha  occ. eigenvalues --   -0.51073  -0.49089  -0.48995  -0.48653  -0.46468
 Alpha  occ. eigenvalues --   -0.45276  -0.45025  -0.44219  -0.44112  -0.42385
 Alpha  occ. eigenvalues --   -0.37478  -0.36494
 Alpha virt. eigenvalues --    0.04882   0.11161   0.16386   0.21298   0.24102
 Alpha virt. eigenvalues --    0.25649   0.27218   0.27968   0.28166   0.28942
 Alpha virt. eigenvalues --    0.29247   0.30878   0.32390   0.32680   0.32991

 Mulliken charges:
               1
     1  C   -0.295689
     2  C   -0.298564
     3  C   -0.474432
     4  H    0.153111
     5  H    0.148653
     6  H    0.149421
     7  H    0.149342
     8  H    0.153439
     9  H    0.153497
    10  H    0.156550
    11  C   -0.299349
    12  C   -0.297887
    13  C   -0.476973
    14  H    0.143255
    15  H    0.143052
    16  H    0.169536
    17  H    0.158208
    18  H    0.147181
    19  H    0.146817
    20  H    0.165062
    21  C   -0.170527
    22  C   -0.218547
    23  C   -0.170758
    24  C    0.158273
    25  C   -0.170696
    26  C   -0.218582
    27  H    0.226142
    28  H    0.223978
    29  H    0.275783
    30  H    0.275881
    31  H    0.223952
    32  N    0.488928
    33  O   -0.459612
    34  O   -0.458447
 Sum of Mulliken charges =  -0.00000

 Dipole moment (field-independent basis, Debye):
    X=              5.2443    Y=             -2.1373    Z=              0.1086  Tot=              5.6641
 Quadrupole moment (field-independent basis, Debye-Ang):
   XX=            -70.3383   YY=            -94.2193   ZZ=            -93.0079
   XY=             -4.1474   XZ=              1.4261   YZ=              2.9550

 Normal termination of Gaussian 16 at Thu May  6 07:35:44 2021.
