 Gaussian 16, Revision A.03,
 Gaussian 16:  EM64L-G16RevA.03 25-Dec-2016

 -------------
 #p 6-31g* mp2
 -------------

 ------------------------------------------------------
 Input file generated by CHIRIPA (05-May-2021 14:55:22)
 ------------------------------------------------------
 Symbolic Z-matrix:
 Charge =  0 Multiplicity = 1

                         Standard orientation:
 ---------------------------------------------------------------------
 Center     Atomic      Atomic             Coordinates (Angstroms)
 Number     Number       Type             X           Y           Z
 ---------------------------------------------------------------------
      1          6           0        2.917034   -2.536844    0.898224
      2          6           0        3.894122   -2.049997    0.023694
      3          6           0        3.805581   -0.752092   -0.488311
      4          6           0        2.721657    0.035258   -0.102981
      5          6           0        1.732209   -0.421148    0.766488
      6          6           0        1.841093   -1.722301    1.266181
      7          1           0        2.993717   -3.546349    1.291180
      8          1           0        4.730816   -2.680344   -0.263798
      9          1           0        4.547934   -0.349911   -1.166972
     10          1           0        0.909784    0.230796    1.034825
     11          1           0        1.080799   -2.097742    1.945181
     12          7           0        2.617155    1.411011   -0.638501
     13          8           0        1.652394    2.084756   -0.283617
     14          8           0        3.501985    1.789532   -1.402984
     15          6           0       -2.920523    0.733251   -0.032429
     16          6           0       -2.999779    1.882654    0.972845
     17          6           0       -1.821946    2.850794    0.857918
     18          1           0       -1.979178    0.187203    0.118054
     19          1           0       -2.882689    1.147003   -1.049667
     20          1           0       -3.038848    1.466817    1.987818
     21          1           0       -3.941134    2.425913    0.820077
     22          1           0       -1.782985    3.292997   -0.142850
     23          1           0       -0.875572    2.328453    1.031524
     24          1           0       -1.898728    3.664633    1.585675
     25          6           0       -4.091010   -0.243055    0.070114
     26          6           0       -4.011754   -1.392458   -0.935160
     27          6           0       -5.189588   -2.360597   -0.820233
     28          1           0       -4.128845   -0.656808    1.087352
     29          1           0       -5.032356    0.302994   -0.080369
     30          1           0       -3.070400   -1.935716   -0.782393
     31          1           0       -3.972686   -0.976621   -1.950133
     32          1           0       -6.135961   -1.838257   -0.993839
     33          1           0       -5.228549   -2.802802    0.180536
     34          1           0       -5.112805   -3.174437   -1.547989
 ---------------------------------------------------------------------

 SCF Done:  E(RHF) =  -669.535536639     A.U. after   15 cycles
 E2 =    -0.2091743147D+01 EUMP2 =    -0.67162727978581D+03

 The electronic state is 1-A.
 Alpha  occ. eigenvalues --  -20.60833 -20.60827 -15.85877 -11.31249 -11.27828
 Alpha  occ. eigenvalues --  -11.27812 -11.27559 -11.26839 -11.26827 -11.21647
 Alpha  occ. eigenvalues --  -11.21367 -11.21291 -11.21230 -11.21149 -11.20299
 Alpha  occ. eigenvalues --   -1.59904  -1.39458  -1.19422  -1.08815  -1.08319
 Alpha  occ. eigenvalues --   -1.04827  -1.03332  -0.95761  -0.95641  -0.86755
 Alpha  occ. eigenvalues --   -0.86225  -0.82485  -0.79401  -0.78127  -0.77518
 Alpha  occ. eigenvalues --   -0.72102  -0.71221  -0.70533  -0.65079  -0.64991
 Alpha  occ. eigenvalues --   -0.64813  -0.62187  -0.60733  -0.59160  -0.57353
 Alpha  occ. eigenvalues --   -0.55327  -0.55042  -0.53152  -0.52924  -0.52429
 Alpha  occ. eigenvalues --   -0.52144  -0.49716  -0.48855  -0.48845  -0.47664
 Alpha  occ. eigenvalues --   -0.46447  -0.45637  -0.45587  -0.44855  -0.43606
 Alpha  occ. eigenvalues --   -0.37399  -0.36428
 Alpha virt. eigenvalues --    0.04994   0.11202   0.16493   0.19958   0.22854
 Alpha virt. eigenvalues --    0.23778   0.25831   0.27236   0.27574   0.28018
 Alpha virt. eigenvalues --    0.29317   0.30335   0.31517   0.31896   0.32201

 Mulliken charges:
               1
     1  C   -0.170341
     2  C   -0.218725
     3  C   -0.170224
     4  C    0.156621
     5  C   -0.173050
     6  C   -0.220885
     7  H    0.225870
     8  H    0.223723
     9  H    0.275830
    10  H    0.282236
    11  H    0.223870
    12  N    0.491606
    13  O   -0.464835
    14  O   -0.459934
    15  C   -0.296148
    16  C   -0.301636
    17  C   -0.480104
    18  H    0.141220
    19  H    0.154266
    20  H    0.145854
    21  H    0.151383
    22  H    0.161842
    23  H    0.167300
    24  H    0.157495
    25  C   -0.297959
    26  C   -0.298942
    27  C   -0.475489
    28  H    0.146232
    29  H    0.151026
    30  H    0.148404
    31  H    0.154008
    32  H    0.156247
    33  H    0.153459
    34  H    0.159779
 Sum of Mulliken charges =  -0.00000

 Dipole moment (field-independent basis, Debye):
    X=              0.4812    Y=             -4.7426    Z=              1.7899  Tot=              5.0919
 Quadrupole moment (field-independent basis, Debye-Ang):
   XX=            -89.8920   YY=            -95.7046   ZZ=            -94.1046
   XY=            -15.1320   XZ=              3.2285   YZ=              0.3191

 Normal termination of Gaussian 16 at Thu May  6 03:02:22 2021.
