 Gaussian 16, Revision A.03,
 Gaussian 16:  EM64L-G16RevA.03 25-Dec-2016

 -------------
 #p 6-31g* mp2
 -------------

 ------------------------------------------------------
 Input file generated by CHIRIPA (05-May-2021 14:57:24)
 ------------------------------------------------------
 Symbolic Z-matrix:
 Charge =  0 Multiplicity = 1

                         Standard orientation:
 ---------------------------------------------------------------------
 Center     Atomic      Atomic             Coordinates (Angstroms)
 Number     Number       Type             X           Y           Z
 ---------------------------------------------------------------------
      1          6           0       -4.397676    2.226465    0.448628
      2          6           0       -5.221107    1.120475    0.213536
      3          6           0       -4.668246   -0.113834   -0.140548
      4          6           0       -3.281736   -0.206929   -0.251057
      5          6           0       -2.434845    0.876658   -0.023229
      6          6           0       -3.009620    2.101247    0.329704
      7          1           0       -4.835663    3.181530    0.723242
      8          1           0       -6.299418    1.214792    0.305156
      9          1           0       -5.282348   -0.986235   -0.328195
     10          1           0       -1.363397    0.751781   -0.122335
     11          1           0       -2.367683    2.958478    0.511687
     12          7           0       -2.684847   -1.508492   -0.625302
     13          8           0       -1.460403   -1.564458   -0.716097
     14          8           0       -3.452750   -2.448045   -0.820753
     15          6           0        5.067888    1.541548   -0.867750
     16          6           0        5.367942    0.184970   -0.705935
     17          6           0        4.440382   -0.682565   -0.121499
     18          6           0        3.216943   -0.157348    0.291576
     19          6           0        2.888538    1.189381    0.144053
     20          6           0        3.831324    2.038547   -0.442988
     21          1           0        5.794353    2.208337   -1.322765
     22          1           0        6.327480   -0.203784   -1.034874
     23          1           0        4.646685   -1.737074    0.015857
     24          1           0        1.923662    1.547630    0.481822
     25          1           0        3.595574    3.091634   -0.567389
     26          7           0        2.226917   -1.066046    0.911672
     27          8           0        1.156123   -0.578610    1.267262
     28          8           0        2.540475   -2.248513    1.030370
 ---------------------------------------------------------------------

 SCF Done:  E(RHF) =  -868.336616890     A.U. after   16 cycles
 E2 =    -0.2600520319D+01 EUMP2 =    -0.87093713720835D+03

 The electronic state is 1-A.
 Alpha  occ. eigenvalues --  -20.60400 -20.60395 -20.59881 -20.59793 -15.85449
 Alpha  occ. eigenvalues --  -15.84897 -11.31032 -11.30482 -11.27698 -11.27575
 Alpha  occ. eigenvalues --  -11.27389 -11.27127 -11.27049 -11.26943 -11.26725
 Alpha  occ. eigenvalues --  -11.26649 -11.26199 -11.26188  -1.59431  -1.58911
 Alpha  occ. eigenvalues --   -1.38995  -1.38453  -1.19215  -1.18699  -1.08563
 Alpha  occ. eigenvalues --   -1.08063  -1.04663  -1.04143  -0.95370  -0.94852
 Alpha  occ. eigenvalues --   -0.86050  -0.85530  -0.82215  -0.81687  -0.77240
 Alpha  occ. eigenvalues --   -0.76676  -0.71689  -0.71140  -0.70704  -0.70337
 Alpha  occ. eigenvalues --   -0.70230  -0.69817  -0.64876  -0.64676  -0.64355
 Alpha  occ. eigenvalues --   -0.64167  -0.62028  -0.61478  -0.55148  -0.54665
 Alpha  occ. eigenvalues --   -0.52960  -0.52770  -0.52457  -0.52249  -0.48439
 Alpha  occ. eigenvalues --   -0.48406  -0.47906  -0.47847  -0.44359  -0.43764
 Alpha  occ. eigenvalues --   -0.37189  -0.36709  -0.36272  -0.35753
 Alpha virt. eigenvalues --    0.05301   0.05883   0.11373   0.11900   0.16747
 Alpha virt. eigenvalues --    0.17302   0.20874   0.22084   0.26022   0.27687
 Alpha virt. eigenvalues --    0.28253   0.29281   0.30727   0.31626   0.32166

 Mulliken charges:
               1
     1  C   -0.171169
     2  C   -0.219221
     3  C   -0.170858
     4  C    0.157499
     5  C   -0.169583
     6  C   -0.219310
     7  H    0.222320
     8  H    0.220986
     9  H    0.274530
    10  H    0.283475
    11  H    0.217337
    12  N    0.487232
    13  O   -0.450368
    14  O   -0.465286
    15  C   -0.171331
    16  C   -0.218035
    17  C   -0.170138
    18  C    0.162019
    19  C   -0.170346
    20  C   -0.217849
    21  H    0.224767
    22  H    0.223637
    23  H    0.277303
    24  H    0.267034
    25  H    0.220405
    26  N    0.492053
    27  O   -0.462074
    28  O   -0.455029
 Sum of Mulliken charges =  -0.00000

 Dipole moment (field-independent basis, Debye):
    X=              1.6366    Y=              7.4929    Z=             -0.8462  Tot=              7.7161
 Quadrupole moment (field-independent basis, Debye-Ang):
   XX=            -63.6997   YY=           -105.1089   ZZ=           -108.5229
   XY=             -5.7500   XZ=            -10.2748   YZ=              0.3082

 Normal termination of Gaussian 16 at Thu May  6 09:49:57 2021.
