 Gaussian 16, Revision A.03,
 Gaussian 16:  EM64L-G16RevA.03 25-Dec-2016

 -------------
 #p 6-31g* mp2
 -------------

 ------------------------------------------------------
 Input file generated by CHIRIPA (05-May-2021 14:55:22)
 ------------------------------------------------------
 Symbolic Z-matrix:
 Charge =  0 Multiplicity = 1

                         Standard orientation:
 ---------------------------------------------------------------------
 Center     Atomic      Atomic             Coordinates (Angstroms)
 Number     Number       Type             X           Y           Z
 ---------------------------------------------------------------------
      1          6           0        3.710891   -1.606609    0.529217
      2          6           0        3.708421   -1.025875   -0.743286
      3          6           0        2.995183    0.152056   -0.984782
      4          6           0        2.292222    0.724996    0.073931
      5          6           0        2.275267    0.170475    1.352801
      6          6           0        2.995568   -1.007637    1.571362
      7          1           0        4.267695   -2.521724    0.707909
      8          1           0        4.263050   -1.488841   -1.554515
      9          1           0        2.976138    0.622886   -1.960166
     10          1           0        1.712900    0.655206    2.141595
     11          1           0        2.995691   -1.456415    2.560626
     12          7           0        1.533411    1.972114   -0.169590
     13          8           0        0.922110    2.457268    0.779922
     14          8           0        1.564324    2.440837   -1.305363
     15          6           0       -2.333088   -0.623451   -0.196406
     16          6           0       -1.675816   -1.956020   -0.557292
     17          6           0       -0.153135   -1.856992   -0.654402
     18          1           0       -2.060409    0.128465   -0.949541
     19          1           0       -1.925980   -0.269097    0.760720
     20          1           0       -2.085054   -2.308438   -1.512771
     21          1           0       -1.950247   -2.704900    0.196687
     22          1           0        0.273188   -1.529101    0.299190
     23          1           0        0.137615   -1.130386   -1.419981
     24          1           0        0.296159   -2.820804   -0.913363
     25          6           0       -3.855157   -0.706356   -0.095603
     26          6           0       -4.512430    0.626213    0.265281
     27          6           0       -6.035111    0.527184    0.362392
     28          1           0       -4.262265   -1.060710   -1.052730
     29          1           0       -4.127836   -1.458272    0.657532
     30          1           0       -4.237998    1.375093   -0.488697
     31          1           0       -4.103190    0.978631    1.220761
     32          1           0       -6.325860   -0.199421    1.127971
     33          1           0       -6.461433    0.199294   -0.591199
     34          1           0       -6.484404    1.490996    0.621353
 ---------------------------------------------------------------------

 SCF Done:  E(RHF) =  -669.533840704     A.U. after   15 cycles
 E2 =    -0.2094424707D+01 EUMP2 =    -0.67162826541108D+03

 The electronic state is 1-A.
 Alpha  occ. eigenvalues --  -20.60778 -20.60771 -15.85824 -11.31142 -11.27755
 Alpha  occ. eigenvalues --  -11.27733 -11.27524 -11.26801 -11.26783 -11.21372
 Alpha  occ. eigenvalues --  -11.21137 -11.21041 -11.20979 -11.20840 -11.20698
 Alpha  occ. eigenvalues --   -1.59848  -1.39404  -1.19376  -1.08763  -1.08088
 Alpha  occ. eigenvalues --   -1.04789  -1.03220  -0.95705  -0.95579  -0.86709
 Alpha  occ. eigenvalues --   -0.86180  -0.82438  -0.79291  -0.77885  -0.77481
 Alpha  occ. eigenvalues --   -0.72050  -0.71167  -0.70490  -0.65029  -0.64791
 Alpha  occ. eigenvalues --   -0.64725  -0.62135  -0.60637  -0.59058  -0.57361
 Alpha  occ. eigenvalues --   -0.55287  -0.55036  -0.53550  -0.52877  -0.52345
 Alpha  occ. eigenvalues --   -0.51678  -0.49630  -0.48805  -0.48804  -0.47522
 Alpha  occ. eigenvalues --   -0.46327  -0.45409  -0.45358  -0.44795  -0.43466
 Alpha  occ. eigenvalues --   -0.37296  -0.36312
 Alpha virt. eigenvalues --    0.05027   0.11174   0.16525   0.21373   0.23158
 Alpha virt. eigenvalues --    0.24527   0.26881   0.27375   0.27654   0.28233
 Alpha virt. eigenvalues --    0.28414   0.30950   0.31627   0.32087   0.32190

 Mulliken charges:
               1
     1  C   -0.169591
     2  C   -0.215694
     3  C   -0.171312
     4  C    0.168034
     5  C   -0.178050
     6  C   -0.216026
     7  H    0.225722
     8  H    0.223617
     9  H    0.275271
    10  H    0.275130
    11  H    0.223478
    12  N    0.488024
    13  O   -0.460552
    14  O   -0.461340
    15  C   -0.300015
    16  C   -0.299127
    17  C   -0.478771
    18  H    0.155268
    19  H    0.150146
    20  H    0.150699
    21  H    0.148474
    22  H    0.158353
    23  H    0.154269
    24  H    0.154362
    25  C   -0.298104
    26  C   -0.299930
    27  C   -0.475717
    28  H    0.148491
    29  H    0.146973
    30  H    0.156114
    31  H    0.153765
    32  H    0.153169
    33  H    0.154135
    34  H    0.160734
 Sum of Mulliken charges =  -0.00000

 Dipole moment (field-independent basis, Debye):
    X=              2.7931    Y=             -4.2859    Z=              0.8609  Tot=              5.1876
 Quadrupole moment (field-independent basis, Debye-Ang):
   XX=            -84.0050   YY=           -102.1553   ZZ=            -89.1638
   XY=             -8.6902   XZ=              0.7622   YZ=             -0.0055

 Normal termination of Gaussian 16 at Thu May  6 14:15:08 2021.
