 Gaussian 16, Revision A.03,
 Gaussian 16:  EM64L-G16RevA.03 25-Dec-2016

 -------------
 #p 6-31g* mp2
 -------------

 ------------------------------------------------------
 Input file generated by CHIRIPA (05-May-2021 14:57:27)
 ------------------------------------------------------
 Symbolic Z-matrix:
 Charge =  0 Multiplicity = 1

                         Standard orientation:
 ---------------------------------------------------------------------
 Center     Atomic      Atomic             Coordinates (Angstroms)
 Number     Number       Type             X           Y           Z
 ---------------------------------------------------------------------
      1          6           0       -3.599180   -2.380380   -0.194933
      2          6           0       -2.471517   -1.771426    0.365488
      3          6           0       -2.368154   -0.378103    0.415636
      4          6           0       -3.415806    0.379111   -0.106228
      5          6           0       -4.552129   -0.198044   -0.670986
      6          6           0       -4.634063   -1.593134   -0.710472
      7          1           0       -3.671151   -3.463434   -0.229748
      8          1           0       -1.666280   -2.380302    0.766623
      9          1           0       -1.506454    0.119413    0.843851
     10          1           0       -5.338678    0.435363   -1.062847
     11          1           0       -5.511005   -2.063321   -1.146294
     12          7           0       -3.317724    1.855095   -0.058782
     13          8           0       -4.254342    2.499872   -0.525308
     14          8           0       -2.306086    2.339247    0.444034
     15          6           0        1.748019   -0.661763    1.917834
     16          6           0        2.767604    0.264533    2.160617
     17          6           0        3.706130    0.563666    1.168530
     18          6           0        3.594769   -0.085008   -0.060335
     19          6           0        2.590401   -1.012575   -0.332646
     20          6           0        1.662821   -1.296242    0.674171
     21          1           0        1.023201   -0.888129    2.694231
     22          1           0        2.836218    0.758806    3.125516
     23          1           0        4.505579    1.276648    1.329643
     24          1           0        2.547806   -1.489186   -1.304471
     25          1           0        0.872059   -2.016049    0.482810
     26          7           0        4.582551    0.223484   -1.118410
     27          8           0        4.462656   -0.361596   -2.192627
     28          8           0        5.457964    1.044519   -0.853476
 ---------------------------------------------------------------------

 SCF Done:  E(RHF) =  -868.336711367     A.U. after   16 cycles
 E2 =    -0.2600419867D+01 EUMP2 =    -0.87093713123378D+03

 The electronic state is 1-A.
 Alpha  occ. eigenvalues --  -20.61214 -20.61206 -20.60943 -20.60933 -15.86275
 Alpha  occ. eigenvalues --  -15.86000 -11.31763 -11.31497 -11.28414 -11.28336
 Alpha  occ. eigenvalues --  -11.28156 -11.28135 -11.28042 -11.27944 -11.27533
 Alpha  occ. eigenvalues --  -11.27347 -11.27290 -11.27086  -1.60286  -1.60011
 Alpha  occ. eigenvalues --   -1.39836  -1.39562  -1.19971  -1.19699  -1.09339
 Alpha  occ. eigenvalues --   -1.09092  -1.05418  -1.05122  -0.96146  -0.95893
 Alpha  occ. eigenvalues --   -0.86803  -0.86541  -0.82997  -0.82720  -0.78036
 Alpha  occ. eigenvalues --   -0.77718  -0.72490  -0.72220  -0.71612  -0.71332
 Alpha  occ. eigenvalues --   -0.71078  -0.70831  -0.65648  -0.65531  -0.65368
 Alpha  occ. eigenvalues --   -0.65108  -0.62827  -0.62388  -0.55893  -0.55680
 Alpha  occ. eigenvalues --   -0.53722  -0.53614  -0.53394  -0.53163  -0.49260
 Alpha  occ. eigenvalues --   -0.49235  -0.48989  -0.48962  -0.45215  -0.44938
 Alpha  occ. eigenvalues --   -0.37947  -0.37714  -0.37037  -0.36678
 Alpha virt. eigenvalues --    0.04535   0.04803   0.10603   0.10840   0.15918
 Alpha virt. eigenvalues --    0.16235   0.18294   0.22112   0.24874   0.26893
 Alpha virt. eigenvalues --    0.27904   0.29122   0.29673   0.31401   0.32161

 Mulliken charges:
               1
     1  C   -0.169901
     2  C   -0.222522
     3  C   -0.172023
     4  C    0.158886
     5  C   -0.168979
     6  C   -0.218575
     7  H    0.227028
     8  H    0.214412
     9  H    0.275469
    10  H    0.278035
    11  H    0.225976
    12  N    0.488087
    13  O   -0.458241
    14  O   -0.459778
    15  C   -0.174002
    16  C   -0.215765
    17  C   -0.168670
    18  C    0.160036
    19  C   -0.169109
    20  C   -0.222331
    21  H    0.223012
    22  H    0.226945
    23  H    0.278315
    24  H    0.276814
    25  H    0.216821
    26  N    0.488116
    27  O   -0.459833
    28  O   -0.458220
 Sum of Mulliken charges =  -0.00000

 Dipole moment (field-independent basis, Debye):
    X=             -3.7755    Y=             -6.0838    Z=              3.4853  Tot=              7.9633
 Quadrupole moment (field-independent basis, Debye-Ang):
   XX=           -121.3991   YY=           -107.7018   ZZ=           -103.3383
   XY=             15.7252   XZ=             18.6014   YZ=              2.6069

 Normal termination of Gaussian 16 at Thu May  6 06:48:17 2021.
