 Gaussian 16, Revision A.03,
 Gaussian 16:  EM64L-G16RevA.03 25-Dec-2016

 -------------
 #p 6-31g* mp2
 -------------

 ------------------------------------------------------
 Input file generated by CHIRIPA (05-May-2021 14:55:19)
 ------------------------------------------------------
 Symbolic Z-matrix:
 Charge =  0 Multiplicity = 1

                         Standard orientation:
 ---------------------------------------------------------------------
 Center     Atomic      Atomic             Coordinates (Angstroms)
 Number     Number       Type             X           Y           Z
 ---------------------------------------------------------------------
      1          6           0        3.113806   -2.310523   -0.465530
      2          6           0        4.198870   -1.634796   -1.033464
      3          6           0        4.376537   -0.265613   -0.813646
      4          6           0        3.445821    0.399635   -0.017089
      5          6           0        2.354557   -0.245631    0.562621
      6          6           0        2.196729   -1.615010    0.329299
      7          1           0        2.983496   -3.374213   -0.641535
      8          1           0        4.912657   -2.172377   -1.651169
      9          1           0        5.207568    0.282199   -1.241089
     10          1           0        1.659596    0.317262    1.173849
     11          1           0        1.353112   -2.137201    0.771646
     12          7           0        3.623408    1.849232    0.222770
     13          8           0        2.789450    2.412517    0.928363
     14          8           0        4.593195    2.394692   -0.299362
     15          6           0       -3.850036   -0.383354    0.599916
     16          6           0       -2.804458   -1.382929    0.104335
     17          6           0       -1.764717   -1.728377    1.170825
     18          1           0       -3.343497    0.533633    0.930817
     19          1           0       -4.353962   -0.798408    1.483762
     20          1           0       -2.303614   -0.966706   -0.779141
     21          1           0       -3.313561   -2.297572   -0.225604
     22          1           0       -2.246402   -2.167312    2.050551
     23          1           0       -1.230716   -0.828885    1.493869
     24          1           0       -1.027033   -2.444374    0.795288
     25          6           0       -4.896338   -0.028100   -0.454966
     26          6           0       -5.941917    0.971476    0.040615
     27          6           0       -6.981657    1.316923   -1.025874
     28          1           0       -4.392413    0.386953   -1.338812
     29          1           0       -5.402878   -0.945087   -0.785867
     30          1           0       -5.432813    1.886118    0.370554
     31          1           0       -6.442761    0.555253    0.924090
     32          1           0       -7.515659    0.417431   -1.348918
     33          1           0       -6.499973    1.755858   -1.905601
     34          1           0       -7.719342    2.032920   -0.650338
 ---------------------------------------------------------------------

 SCF Done:  E(RHF) =  -669.535464122     A.U. after   15 cycles
 E2 =    -0.2091058804D+01 EUMP2 =    -0.67162652292628D+03

 The electronic state is 1-A.
 Alpha  occ. eigenvalues --  -20.60736 -20.60731 -15.85788 -11.31136 -11.27702
 Alpha  occ. eigenvalues --  -11.27687 -11.27432 -11.26720 -11.26648 -11.22220
 Alpha  occ. eigenvalues --  -11.22049 -11.21785 -11.21771 -11.21639 -11.21194
 Alpha  occ. eigenvalues --   -1.59811  -1.39365  -1.19301  -1.08814  -1.08701
 Alpha  occ. eigenvalues --   -1.04700  -1.03971  -0.96449  -0.95541  -0.87481
 Alpha  occ. eigenvalues --   -0.86098  -0.82371  -0.80043  -0.78580  -0.77420
 Alpha  occ. eigenvalues --   -0.72007  -0.71134  -0.70416  -0.65438  -0.64951
 Alpha  occ. eigenvalues --   -0.64730  -0.62106  -0.61339  -0.59841  -0.58032
 Alpha  occ. eigenvalues --   -0.55728  -0.55204  -0.53329  -0.53028  -0.52910
 Alpha  occ. eigenvalues --   -0.52581  -0.50374  -0.48764  -0.48762  -0.48350
 Alpha  occ. eigenvalues --   -0.47045  -0.46136  -0.46025  -0.44775  -0.44211
 Alpha  occ. eigenvalues --   -0.37286  -0.36297
 Alpha virt. eigenvalues --    0.05104   0.11328   0.16576   0.20110   0.22706
 Alpha virt. eigenvalues --    0.23907   0.25678   0.26144   0.26662   0.27689
 Alpha virt. eigenvalues --    0.29202   0.29477   0.31260   0.31546   0.32285

 Mulliken charges:
               1
     1  C   -0.172269
     2  C   -0.218435
     3  C   -0.171259
     4  C    0.158909
     5  C   -0.174418
     6  C   -0.222770
     7  H    0.225375
     8  H    0.223108
     9  H    0.275314
    10  H    0.275801
    11  H    0.232136
    12  N    0.488141
    13  O   -0.460814
    14  O   -0.460606
    15  C   -0.299748
    16  C   -0.299298
    17  C   -0.480668
    18  H    0.152736
    19  H    0.150260
    20  H    0.154606
    21  H    0.153300
    22  H    0.160218
    23  H    0.154377
    24  H    0.152405
    25  C   -0.298862
    26  C   -0.300270
    27  C   -0.476016
    28  H    0.150999
    29  H    0.149455
    30  H    0.153997
    31  H    0.152012
    32  H    0.154836
    33  H    0.156057
    34  H    0.161388
 Sum of Mulliken charges =  -0.00000

 Dipole moment (field-independent basis, Debye):
    X=             -0.8249    Y=             -5.0780    Z=             -0.8569  Tot=              5.2154
 Quadrupole moment (field-independent basis, Debye-Ang):
   XX=            -95.6815   YY=            -99.1151   ZZ=            -94.0830
   XY=            -17.3877   XZ=             -6.4193   YZ=             -0.2076

 Normal termination of Gaussian 16 at Wed May  5 20:31:19 2021.
