 Gaussian 16, Revision A.03,
 Gaussian 16:  EM64L-G16RevA.03 25-Dec-2016

 -------------
 #p 6-31g* mp2
 -------------

 ------------------------------------------------------
 Input file generated by CHIRIPA (05-May-2021 14:57:24)
 ------------------------------------------------------
 Symbolic Z-matrix:
 Charge =  0 Multiplicity = 1

                         Standard orientation:
 ---------------------------------------------------------------------
 Center     Atomic      Atomic             Coordinates (Angstroms)
 Number     Number       Type             X           Y           Z
 ---------------------------------------------------------------------
      1          6           0        2.245208    0.380759    1.510359
      2          6           0        3.508215    0.709680    2.013496
      3          6           0        4.659877    0.454911    1.262952
      4          6           0        4.511114   -0.132492    0.007517
      5          6           0        3.266659   -0.471710   -0.521209
      6          6           0        2.128667   -0.207849    0.246840
      7          1           0        1.355879    0.582201    2.100198
      8          1           0        3.601742    1.166889    2.994443
      9          1           0        5.649927    0.699399    1.628252
     10          1           0        3.205245   -0.926544   -1.502419
     11          1           0        1.149086   -0.464357   -0.146440
     12          7           0        5.723091   -0.407018   -0.796315
     13          8           0        5.565168   -0.925310   -1.899524
     14          8           0        6.808014   -0.098700   -0.307930
     15          6           0       -2.785259    2.033374   -0.639509
     16          6           0       -4.172450    2.192159   -0.723251
     17          6           0       -5.027592    1.120763   -0.448683
     18          6           0       -4.458905   -0.100897   -0.091708
     19          6           0       -3.080915   -0.290516    0.000375
     20          6           0       -2.244872    0.794727   -0.278600
     21          1           0       -2.128383    2.871040   -0.854511
     22          1           0       -4.594923    3.152958   -1.003297
     23          1           0       -6.105128    1.215965   -0.505883
     24          1           0       -2.689289   -1.260408    0.282080
     25          1           0       -1.167942    0.668508   -0.212764
     26          7           0       -5.354095   -1.242467    0.201297
     27          8           0       -4.828160   -2.308518    0.513647
     28          8           0       -6.564730   -1.049561    0.113056
 ---------------------------------------------------------------------

 SCF Done:  E(RHF) =  -868.336655315     A.U. after   16 cycles
 E2 =    -0.2599490514D+01 EUMP2 =    -0.87093614582986D+03

 The electronic state is 1-A.
 Alpha  occ. eigenvalues --  -20.61319 -20.61311 -20.61235 -20.61229 -15.86379
 Alpha  occ. eigenvalues --  -15.86295 -11.31863 -11.31792 -11.28524 -11.28426
 Alpha  occ. eigenvalues --  -11.28422 -11.28366 -11.28232 -11.28213 -11.27620
 Alpha  occ. eigenvalues --  -11.27556 -11.27433 -11.27393  -1.60392  -1.60308
 Alpha  occ. eigenvalues --   -1.39942  -1.39857  -1.20063  -1.19999  -1.09431
 Alpha  occ. eigenvalues --   -1.09378  -1.05505  -1.05426  -0.96240  -0.96182
 Alpha  occ. eigenvalues --   -0.86918  -0.86809  -0.83089  -0.83010  -0.78135
 Alpha  occ. eigenvalues --   -0.78013  -0.72593  -0.72511  -0.71718  -0.71634
 Alpha  occ. eigenvalues --   -0.71156  -0.71115  -0.65745  -0.65719  -0.65643
 Alpha  occ. eigenvalues --   -0.65301  -0.62946  -0.62674  -0.55983  -0.55940
 Alpha  occ. eigenvalues --   -0.53803  -0.53772  -0.53703  -0.53408  -0.49364
 Alpha  occ. eigenvalues --   -0.49341  -0.49280  -0.49256  -0.45321  -0.45233
 Alpha  occ. eigenvalues --   -0.38036  -0.38000  -0.37109  -0.37028
 Alpha virt. eigenvalues --    0.04451   0.04524   0.10539   0.10546   0.15900
 Alpha virt. eigenvalues --    0.15969   0.17770   0.21903   0.24513   0.27358
 Alpha virt. eigenvalues --    0.27688   0.28506   0.29862   0.31158   0.31715

 Mulliken charges:
               1
     1  C   -0.171971
     2  C   -0.218376
     3  C   -0.169706
     4  C    0.159021
     5  C   -0.169641
     6  C   -0.223586
     7  H    0.224678
     8  H    0.225862
     9  H    0.277908
    10  H    0.277808
    11  H    0.218578
    12  N    0.487919
    13  O   -0.458995
    14  O   -0.458614
    15  C   -0.171179
    16  C   -0.218315
    17  C   -0.169594
    18  C    0.159029
    19  C   -0.171538
    20  C   -0.223375
    21  H    0.228132
    22  H    0.226171
    23  H    0.278047
    24  H    0.274179
    25  H    0.217551
    26  N    0.488108
    27  O   -0.459900
    28  O   -0.458199
 Sum of Mulliken charges =  -0.00000

 Dipole moment (field-independent basis, Debye):
    X=             -1.1096    Y=              5.0533    Z=              1.8046  Tot=              5.4794
 Quadrupole moment (field-independent basis, Debye-Ang):
   XX=           -165.2151   YY=           -104.4378   ZZ=           -102.7346
   XY=            -15.0345   XZ=             20.6292   YZ=              0.3380

 Normal termination of Gaussian 16 at Thu May  6 16:20:02 2021.
