 Gaussian 16, Revision A.03,
 Gaussian 16:  EM64L-G16RevA.03 25-Dec-2016

 -------------
 #p 6-31g* mp2
 -------------

 ------------------------------------------------------
 Input file generated by CHIRIPA (05-May-2021 14:55:24)
 ------------------------------------------------------
 Symbolic Z-matrix:
 Charge =  0 Multiplicity = 1

                         Standard orientation:
 ---------------------------------------------------------------------
 Center     Atomic      Atomic             Coordinates (Angstroms)
 Number     Number       Type             X           Y           Z
 ---------------------------------------------------------------------
      1          6           0        1.788010    0.514092    2.504604
      2          6           0        3.115049    0.489354    2.063155
      3          6           0        3.424729    0.062801    0.768281
      4          6           0        2.377847   -0.333887   -0.062361
      5          6           0        1.045746   -0.320529    0.348269
      6          6           0        0.759407    0.109785    1.647264
      7          1           0        1.556509    0.846910    3.512094
      8          1           0        3.915916    0.802777    2.726799
      9          1           0        4.443307    0.033687    0.400763
     10          1           0        0.268901   -0.638943   -0.336233
     11          1           0       -0.272107    0.127953    1.987399
     12          7           0        2.693336   -0.787450   -1.435368
     13          8           0        1.752881   -1.131885   -2.147790
     14          8           0        3.875098   -0.789929   -1.773110
     15          6           0       -2.726035    0.816686   -0.743853
     16          6           0       -2.180908    2.123911   -0.167674
     17          6           0       -1.682460    3.083843   -1.248356
     18          1           0       -1.939911    0.328321   -1.335846
     19          1           0       -3.545433    1.044312   -1.439674
     20          1           0       -1.363698    1.893804    0.527907
     21          1           0       -2.968362    2.609126    0.423175
     22          1           0       -2.492887    3.342409   -1.937524
     23          1           0       -0.879106    2.623023   -1.832196
     24          1           0       -1.297133    4.011774   -0.814388
     25          6           0       -3.228143   -0.153302    0.324201
     26          6           0       -3.773269   -1.460528   -0.251979
     27          6           0       -4.271719   -2.420461    0.828704
     28          1           0       -2.408745   -0.380929    1.020023
     29          1           0       -4.014267    0.335061    0.916194
     30          1           0       -2.985817   -1.945743   -0.842826
     31          1           0       -4.590480   -1.230421   -0.947559
     32          1           0       -5.075072   -1.959639    1.412543
     33          1           0       -3.461291   -2.679026    1.517871
     34          1           0       -4.657045   -3.348391    0.394736
 ---------------------------------------------------------------------

 SCF Done:  E(RHF) =  -669.534724500     A.U. after   15 cycles
 E2 =    -0.2093871096D+01 EUMP2 =    -0.67162859559577D+03

 The electronic state is 1-A.
 Alpha  occ. eigenvalues --  -20.60814 -20.60808 -15.85866 -11.31229 -11.27800
 Alpha  occ. eigenvalues --  -11.27793 -11.27533 -11.26810 -11.26772 -11.22162
 Alpha  occ. eigenvalues --  -11.22062 -11.22056 -11.21899 -11.21497 -11.21300
 Alpha  occ. eigenvalues --   -1.59888  -1.39442  -1.19405  -1.09013  -1.08794
 Alpha  occ. eigenvalues --   -1.04813  -1.03972  -0.96432  -0.95632  -0.87437
 Alpha  occ. eigenvalues --   -0.86209  -0.82478  -0.80049  -0.78846  -0.77519
 Alpha  occ. eigenvalues --   -0.72085  -0.71211  -0.70521  -0.65768  -0.65028
 Alpha  occ. eigenvalues --   -0.64811  -0.62125  -0.61354  -0.59791  -0.58041
 Alpha  occ. eigenvalues --   -0.55748  -0.55275  -0.53164  -0.53086  -0.52909
 Alpha  occ. eigenvalues --   -0.52832  -0.50366  -0.48845  -0.48840  -0.48355
 Alpha  occ. eigenvalues --   -0.47100  -0.46319  -0.46261  -0.44847  -0.44272
 Alpha  occ. eigenvalues --   -0.37377  -0.36370
 Alpha virt. eigenvalues --    0.04990   0.11169   0.16361   0.18831   0.22902
 Alpha virt. eigenvalues --    0.23943   0.24826   0.25389   0.27292   0.28464
 Alpha virt. eigenvalues --    0.30707   0.31073   0.31363   0.31448   0.31783

 Mulliken charges:
               1
     1  C   -0.172185
     2  C   -0.218659
     3  C   -0.170234
     4  C    0.158274
     5  C   -0.175395
     6  C   -0.224435
     7  H    0.226491
     8  H    0.223691
     9  H    0.275810
    10  H    0.280748
    11  H    0.231138
    12  N    0.487917
    13  O   -0.461082
    14  O   -0.460044
    15  C   -0.305107
    16  C   -0.304789
    17  C   -0.476173
    18  H    0.154470
    19  H    0.155505
    20  H    0.148603
    21  H    0.151814
    22  H    0.157055
    23  H    0.160788
    24  H    0.160349
    25  C   -0.303381
    26  C   -0.300711
    27  C   -0.475914
    28  H    0.138682
    29  H    0.152775
    30  H    0.155737
    31  H    0.156038
    32  H    0.155401
    33  H    0.152812
    34  H    0.164012
 Sum of Mulliken charges =  -0.00000

 Dipole moment (field-independent basis, Debye):
    X=             -1.1896    Y=              1.6012    Z=              4.7220  Tot=              5.1260
 Quadrupole moment (field-independent basis, Debye-Ang):
   XX=            -93.9301   YY=            -96.8050   ZZ=            -96.1418
   XY=              4.5355   XZ=             13.3755   YZ=             -1.0926

 Normal termination of Gaussian 16 at Thu May  6 01:34:06 2021.
