 Gaussian 16, Revision A.03,
 Gaussian 16:  EM64L-G16RevA.03 25-Dec-2016

 -------------
 #p 6-31g* mp2
 -------------

 ------------------------------------------------------
 Input file generated by CHIRIPA (05-May-2021 14:53:14)
 ------------------------------------------------------
 Symbolic Z-matrix:
 Charge =  0 Multiplicity = 1

                         Standard orientation:
 ---------------------------------------------------------------------
 Center     Atomic      Atomic             Coordinates (Angstroms)
 Number     Number       Type             X           Y           Z
 ---------------------------------------------------------------------
      1          6           0        4.422776    0.171018    0.067320
      2          6           0        5.836383   -0.111358   -0.442548
      3          6           0        6.803158    1.042319   -0.173908
      4          1           0        4.044507    1.086484   -0.407842
      5          1           0        4.463309    0.372892    1.146671
      6          1           0        5.793016   -0.314000   -1.520356
      7          1           0        6.211257   -1.026364    0.033739
      8          1           0        6.876055    1.241698    0.900120
      9          1           0        6.455438    1.958109   -0.662806
     10          1           0        7.807786    0.819277   -0.546513
     11          6           0        3.444737   -0.973069   -0.193893
     12          6           0        2.031130   -0.690693    0.315975
     13          6           0        1.064354   -1.844370    0.047335
     14          1           0        3.404204   -1.174943   -1.273244
     15          1           0        3.823006   -1.888535    0.281269
     16          1           0        1.656255    0.224313   -0.160312
     17          1           0        2.074497   -0.488050    1.393783
     18          1           0        1.412075   -2.760160    0.536233
     19          1           0        0.991457   -2.043749   -1.026693
     20          1           0        0.059726   -1.621327    0.419940
     21          6           0       -2.241552    2.687576    0.241871
     22          6           0       -3.269828    2.376502   -0.653899
     23          6           0       -3.738560    1.064398   -0.768869
     24          6           0       -3.153653    0.083765    0.030839
     25          6           0       -2.127693    0.362221    0.932593
     26          6           0       -1.674767    1.681216    1.030867
     27          1           0       -1.883569    3.709526    0.324697
     28          1           0       -3.711870    3.156017   -1.267904
     29          1           0       -4.533324    0.795804   -1.454160
     30          1           0       -1.706734   -0.436305    1.531398
     31          1           0       -0.876060    1.919889    1.727392
     32          7           0       -3.641512   -1.308949   -0.082036
     33          8           0       -3.109583   -2.154762    0.633707
     34          8           0       -4.546587   -1.528373   -0.884114
 ---------------------------------------------------------------------

 SCF Done:  E(RHF) =  -669.535451236     A.U. after   15 cycles
 E2 =    -0.2092001748D+01 EUMP2 =    -0.67162745298443D+03

 The electronic state is 1-A.
 Alpha  occ. eigenvalues --  -20.60821 -20.60812 -15.85859 -11.31224 -11.27792
 Alpha  occ. eigenvalues --  -11.27788 -11.27532 -11.26810 -11.26799 -11.21819
 Alpha  occ. eigenvalues --  -11.21779 -11.21612 -11.21528 -11.21263 -11.20995
 Alpha  occ. eigenvalues --   -1.59883  -1.39439  -1.19400  -1.08791  -1.08614
 Alpha  occ. eigenvalues --   -1.04805  -1.03683  -0.96111  -0.95625  -0.87120
 Alpha  occ. eigenvalues --   -0.86198  -0.82457  -0.79750  -0.78441  -0.77511
 Alpha  occ. eigenvalues --   -0.72079  -0.71201  -0.70520  -0.65243  -0.65051
 Alpha  occ. eigenvalues --   -0.64814  -0.62202  -0.61076  -0.59473  -0.57741
 Alpha  occ. eigenvalues --   -0.55381  -0.55304  -0.53201  -0.52993  -0.52680
 Alpha  occ. eigenvalues --   -0.52429  -0.50034  -0.48839  -0.48836  -0.48061
 Alpha  occ. eigenvalues --   -0.46792  -0.45973  -0.45907  -0.44849  -0.43911
 Alpha  occ. eigenvalues --   -0.37372  -0.36381
 Alpha virt. eigenvalues --    0.04987   0.11163   0.16486   0.20863   0.22756
 Alpha virt. eigenvalues --    0.24060   0.26389   0.26543   0.27221   0.27948
 Alpha virt. eigenvalues --    0.28919   0.30118   0.31265   0.31587   0.31928

 Mulliken charges:
               1
     1  C   -0.298000
     2  C   -0.299792
     3  C   -0.475711
     4  H    0.147610
     5  H    0.148102
     6  H    0.152740
     7  H    0.153036
     8  H    0.154775
     9  H    0.154283
    10  H    0.161127
    11  C   -0.297902
    12  C   -0.302061
    13  C   -0.479158
    14  H    0.151228
    15  H    0.151489
    16  H    0.149231
    17  H    0.146019
    18  H    0.158295
    19  H    0.158071
    20  H    0.163026
    21  C   -0.171130
    22  C   -0.218287
    23  C   -0.171070
    24  C    0.159032
    25  C   -0.170595
    26  C   -0.219078
    27  H    0.225822
    28  H    0.223573
    29  H    0.275709
    30  H    0.276748
    31  H    0.224899
    32  N    0.488741
    33  O   -0.461042
    34  O   -0.459731
 Sum of Mulliken charges =  -0.00000

 Dipole moment (field-independent basis, Debye):
    X=              1.6823    Y=              4.8598    Z=              0.3487  Tot=              5.1545
 Quadrupole moment (field-independent basis, Debye-Ang):
   XX=           -104.4043   YY=            -94.2699   ZZ=            -91.9830
   XY=            -17.4331   XZ=              1.5170   YZ=             -1.4038

 Normal termination of Gaussian 16 at Wed May  5 23:27:55 2021.
