 Gaussian 16, Revision A.03,
 Gaussian 16:  EM64L-G16RevA.03 25-Dec-2016

 -------------
 #p 6-31g* mp2
 -------------

 ------------------------------------------------------
 Input file generated by CHIRIPA (05-May-2021 14:57:22)
 ------------------------------------------------------
 Symbolic Z-matrix:
 Charge =  0 Multiplicity = 1

                         Standard orientation:
 ---------------------------------------------------------------------
 Center     Atomic      Atomic             Coordinates (Angstroms)
 Number     Number       Type             X           Y           Z
 ---------------------------------------------------------------------
      1          6           0        3.731969    1.654987    0.401745
      2          6           0        4.218754    0.411022    0.816611
      3          6           0        3.536789   -0.764094    0.487104
      4          6           0        2.365861   -0.657947   -0.261862
      5          6           0        1.855523    0.566633   -0.689937
      6          6           0        2.553984    1.728692   -0.348881
      7          1           0        4.268143    2.562773    0.662200
      8          1           0        5.133341    0.350756    1.399658
      9          1           0        3.891280   -1.740200    0.795278
     10          1           0        0.941160    0.594829   -1.270077
     11          1           0        2.173597    2.693402   -0.672433
     12          7           0        1.635164   -1.895078   -0.616809
     13          8           0        0.605819   -1.774647   -1.277553
     14          8           0        2.105624   -2.961748   -0.227552
     15          6           0       -1.193582    2.591619   -0.151096
     16          6           0       -2.148823    2.187446   -1.089541
     17          6           0       -2.871005    1.004924   -0.903414
     18          6           0       -2.611263    0.247401    0.237630
     19          6           0       -1.665993    0.623439    1.190704
     20          6           0       -0.955635    1.809704    0.984030
     21          1           0       -0.637166    3.511685   -0.303665
     22          1           0       -2.335713    2.792701   -1.972028
     23          1           0       -3.616222    0.668512   -1.613976
     24          1           0       -1.501785   -0.000881    2.060577
     25          1           0       -0.214379    2.121125    1.714510
     26          7           0       -3.369546   -1.006463    0.445551
     27          8           0       -3.122061   -1.656137    1.459115
     28          8           0       -4.197015   -1.315826   -0.408983
 ---------------------------------------------------------------------

 SCF Done:  E(RHF) =  -868.335712935     A.U. after   16 cycles
 E2 =    -0.2603898660D+01 EUMP2 =    -0.87093961159440D+03

 The electronic state is 1-A.
 Alpha  occ. eigenvalues --  -20.60905 -20.60895 -20.60444 -20.60436 -15.85965
 Alpha  occ. eigenvalues --  -15.85508 -11.31475 -11.31201 -11.28112 -11.28085
 Alpha  occ. eigenvalues --  -11.27956 -11.27772 -11.27751 -11.27694 -11.27217
 Alpha  occ. eigenvalues --  -11.27127 -11.26970 -11.26920  -1.59973  -1.59496
 Alpha  occ. eigenvalues --   -1.39523  -1.39048  -1.19729  -1.19410  -1.09090
 Alpha  occ. eigenvalues --   -1.08785  -1.05168  -1.04841  -0.95883  -0.95552
 Alpha  occ. eigenvalues --   -0.86543  -0.86249  -0.82718  -0.82372  -0.77728
 Alpha  occ. eigenvalues --   -0.77331  -0.72180  -0.71737  -0.71312  -0.70836
 Alpha  occ. eigenvalues --   -0.70784  -0.70587  -0.65375  -0.65197  -0.65062
 Alpha  occ. eigenvalues --   -0.64854  -0.62511  -0.62181  -0.55687  -0.55441
 Alpha  occ. eigenvalues --   -0.53744  -0.53328  -0.52944  -0.52810  -0.48944
 Alpha  occ. eigenvalues --   -0.48919  -0.48514  -0.48462  -0.44894  -0.44387
 Alpha  occ. eigenvalues --   -0.37791  -0.37728  -0.36959  -0.35890
 Alpha virt. eigenvalues --    0.04786   0.05172   0.10826   0.11173   0.16275
 Alpha virt. eigenvalues --    0.16448   0.19966   0.21828   0.25690   0.27173
 Alpha virt. eigenvalues --    0.27945   0.28576   0.30184   0.31731   0.32382

 Mulliken charges:
               1
     1  C   -0.171884
     2  C   -0.220073
     3  C   -0.170003
     4  C    0.155125
     5  C   -0.165810
     6  C   -0.225578
     7  H    0.224803
     8  H    0.224462
     9  H    0.277697
    10  H    0.280531
    11  H    0.215170
    12  N    0.488298
    13  O   -0.459091
    14  O   -0.457524
    15  C   -0.184424
    16  C   -0.220133
    17  C   -0.167842
    18  C    0.168670
    19  C   -0.171400
    20  C   -0.215225
    21  H    0.218291
    22  H    0.223389
    23  H    0.278354
    24  H    0.277456
    25  H    0.223021
    26  N    0.490013
    27  O   -0.457917
    28  O   -0.458380
 Sum of Mulliken charges =  -0.00000

 Dipole moment (field-independent basis, Debye):
    X=              5.0213    Y=              8.3727    Z=              0.5317  Tot=              9.7775
 Quadrupole moment (field-independent basis, Debye-Ang):
   XX=           -103.4457   YY=           -108.5114   ZZ=           -101.8196
   XY=             -4.8378   XZ=              9.3482   YZ=             -3.3435

 Normal termination of Gaussian 16 at Wed May  5 19:20:37 2021.
