 Gaussian 16, Revision A.03,
 Gaussian 16:  EM64L-G16RevA.03 25-Dec-2016

 -------------
 #p 6-31g* mp2
 -------------

 ------------------------------------------------------
 Input file generated by CHIRIPA (05-May-2021 14:53:11)
 ------------------------------------------------------
 Symbolic Z-matrix:
 Charge =  0 Multiplicity = 1

                         Standard orientation:
 ---------------------------------------------------------------------
 Center     Atomic      Atomic             Coordinates (Angstroms)
 Number     Number       Type             X           Y           Z
 ---------------------------------------------------------------------
      1          6           0        3.663432    0.831714   -0.473503
      2          6           0        2.769522    1.770152    0.337819
      3          6           0        2.833389    3.217289   -0.151575
      4          1           0        4.700506    1.191055   -0.425591
      5          1           0        3.365857    0.875826   -1.530338
      6          1           0        3.067790    1.723237    1.393021
      7          1           0        1.734484    1.408427    0.288128
      8          1           0        2.515627    3.284768   -1.197078
      9          1           0        3.856508    3.601367   -0.085906
     10          1           0        2.186890    3.870850    0.442358
     11          6           0        3.610367   -0.618512    0.003735
     12          6           0        4.504277   -1.556949   -0.807587
     13          6           0        4.440409   -3.004087   -0.318193
     14          1           0        3.907941   -0.662624    1.060570
     15          1           0        2.573292   -0.977853   -0.044177
     16          1           0        5.539314   -1.195225   -0.757896
     17          1           0        4.206008   -1.510035   -1.862789
     18          1           0        3.417290   -3.388165   -0.383862
     19          1           0        4.758171   -3.071566    0.727310
     20          1           0        5.086908   -3.657648   -0.912126
     21          6           0       -0.702897    0.277866    1.472925
     22          6           0       -1.458023   -0.881168    1.680161
     23          6           0       -2.644499   -1.091766    0.971309
     24          6           0       -3.048063   -0.118197    0.058847
     25          6           0       -2.317607    1.046892   -0.169830
     26          6           0       -1.134338    1.236506    0.550219
     27          1           0        0.217541    0.433313    2.027927
     28          1           0       -1.125392   -1.627367    2.396112
     29          1           0       -3.248412   -1.979951    1.112152
     30          1           0       -2.674814    1.772757   -0.890205
     31          1           0       -0.549922    2.137581    0.387224
     32          7           0       -4.302435   -0.330041   -0.697509
     33          8           0       -4.636342    0.542858   -1.495751
     34          8           0       -4.927952   -1.364971   -0.477777
 ---------------------------------------------------------------------

 SCF Done:  E(RHF) =  -669.534887144     A.U. after   15 cycles
 E2 =    -0.2092783273D+01 EUMP2 =    -0.67162767041623D+03

 The electronic state is 1-A.
 Alpha  occ. eigenvalues --  -20.60772 -20.60767 -15.85826 -11.31198 -11.27768
 Alpha  occ. eigenvalues --  -11.27762 -11.27464 -11.26768 -11.26744 -11.22669
 Alpha  occ. eigenvalues --  -11.22211 -11.22183 -11.22108 -11.22080 -11.21584
 Alpha  occ. eigenvalues --   -1.59848  -1.39401  -1.19371  -1.09248  -1.08758
 Alpha  occ. eigenvalues --   -1.04778  -1.04336  -0.96762  -0.95596  -0.87779
 Alpha  occ. eigenvalues --   -0.86180  -0.82425  -0.80447  -0.79057  -0.77474
 Alpha  occ. eigenvalues --   -0.72045  -0.71172  -0.70469  -0.65922  -0.65017
 Alpha  occ. eigenvalues --   -0.64774  -0.62203  -0.61639  -0.60147  -0.58376
 Alpha  occ. eigenvalues --   -0.56028  -0.55262  -0.53469  -0.53200  -0.53099
 Alpha  occ. eigenvalues --   -0.52853  -0.50694  -0.48813  -0.48801  -0.48717
 Alpha  occ. eigenvalues --   -0.47453  -0.46576  -0.46478  -0.44806  -0.44576
 Alpha  occ. eigenvalues --   -0.37308  -0.36370
 Alpha virt. eigenvalues --    0.05035   0.11130   0.16484   0.20164   0.22535
 Alpha virt. eigenvalues --    0.23515   0.25479   0.26088   0.26271   0.28339
 Alpha virt. eigenvalues --    0.29266   0.30526   0.30724   0.31287   0.31810

 Mulliken charges:
               1
     1  C   -0.296754
     2  C   -0.311602
     3  C   -0.477587
     4  H    0.152527
     5  H    0.152998
     6  H    0.150165
     7  H    0.151363
     8  H    0.158300
     9  H    0.160846
    10  H    0.156870
    11  C   -0.301109
    12  C   -0.300091
    13  C   -0.476370
    14  H    0.147309
    15  H    0.150233
    16  H    0.153332
    17  H    0.154483
    18  H    0.155608
    19  H    0.154483
    20  H    0.162866
    21  C   -0.171530
    22  C   -0.219955
    23  C   -0.170907
    24  C    0.158237
    25  C   -0.172193
    26  C   -0.221809
    27  H    0.230194
    28  H    0.223822
    29  H    0.275651
    30  H    0.275773
    31  H    0.227505
    32  N    0.488117
    33  O   -0.460375
    34  O   -0.460400
 Sum of Mulliken charges =  -0.00000

 Dipole moment (field-independent basis, Debye):
    X=              4.5604    Y=              0.7133    Z=              2.5863  Tot=              5.2910
 Quadrupole moment (field-independent basis, Debye-Ang):
   XX=           -121.1813   YY=            -92.2819   ZZ=            -93.5643
   XY=             -1.9167   XZ=             -8.0980   YZ=             -2.3582

 Normal termination of Gaussian 16 at Wed May  5 16:57:25 2021.
