 Gaussian 16, Revision A.03,
 Gaussian 16:  EM64L-G16RevA.03 25-Dec-2016

 -------------
 #p 6-31g* mp2
 -------------

 ------------------------------------------------------
 Input file generated by CHIRIPA (05-May-2021 14:51:10)
 ------------------------------------------------------
 Symbolic Z-matrix:
 Charge =  0 Multiplicity = 1

                         Standard orientation:
 ---------------------------------------------------------------------
 Center     Atomic      Atomic             Coordinates (Angstroms)
 Number     Number       Type             X           Y           Z
 ---------------------------------------------------------------------
      1          6           0       -5.020094   -0.176096   -0.369945
      2          6           0       -6.475471   -0.451680    0.009419
      3          6           0       -7.411010   -0.455756   -1.199937
      4          1           0       -4.959271    0.792052   -0.885634
      5          1           0       -4.686166   -0.935544   -1.090450
      6          1           0       -6.806124    0.307252    0.730049
      7          1           0       -6.532808   -1.419196    0.524435
      8          1           0       -7.108564   -1.224513   -1.918366
      9          1           0       -7.383432    0.511744   -1.711585
     10          1           0       -8.446316   -0.654671   -0.905940
     11          6           0       -4.072632   -0.168819    0.828383
     12          6           0       -2.617255    0.106764    0.449019
     13          6           0       -1.681716    0.110841    1.658375
     14          1           0       -4.406560    0.590629    1.548887
     15          1           0       -4.133455   -1.136967    1.344072
     16          1           0       -2.559918    1.074280   -0.065997
     17          1           0       -2.286602   -0.652167   -0.271611
     18          1           0       -1.709293   -0.856660    2.170022
     19          1           0       -1.984162    0.879597    2.376804
     20          1           0       -0.646410    0.309755    1.364378
     21          6           0        5.263166    0.137491    0.032321
     22          6           0        6.010057   -1.120571   -0.411998
     23          6           0        7.442737   -1.176094    0.119173
     24          1           0        5.816305    1.023810   -0.307414
     25          1           0        5.250012    0.179118    1.130269
     26          1           0        6.020599   -1.160529   -1.508769
     27          1           0        5.454975   -2.004000   -0.071331
     28          1           0        7.448590   -1.161113    1.213860
     29          1           0        8.017427   -0.312851   -0.231745
     30          1           0        7.958234   -2.083543   -0.210463
     31          6           0        3.829560    0.207424   -0.490758
     32          6           0        3.082668    1.465487   -0.046440
     33          6           0        1.649989    1.521009   -0.577611
     34          1           0        3.842714    0.165797   -1.588705
     35          1           0        3.276421   -0.678895   -0.151024
     36          1           0        3.637750    2.348915   -0.387107
     37          1           0        3.072128    1.505444    1.050331
     38          1           0        1.075299    0.657766   -0.226693
     39          1           0        1.644136    1.506029   -1.672299
     40          1           0        1.134492    2.428459   -0.247975
 ---------------------------------------------------------------------

 SCF Done:  E(RHF) =  -470.733239317     A.U. after   11 cycles
 E2 =    -0.1582268730D+01 EUMP2 =    -0.47231550804732D+03

 The electronic state is 1-A.
 Alpha  occ. eigenvalues --  -11.21614 -11.21604 -11.21582 -11.21556 -11.21412
 Alpha  occ. eigenvalues --  -11.21376 -11.21352 -11.21316 -11.21082 -11.21072
 Alpha  occ. eigenvalues --  -11.21055 -11.21002  -1.08439  -1.08398  -1.03549
 Alpha  occ. eigenvalues --   -1.03489  -0.96018  -0.95923  -0.87045  -0.86931
 Alpha  occ. eigenvalues --   -0.79609  -0.79552  -0.78250  -0.78210  -0.65073
 Alpha  occ. eigenvalues --   -0.65029  -0.60979  -0.60893  -0.59374  -0.59311
 Alpha  occ. eigenvalues --   -0.57662  -0.57522  -0.55280  -0.55234  -0.52771
 Alpha  occ. eigenvalues --   -0.52615  -0.52452  -0.52278  -0.49902  -0.49888
 Alpha  occ. eigenvalues --   -0.47953  -0.47836  -0.46620  -0.46593  -0.45790
 Alpha  occ. eigenvalues --   -0.45754  -0.45714  -0.45679  -0.43800  -0.43728
 Alpha virt. eigenvalues --    0.21761   0.23017   0.23482   0.24961   0.26450
 Alpha virt. eigenvalues --    0.26673   0.27050   0.27549   0.27660   0.28959
 Alpha virt. eigenvalues --    0.30459   0.31392   0.31622   0.31791   0.32113

 Mulliken charges:
               1
     1  C   -0.298250
     2  C   -0.299631
     3  C   -0.475688
     4  H    0.149697
     5  H    0.149499
     6  H    0.151876
     7  H    0.151865
     8  H    0.155158
     9  H    0.155174
    10  H    0.160172
    11  C   -0.298222
    12  C   -0.299093
    13  C   -0.482227
    14  H    0.149441
    15  H    0.149455
    16  H    0.152640
    17  H    0.151597
    18  H    0.154400
    19  H    0.154966
    20  H    0.166450
    21  C   -0.298334
    22  C   -0.299676
    23  C   -0.475718
    24  H    0.149670
    25  H    0.149647
    26  H    0.151917
    27  H    0.151978
    28  H    0.155230
    29  H    0.155180
    30  H    0.160261
    31  C   -0.298444
    32  C   -0.299942
    33  C   -0.480678
    34  H    0.149573
    35  H    0.149736
    36  H    0.152135
    37  H    0.152198
    38  H    0.159813
    39  H    0.155621
    40  H    0.160551
 Sum of Mulliken charges =  -0.00000

 Dipole moment (field-independent basis, Debye):
    X=              0.0232    Y=              0.0111    Z=             -0.0129  Tot=              0.0288
 Quadrupole moment (field-independent basis, Debye-Ang):
   XX=            -86.4828   YY=            -83.5494   ZZ=            -84.7980
   XY=              0.1477   XZ=             -1.2116   YZ=             -0.2647

 Normal termination of Gaussian 16 at Thu May  6 02:11:09 2021.
