 Gaussian 16, Revision A.03,
 Gaussian 16:  EM64L-G16RevA.03 25-Dec-2016

 -------------
 #p 6-31g* mp2
 -------------

 ------------------------------------------------------
 Input file generated by CHIRIPA (05-May-2021 14:53:11)
 ------------------------------------------------------
 Symbolic Z-matrix:
 Charge =  0 Multiplicity = 1

                         Standard orientation:
 ---------------------------------------------------------------------
 Center     Atomic      Atomic             Coordinates (Angstroms)
 Number     Number       Type             X           Y           Z
 ---------------------------------------------------------------------
      1          6           0        3.484986   -0.510350    0.022283
      2          6           0        2.512697   -0.298136    1.183148
      3          6           0        1.197787   -1.056377    0.999092
      4          1           0        3.004411   -0.192175   -0.913001
      5          1           0        3.691576   -1.584507   -0.082135
      6          1           0        2.309081    0.775424    1.286225
      7          1           0        2.995712   -0.616675    2.115803
      8          1           0        1.381726   -2.132602    0.918436
      9          1           0        0.691194   -0.732594    0.084145
     10          1           0        0.517589   -0.890559    1.840339
     11          6           0        4.804101    0.241276    0.191759
     12          6           0        5.776389    0.029061   -0.969105
     13          6           0        7.091299    0.787302   -0.785050
     14          1           0        4.597510    1.315432    0.296178
     15          1           0        5.284675   -0.076900    1.127043
     16          1           0        5.293374    0.347600   -1.901761
     17          1           0        5.980005   -1.044499   -1.072183
     18          1           0        7.597892    0.463519    0.129897
     19          1           0        6.907360    1.863528   -0.704393
     20          1           0        7.771497    0.621485   -1.626297
     21          6           0       -3.159232   -2.404616   -0.330633
     22          6           0       -4.021876   -1.649102   -1.131611
     23          6           0       -4.073809   -0.257915   -1.003355
     24          6           0       -3.245532    0.347738   -0.059730
     25          6           0       -2.375524   -0.377527    0.752901
     26          6           0       -2.340254   -1.767540    0.607412
     27          1           0       -3.125361   -3.484868   -0.436958
     28          1           0       -4.659044   -2.141173   -1.860944
     29          1           0       -4.732343    0.351220   -1.610568
     30          1           0       -1.752359    0.141336    1.471138
     31          1           0       -1.669339   -2.351742    1.230812
     32          7           0       -3.291691    1.819904    0.085170
     33          8           0       -2.551851    2.329557    0.923936
     34          8           0       -4.066838    2.436259   -0.642765
 ---------------------------------------------------------------------

 SCF Done:  E(RHF) =  -669.534711694     A.U. after   15 cycles
 E2 =    -0.2092125643D+01 EUMP2 =    -0.67162683733717D+03

 The electronic state is 1-A.
 Alpha  occ. eigenvalues --  -20.60727 -20.60722 -15.85778 -11.31109 -11.27681
 Alpha  occ. eigenvalues --  -11.27639 -11.27413 -11.26697 -11.26637 -11.21945
 Alpha  occ. eigenvalues --  -11.21760 -11.21712 -11.21639 -11.21511 -11.21134
 Alpha  occ. eigenvalues --   -1.59803  -1.39357  -1.19285  -1.08688  -1.08658
 Alpha  occ. eigenvalues --   -1.04693  -1.03808  -0.96305  -0.95523  -0.87341
 Alpha  occ. eigenvalues --   -0.86078  -0.82360  -0.79891  -0.78448  -0.77395
 Alpha  occ. eigenvalues --   -0.71998  -0.71127  -0.70402  -0.65287  -0.64937
 Alpha  occ. eigenvalues --   -0.64681  -0.62108  -0.61192  -0.59647  -0.57888
 Alpha  occ. eigenvalues --   -0.55590  -0.55190  -0.53232  -0.52881  -0.52816
 Alpha  occ. eigenvalues --   -0.52584  -0.50203  -0.48753  -0.48752  -0.48194
 Alpha  occ. eigenvalues --   -0.46877  -0.46000  -0.45897  -0.44769  -0.44072
 Alpha  occ. eigenvalues --   -0.37274  -0.36223
 Alpha virt. eigenvalues --    0.05112   0.11346   0.16562   0.20614   0.22735
 Alpha virt. eigenvalues --    0.23939   0.26054   0.26462   0.27170   0.28082
 Alpha virt. eigenvalues --    0.28842   0.30249   0.31236   0.31462   0.32222

 Mulliken charges:
               1
     1  C   -0.299219
     2  C   -0.300925
     3  C   -0.480072
     4  H    0.151468
     5  H    0.148115
     6  H    0.158667
     7  H    0.152456
     8  H    0.152272
     9  H    0.163169
    10  H    0.150329
    11  C   -0.298953
    12  C   -0.299879
    13  C   -0.475944
    14  H    0.152262
    15  H    0.149684
    16  H    0.152734
    17  H    0.151095
    18  H    0.155116
    19  H    0.156501
    20  H    0.160524
    21  C   -0.171876
    22  C   -0.218808
    23  C   -0.171431
    24  C    0.157713
    25  C   -0.171533
    26  C   -0.217145
    27  H    0.225229
    28  H    0.223008
    29  H    0.275150
    30  H    0.277322
    31  H    0.226311
    32  N    0.488285
    33  O   -0.460916
    34  O   -0.460709
 Sum of Mulliken charges =  -0.00000

 Dipole moment (field-independent basis, Debye):
    X=              0.2964    Y=             -5.1449    Z=             -0.5463  Tot=              5.1823
 Quadrupole moment (field-independent basis, Debye-Ang):
   XX=            -94.5056   YY=            -98.6669   ZZ=            -92.4295
   XY=             16.2793   XZ=              4.7361   YZ=             -0.3769

 Normal termination of Gaussian 16 at Thu May  6 02:28:05 2021.
