 Gaussian 16, Revision A.03,
 Gaussian 16:  EM64L-G16RevA.03 25-Dec-2016

 -------------
 #p 6-31g* mp2
 -------------

 ------------------------------------------------------
 Input file generated by CHIRIPA (05-May-2021 14:51:08)
 ------------------------------------------------------
 Symbolic Z-matrix:
 Charge =  0 Multiplicity = 1

                         Standard orientation:
 ---------------------------------------------------------------------
 Center     Atomic      Atomic             Coordinates (Angstroms)
 Number     Number       Type             X           Y           Z
 ---------------------------------------------------------------------
      1          6           0       -2.664312   -1.066139   -0.332654
      2          6           0       -1.566061   -1.669564    0.543536
      3          6           0       -0.756193   -2.745307   -0.180815
      4          1           0       -3.335895   -1.866958   -0.671196
      5          1           0       -2.208838   -0.637404   -1.236050
      6          1           0       -2.023324   -2.095810    1.445668
      7          1           0       -0.897125   -0.867190    0.880188
      8          1           0       -0.273519   -2.329846   -1.071331
      9          1           0       -1.406117   -3.565448   -0.502638
     10          1           0        0.023340   -3.163142    0.463857
     11          6           0       -3.482611    0.010798    0.377501
     12          6           0       -4.580861    0.614223   -0.498689
     13          6           0       -5.390730    1.689965    0.225662
     14          1           0       -3.938084   -0.417938    1.280898
     15          1           0       -2.811027    0.811616    0.716043
     16          1           0       -5.249798   -0.188152   -0.835341
     17          1           0       -4.123599    1.040468   -1.400821
     18          1           0       -4.740806    2.510106    0.547485
     19          1           0       -5.873404    1.274505    1.116178
     20          1           0       -6.170263    2.107800   -0.419010
     21          6           0        2.883381   -0.176364   -0.249660
     22          6           0        3.781606   -1.266003    0.336740
     23          6           0        3.388800   -2.668976   -0.127117
     24          1           0        1.840869   -0.378668    0.031739
     25          1           0        2.926414   -0.226378   -1.346492
     26          1           0        3.737969   -1.213057    1.432145
     27          1           0        4.822124   -1.060976    0.054074
     28          1           0        3.450220   -2.745495   -1.217518
     29          1           0        2.359904   -2.898441    0.168382
     30          1           0        4.043876   -3.432443    0.303989
     31          6           0        3.263541    1.231706    0.204813
     32          6           0        2.365317    2.321345   -0.381588
     33          6           0        2.758123    3.724317    0.082270
     34          1           0        3.220509    1.281720    1.301645
     35          1           0        4.306054    1.434010   -0.076586
     36          1           0        1.324798    2.116318   -0.098921
     37          1           0        2.408953    2.268400   -1.476992
     38          1           0        3.787018    3.953783   -0.213229
     39          1           0        2.696702    3.800837    1.172671
     40          1           0        2.103046    4.487785   -0.348836
 ---------------------------------------------------------------------

 SCF Done:  E(RHF) =  -470.733049893     A.U. after   11 cycles
 E2 =    -0.1583296538D+01 EUMP2 =    -0.47231634643130D+03

 The electronic state is 1-A.
 Alpha  occ. eigenvalues --  -11.21664 -11.21636 -11.21621 -11.21570 -11.21437
 Alpha  occ. eigenvalues --  -11.21408 -11.21378 -11.21346 -11.21099 -11.21096
 Alpha  occ. eigenvalues --  -11.21086 -11.20964  -1.08471  -1.08424  -1.03581
 Alpha  occ. eigenvalues --   -1.03506  -0.96032  -0.95951  -0.87068  -0.86950
 Alpha  occ. eigenvalues --   -0.79666  -0.79550  -0.78277  -0.78245  -0.65170
 Alpha  occ. eigenvalues --   -0.64996  -0.61048  -0.60867  -0.59444  -0.59289
 Alpha  occ. eigenvalues --   -0.57680  -0.57531  -0.55311  -0.55259  -0.52817
 Alpha  occ. eigenvalues --   -0.52657  -0.52456  -0.52281  -0.49998  -0.49854
 Alpha  occ. eigenvalues --   -0.47955  -0.47871  -0.46674  -0.46589  -0.45894
 Alpha  occ. eigenvalues --   -0.45768  -0.45736  -0.45628  -0.43796  -0.43770
 Alpha virt. eigenvalues --    0.20214   0.23247   0.23487   0.24688   0.25988
 Alpha virt. eigenvalues --    0.26688   0.26907   0.27351   0.28285   0.29358
 Alpha virt. eigenvalues --    0.29774   0.31432   0.31686   0.31840   0.32077

 Mulliken charges:
               1
     1  C   -0.298598
     2  C   -0.302129
     3  C   -0.480045
     4  H    0.149935
     5  H    0.150138
     6  H    0.152193
     7  H    0.152630
     8  H    0.157782
     9  H    0.155652
    10  H    0.163212
    11  C   -0.298255
    12  C   -0.299713
    13  C   -0.475733
    14  H    0.149567
    15  H    0.149375
    16  H    0.152019
    17  H    0.152126
    18  H    0.155209
    19  H    0.155184
    20  H    0.160358
    21  C   -0.303158
    22  C   -0.299063
    23  C   -0.482181
    24  H    0.154462
    25  H    0.149188
    26  H    0.151430
    27  H    0.151737
    28  H    0.154708
    29  H    0.162789
    30  H    0.159503
    31  C   -0.298145
    32  C   -0.299501
    33  C   -0.475698
    34  H    0.149507
    35  H    0.149879
    36  H    0.150876
    37  H    0.151925
    38  H    0.155392
    39  H    0.155277
    40  H    0.160168
 Sum of Mulliken charges =  -0.00000

 Dipole moment (field-independent basis, Debye):
    X=             -0.0345    Y=             -0.0166    Z=             -0.0109  Tot=              0.0398
 Quadrupole moment (field-independent basis, Debye-Ang):
   XX=            -84.5171   YY=            -86.0243   ZZ=            -84.2409
   XY=              0.9753   XZ=             -0.4971   YZ=             -0.8722

 Normal termination of Gaussian 16 at Wed May  5 22:55:50 2021.
