 Gaussian 16, Revision A.03,
 Gaussian 16:  EM64L-G16RevA.03 25-Dec-2016

 -------------
 #p 6-31g* mp2
 -------------

 ------------------------------------------------------
 Input file generated by CHIRIPA (05-May-2021 14:53:11)
 ------------------------------------------------------
 Symbolic Z-matrix:
 Charge =  0 Multiplicity = 1

                         Standard orientation:
 ---------------------------------------------------------------------
 Center     Atomic      Atomic             Coordinates (Angstroms)
 Number     Number       Type             X           Y           Z
 ---------------------------------------------------------------------
      1          6           0        2.450802    0.299093    0.042910
      2          6           0        3.866378   -0.046619   -0.420354
      3          6           0        4.143009   -1.550283   -0.404106
      4          1           0        2.298215   -0.092298    1.058034
      5          1           0        1.725393   -0.215117   -0.602662
      6          1           0        4.588888    0.469192    0.225041
      7          1           0        4.015678    0.345807   -1.434418
      8          1           0        3.444982   -2.077536   -1.062410
      9          1           0        4.021449   -1.953450    0.606478
     10          1           0        5.160518   -1.774934   -0.738871
     11          6           0        2.159124    1.798605    0.032170
     12          6           0        0.743548    2.144316    0.495434
     13          6           0        0.466918    3.647981    0.479186
     14          1           0        2.884533    2.312815    0.677742
     15          1           0        2.311711    2.189996   -0.982954
     16          1           0        0.594249    1.751890    1.509498
     17          1           0        0.021038    1.628506   -0.149961
     18          1           0        0.588477    4.051148   -0.531398
     19          1           0        1.164944    4.175233    1.137490
     20          1           0       -0.550591    3.872631    0.813951
     21          6           0       -0.104534   -2.553873    0.663788
     22          6           0       -0.916713   -1.945236    1.626308
     23          6           0       -1.859948   -0.982935    1.253706
     24          6           0       -1.964737   -0.651732   -0.096336
     25          6           0       -1.170013   -1.240322   -1.078815
     26          6           0       -0.233547   -2.200098   -0.683326
     27          1           0        0.625565   -3.300432    0.962124
     28          1           0       -0.818716   -2.218016    2.673224
     29          1           0       -2.501480   -0.496032    1.978124
     30          1           0       -1.290849   -0.947669   -2.114755
     31          1           0        0.395864   -2.671126   -1.433005
     32          7           0       -2.959713    0.365677   -0.502908
     33          8           0       -3.032490    0.639964   -1.698779
     34          8           0       -3.647960    0.869570    0.381990
 ---------------------------------------------------------------------

 SCF Done:  E(RHF) =  -669.533827061     A.U. after   15 cycles
 E2 =    -0.2096060676D+01 EUMP2 =    -0.67162988773789D+03

 The electronic state is 1-A.
 Alpha  occ. eigenvalues --  -20.60834 -20.60829 -15.85882 -11.31234 -11.27809
 Alpha  occ. eigenvalues --  -11.27797 -11.27529 -11.26833 -11.26807 -11.21957
 Alpha  occ. eigenvalues --  -11.21752 -11.21492 -11.21458 -11.21378 -11.20778
 Alpha  occ. eigenvalues --   -1.59907  -1.39461  -1.19427  -1.08822  -1.08553
 Alpha  occ. eigenvalues --   -1.04837  -1.03680  -0.96127  -0.95647  -0.87151
 Alpha  occ. eigenvalues --   -0.86228  -0.82486  -0.79764  -0.78367  -0.77532
 Alpha  occ. eigenvalues --   -0.72101  -0.71236  -0.70514  -0.65232  -0.65075
 Alpha  occ. eigenvalues --   -0.64823  -0.62180  -0.61091  -0.59525  -0.57735
 Alpha  occ. eigenvalues --   -0.55454  -0.55310  -0.53362  -0.52924  -0.52731
 Alpha  occ. eigenvalues --   -0.52549  -0.50105  -0.48863  -0.48857  -0.48114
 Alpha  occ. eigenvalues --   -0.46819  -0.45858  -0.45728  -0.44853  -0.43887
 Alpha  occ. eigenvalues --   -0.37297  -0.36322
 Alpha virt. eigenvalues --    0.04966   0.11086   0.16396   0.20329   0.23007
 Alpha virt. eigenvalues --    0.23967   0.25702   0.26743   0.27532   0.27859
 Alpha virt. eigenvalues --    0.29011   0.29614   0.31408   0.31886   0.32160

 Mulliken charges:
               1
     1  C   -0.302178
     2  C   -0.299259
     3  C   -0.474402
     4  H    0.145500
     5  H    0.155011
     6  H    0.153116
     7  H    0.152775
     8  H    0.146114
     9  H    0.151616
    10  H    0.162960
    11  C   -0.298199
    12  C   -0.300900
    13  C   -0.476523
    14  H    0.148601
    15  H    0.149920
    16  H    0.148827
    17  H    0.152547
    18  H    0.156745
    19  H    0.152670
    20  H    0.166795
    21  C   -0.165550
    22  C   -0.218774
    23  C   -0.170029
    24  C    0.161451
    25  C   -0.173721
    26  C   -0.219830
    27  H    0.226817
    28  H    0.223595
    29  H    0.275736
    30  H    0.275543
    31  H    0.224544
    32  N    0.489486
    33  O   -0.460795
    34  O   -0.460208
 Sum of Mulliken charges =  -0.00000

 Dipole moment (field-independent basis, Debye):
    X=              3.3860    Y=             -3.5669    Z=              1.4549  Tot=              5.1288
 Quadrupole moment (field-independent basis, Debye-Ang):
   XX=           -109.1857   YY=            -91.7146   ZZ=            -89.6415
   XY=              4.9982   XZ=             -4.4610   YZ=             -0.1340

 Normal termination of Gaussian 16 at Wed May  5 18:29:01 2021.
