 Gaussian 16, Revision A.03,
 Gaussian 16:  EM64L-G16RevA.03 25-Dec-2016

 -------------
 #p 6-31g* mp2
 -------------

 ------------------------------------------------------
 Input file generated by CHIRIPA (05-May-2021 14:55:21)
 ------------------------------------------------------
 Symbolic Z-matrix:
 Charge =  0 Multiplicity = 1

                         Standard orientation:
 ---------------------------------------------------------------------
 Center     Atomic      Atomic             Coordinates (Angstroms)
 Number     Number       Type             X           Y           Z
 ---------------------------------------------------------------------
      1          6           0        0.711925   -0.809553    2.430250
      2          6           0        0.348119   -1.620921    1.350505
      3          6           0        1.001053   -1.500427    0.120178
      4          6           0        2.017865   -0.553883    0.004256
      5          6           0        2.403182    0.269030    1.061439
      6          6           0        1.736489    0.131175    2.282531
      7          1           0        0.199366   -0.909899    3.382410
      8          1           0       -0.447203   -2.352360    1.462335
      9          1           0        0.739566   -2.115743   -0.732130
     10          1           0        3.199882    0.989127    0.919502
     11          1           0        2.021140    0.762637    3.119355
     12          7           0        2.716380   -0.417131   -1.293348
     13          8           0        3.608912    0.424406   -1.369759
     14          8           0        2.358117   -1.154072   -2.209428
     15          6           0       -2.270082    1.469969   -0.137692
     16          6           0       -0.783336    1.795183   -0.285364
     17          6           0       -0.468152    3.263685    0.000920
     18          1           0       -2.848248    2.109972   -0.818181
     19          1           0       -2.594350    1.723691    0.881068
     20          1           0       -0.461645    1.539632   -1.303118
     21          1           0       -0.208626    1.154198    0.395417
     22          1           0       -0.761619    3.528751    1.021810
     23          1           0       -1.016075    3.916376   -0.686375
     24          1           0        0.600105    3.474118   -0.110458
     25          6           0       -2.600936    0.005668   -0.420688
     26          6           0       -4.087682   -0.319545   -0.273016
     27          6           0       -4.402866   -1.788046   -0.559300
     28          1           0       -2.276668   -0.248052   -1.439447
     29          1           0       -2.022769   -0.634334    0.259800
     30          1           0       -4.662392    0.321440   -0.953796
     31          1           0       -4.409373   -0.063994    0.744738
     32          1           0       -3.854942   -2.440738    0.127995
     33          1           0       -4.109399   -2.053114   -1.580191
     34          1           0       -5.471122   -1.998481   -0.447922
 ---------------------------------------------------------------------

 SCF Done:  E(RHF) =  -669.532491396     A.U. after   15 cycles
 E2 =    -0.2097730706D+01 EUMP2 =    -0.67163022210216D+03

 The electronic state is 1-A.
 Alpha  occ. eigenvalues --  -20.60841 -20.60836 -15.85895 -11.31277 -11.27871
 Alpha  occ. eigenvalues --  -11.27855 -11.27659 -11.26932 -11.26915 -11.21887
 Alpha  occ. eigenvalues --  -11.21544 -11.21489 -11.21460 -11.21363 -11.21056
 Alpha  occ. eigenvalues --   -1.59914  -1.39467  -1.19534  -1.08901  -1.08567
 Alpha  occ. eigenvalues --   -1.04928  -1.03671  -0.96149  -0.95713  -0.87168
 Alpha  occ. eigenvalues --   -0.86306  -0.82548  -0.79765  -0.78426  -0.77574
 Alpha  occ. eigenvalues --   -0.72116  -0.71234  -0.70603  -0.65304  -0.65149
 Alpha  occ. eigenvalues --   -0.64884  -0.62258  -0.61122  -0.59550  -0.57774
 Alpha  occ. eigenvalues --   -0.55475  -0.55407  -0.53590  -0.53006  -0.52743
 Alpha  occ. eigenvalues --   -0.52557  -0.50100  -0.48878  -0.48866  -0.48033
 Alpha  occ. eigenvalues --   -0.46777  -0.45893  -0.45522  -0.44862  -0.43906
 Alpha  occ. eigenvalues --   -0.37495  -0.36444
 Alpha virt. eigenvalues --    0.04944   0.10998   0.16353   0.20589   0.23030
 Alpha virt. eigenvalues --    0.23779   0.26210   0.26641   0.27639   0.28242
 Alpha virt. eigenvalues --    0.28959   0.30275   0.31097   0.31576   0.32396

 Mulliken charges:
               1
     1  C   -0.173206
     2  C   -0.218596
     3  C   -0.167728
     4  C    0.163256
     5  C   -0.173920
     6  C   -0.217557
     7  H    0.226578
     8  H    0.225016
     9  H    0.276874
    10  H    0.276197
    11  H    0.224706
    12  N    0.488181
    13  O   -0.460404
    14  O   -0.460250
    15  C   -0.295581
    16  C   -0.310817
    17  C   -0.475001
    18  H    0.150398
    19  H    0.145021
    20  H    0.153175
    21  H    0.164811
    22  H    0.150158
    23  H    0.156338
    24  H    0.160351
    25  C   -0.303789
    26  C   -0.299152
    27  C   -0.474729
    28  H    0.151529
    29  H    0.147529
    30  H    0.154391
    31  H    0.149595
    32  H    0.146890
    33  H    0.157761
    34  H    0.161977
 Sum of Mulliken charges =  -0.00000

 Dipole moment (field-independent basis, Debye):
    X=             -2.3158    Y=             -0.5335    Z=              4.5521  Tot=              5.1351
 Quadrupole moment (field-independent basis, Debye-Ang):
   XX=           -103.9306   YY=            -93.2935   ZZ=            -93.4520
   XY=              2.3736   XZ=             10.8441   YZ=             -1.4210

 Normal termination of Gaussian 16 at Wed May  5 15:56:39 2021.
