 Gaussian 16, Revision A.03,
 Gaussian 16:  EM64L-G16RevA.03 25-Dec-2016

 -------------
 #p 6-31g* mp2
 -------------

 ------------------------------------------------------
 Input file generated by CHIRIPA (05-May-2021 14:55:24)
 ------------------------------------------------------
 Symbolic Z-matrix:
 Charge =  0 Multiplicity = 1

                         Standard orientation:
 ---------------------------------------------------------------------
 Center     Atomic      Atomic             Coordinates (Angstroms)
 Number     Number       Type             X           Y           Z
 ---------------------------------------------------------------------
      1          6           0        5.603691   -0.055247   -0.028619
      2          6           0        4.930313   -0.806874   -0.997195
      3          6           0        3.539811   -0.943899   -0.949504
      4          6           0        2.851079   -0.312990    0.085336
      5          6           0        3.493390    0.442551    1.065073
      6          6           0        4.884348    0.565972    0.997615
      7          1           0        6.684044    0.045913   -0.073344
      8          1           0        5.486377   -1.290428   -1.795326
      9          1           0        2.993276   -1.519892   -1.686354
     10          1           0        2.911822    0.912914    1.848626
     11          1           0        5.404658    1.150313    1.751185
     12          7           0        1.378775   -0.450851    0.146288
     13          8           0        0.795013    0.114831    1.068168
     14          8           0        0.836423   -1.121978   -0.728972
     15          6           0       -4.054085   -0.386319   -0.081593
     16          6           0       -5.464648   -0.814377    0.324683
     17          6           0       -5.637306   -2.333378    0.349626
     18          1           0       -3.823785   -0.799288   -1.073240
     19          1           0       -3.329225   -0.827252    0.616656
     20          1           0       -6.186736   -0.371641   -0.373306
     21          1           0       -5.691688   -0.400182    1.315396
     22          1           0       -4.939493   -2.788803    1.059728
     23          1           0       -5.437353   -2.760100   -0.638568
     24          1           0       -6.652923   -2.617232    0.642560
     25          6           0       -3.865871    1.129408   -0.111151
     26          6           0       -2.455307    1.557467   -0.517428
     27          6           0       -2.282649    3.076467   -0.542370
     28          1           0       -4.590730    1.570341   -0.809401
     29          1           0       -4.096170    1.542377    0.880496
     30          1           0       -2.228267    1.143271   -1.508141
     31          1           0       -1.733218    1.114731    0.180561
     32          1           0       -2.482601    3.503189    0.445824
     33          1           0       -2.980463    3.531892   -1.252473
     34          1           0       -1.267033    3.360321   -0.835304
 ---------------------------------------------------------------------

 SCF Done:  E(RHF) =  -669.536528105     A.U. after   15 cycles
 E2 =    -0.2091311240D+01 EUMP2 =    -0.67162783934542D+03

 The electronic state is 1-A.
 Alpha  occ. eigenvalues --  -20.61030 -20.61015 -15.86037 -11.31339 -11.27896
 Alpha  occ. eigenvalues --  -11.27892 -11.27629 -11.26896 -11.26887 -11.20564
 Alpha  occ. eigenvalues --  -11.20166 -11.20072 -11.20007 -11.19889 -11.19824
 Alpha  occ. eigenvalues --   -1.60068  -1.39626  -1.19501  -1.08910  -1.07115
 Alpha  occ. eigenvalues --   -1.04893  -1.02285  -0.95755  -0.94794  -0.86295
 Alpha  occ. eigenvalues --   -0.85815  -0.82591  -0.78335  -0.77646  -0.76871
 Alpha  occ. eigenvalues --   -0.72253  -0.71376  -0.70609  -0.65157  -0.64896
 Alpha  occ. eigenvalues --   -0.63750  -0.62240  -0.59684  -0.58165  -0.56382
 Alpha  occ. eigenvalues --   -0.55399  -0.54098  -0.53226  -0.52985  -0.51527
 Alpha  occ. eigenvalues --   -0.51210  -0.49114  -0.49008  -0.48712  -0.46637
 Alpha  occ. eigenvalues --   -0.45378  -0.45020  -0.44447  -0.44213  -0.42533
 Alpha  occ. eigenvalues --   -0.37478  -0.36493
 Alpha virt. eigenvalues --    0.04865   0.11163   0.16365   0.21301   0.24132
 Alpha virt. eigenvalues --    0.25474   0.27221   0.27969   0.28186   0.28885
 Alpha virt. eigenvalues --    0.29190   0.30874   0.32386   0.32593   0.32970

 Mulliken charges:
               1
     1  C   -0.170481
     2  C   -0.218597
     3  C   -0.170703
     4  C    0.158496
     5  C   -0.170691
     6  C   -0.218560
     7  H    0.226163
     8  H    0.223985
     9  H    0.275975
    10  H    0.275857
    11  H    0.223989
    12  N    0.488905
    13  O   -0.460187
    14  O   -0.458074
    15  C   -0.298314
    16  C   -0.298864
    17  C   -0.474801
    18  H    0.149830
    19  H    0.158515
    20  H    0.148348
    21  H    0.149421
    22  H    0.155866
    23  H    0.154327
    24  H    0.156047
    25  C   -0.297464
    26  C   -0.311320
    27  C   -0.473705
    28  H    0.142906
    29  H    0.145697
    30  H    0.150160
    31  H    0.181409
    32  H    0.151562
    33  H    0.148941
    34  H    0.155363
 Sum of Mulliken charges =  -0.00000

 Dipole moment (field-independent basis, Debye):
    X=              5.5974    Y=              0.3190    Z=             -0.1528  Tot=              5.6086
 Quadrupole moment (field-independent basis, Debye-Ang):
   XX=            -67.2260   YY=            -96.0103   ZZ=            -90.7962
   XY=             -0.2406   XZ=             -0.1450   YZ=              3.1725

 Normal termination of Gaussian 16 at Thu May  6 09:31:32 2021.
