 Gaussian 16, Revision A.03,
 Gaussian 16:  EM64L-G16RevA.03 25-Dec-2016

 -------------
 #p 6-31g* mp2
 -------------

 ------------------------------------------------------
 Input file generated by CHIRIPA (05-May-2021 14:53:13)
 ------------------------------------------------------
 Symbolic Z-matrix:
 Charge =  0 Multiplicity = 1

                         Standard orientation:
 ---------------------------------------------------------------------
 Center     Atomic      Atomic             Coordinates (Angstroms)
 Number     Number       Type             X           Y           Z
 ---------------------------------------------------------------------
      1          6           0        3.696498   -0.072157    0.507387
      2          6           0        3.967462   -1.569487    0.357161
      3          6           0        4.770857   -2.144834    1.523919
      4          1           0        4.653559    0.460375    0.593348
      5          1           0        3.155783    0.102986    1.447784
      6          1           0        4.506289   -1.741905   -0.583346
      7          1           0        3.009650   -2.098495    0.271355
      8          1           0        4.235239   -2.001977    2.468010
      9          1           0        5.740382   -1.643361    1.608452
     10          1           0        4.953164   -3.216413    1.396077
     11          6           0        2.894312    0.517567   -0.651256
     12          6           0        2.623349    2.014896   -0.501030
     13          6           0        1.819953    2.590244   -1.667788
     14          1           0        3.435028    0.342424   -1.591653
     15          1           0        1.937251   -0.014965   -0.737217
     16          1           0        3.581161    2.543905   -0.415224
     17          1           0        2.084521    2.187315    0.439477
     18          1           0        0.850428    2.088771   -1.752321
     19          1           0        2.355571    2.447387   -2.611879
     20          1           0        1.637647    3.661823   -1.539946
     21          6           0       -2.661986    1.703290    1.739678
     22          6           0       -3.483815    0.582508    1.897682
     23          6           0       -3.443744   -0.463609    0.971085
     24          6           0       -2.566081   -0.355477   -0.106554
     25          6           0       -1.734793    0.748185   -0.291436
     26          6           0       -1.791633    1.782413    0.647549
     27          1           0       -2.699628    2.511321    2.464293
     28          1           0       -4.160716    0.518350    2.744875
     29          1           0       -4.068965   -1.342754    1.069177
     30          1           0       -1.070267    0.783585   -1.146169
     31          1           0       -1.152236    2.651625    0.522302
     32          7           0       -2.514783   -1.456660   -1.094057
     33          8           0       -1.732915   -1.337286   -2.034838
     34          8           0       -3.257416   -2.418290   -0.908584
 ---------------------------------------------------------------------

 SCF Done:  E(RHF) =  -669.535517246     A.U. after   15 cycles
 E2 =    -0.2091854218D+01 EUMP2 =    -0.67162737146432D+03

 The electronic state is 1-A.
 Alpha  occ. eigenvalues --  -20.60798 -20.60793 -15.85848 -11.31213 -11.27781
 Alpha  occ. eigenvalues --  -11.27771 -11.27521 -11.26801 -11.26781 -11.22097
 Alpha  occ. eigenvalues --  -11.21764 -11.21593 -11.21567 -11.21484 -11.21048
 Alpha  occ. eigenvalues --   -1.59872  -1.39425  -1.19386  -1.08780  -1.08648
 Alpha  occ. eigenvalues --   -1.04791  -1.03795  -0.96250  -0.95616  -0.87270
 Alpha  occ. eigenvalues --   -0.86186  -0.82447  -0.79859  -0.78410  -0.77496
 Alpha  occ. eigenvalues --   -0.72066  -0.71195  -0.70507  -0.65307  -0.65030
 Alpha  occ. eigenvalues --   -0.64790  -0.62225  -0.61124  -0.59635  -0.57835
 Alpha  occ. eigenvalues --   -0.55582  -0.55251  -0.53116  -0.52963  -0.52914
 Alpha  occ. eigenvalues --   -0.52633  -0.50207  -0.48825  -0.48821  -0.48163
 Alpha  occ. eigenvalues --   -0.46886  -0.45958  -0.45859  -0.44829  -0.44019
 Alpha  occ. eigenvalues --   -0.37366  -0.36387
 Alpha virt. eigenvalues --    0.05017   0.11222   0.16486   0.19196   0.23008
 Alpha virt. eigenvalues --    0.23817   0.25396   0.26481   0.27224   0.28122
 Alpha virt. eigenvalues --    0.29370   0.29976   0.31343   0.31453   0.32022

 Mulliken charges:
               1
     1  C   -0.298438
     2  C   -0.300582
     3  C   -0.475889
     4  H    0.149186
     5  H    0.148013
     6  H    0.153430
     7  H    0.156159
     8  H    0.154220
     9  H    0.154348
    10  H    0.161909
    11  C   -0.300224
    12  C   -0.300904
    13  C   -0.479705
    14  H    0.152993
    15  H    0.153587
    16  H    0.154733
    17  H    0.146546
    18  H    0.148357
    19  H    0.163236
    20  H    0.158833
    21  C   -0.170864
    22  C   -0.218658
    23  C   -0.170473
    24  C    0.160669
    25  C   -0.181074
    26  C   -0.222206
    27  H    0.225792
    28  H    0.223610
    29  H    0.275684
    30  H    0.284277
    31  H    0.226319
    32  N    0.487731
    33  O   -0.460399
    34  O   -0.460216
 Sum of Mulliken charges =  -0.00000

 Dipole moment (field-independent basis, Debye):
    X=             -0.0823    Y=              3.8110    Z=              3.4399  Tot=              5.1345
 Quadrupole moment (field-independent basis, Debye-Ang):
   XX=            -90.9650   YY=            -97.1254   ZZ=            -94.9522
   XY=             -7.5339   XZ=            -12.3556   YZ=             -2.7541

 Normal termination of Gaussian 16 at Thu May  6 13:43:44 2021.
