 Gaussian 16, Revision A.03,
 Gaussian 16:  EM64L-G16RevA.03 25-Dec-2016

 -------------
 #p 6-31g* mp2
 -------------

 ------------------------------------------------------
 Input file generated by CHIRIPA (05-May-2021 14:57:26)
 ------------------------------------------------------
 Symbolic Z-matrix:
 Charge =  0 Multiplicity = 1

                         Standard orientation:
 ---------------------------------------------------------------------
 Center     Atomic      Atomic             Coordinates (Angstroms)
 Number     Number       Type             X           Y           Z
 ---------------------------------------------------------------------
      1          6           0        6.654120    0.545668   -0.226223
      2          6           0        5.642487    1.491892   -0.031851
      3          6           0        4.307207    1.091830    0.075510
      4          6           0        4.018021   -0.268757   -0.016498
      5          6           0        5.003537   -1.235523   -0.209920
      6          6           0        6.331984   -0.812625   -0.314481
      7          1           0        7.688743    0.865316   -0.308536
      8          1           0        5.889724    2.547434    0.037068
      9          1           0        3.504271    1.803170    0.226194
     10          1           0        4.726121   -2.280639   -0.274652
     11          1           0        7.115560   -1.549696   -0.465411
     12          7           0        2.608037   -0.704373    0.095679
     13          8           0        2.379400   -1.909046    0.011267
     14          8           0        1.758227    0.167113    0.265890
     15          6           0       -2.207489    1.635743    0.384743
     16          6           0       -2.175256    0.279560    0.725693
     17          6           0       -3.301270   -0.527131    0.536238
     18          6           0       -4.447905    0.057866    0.001172
     19          6           0       -4.511173    1.405855   -0.348415
     20          6           0       -3.373288    2.193579   -0.150279
     21          1           0       -1.328164    2.255033    0.535288
     22          1           0       -1.271257   -0.156365    1.141385
     23          1           0       -3.303806   -1.579876    0.791464
     24          1           0       -5.426826    1.811939   -0.760839
     25          1           0       -3.401202    3.246514   -0.415981
     26          7           0       -5.646249   -0.786102   -0.203990
     27          8           0       -6.644193   -0.246684   -0.677036
     28          8           0       -5.564875   -1.971040    0.112135
 ---------------------------------------------------------------------

 SCF Done:  E(RHF) =  -868.340319047     A.U. after   16 cycles
 E2 =    -0.2598353364D+01 EUMP2 =    -0.87093867241118D+03

 The electronic state is 1-A.
 Alpha  occ. eigenvalues --  -20.61815 -20.61780 -20.59910 -20.59897 -15.86821
 Alpha  occ. eigenvalues --  -15.84948 -11.31922 -11.30114 -11.28484 -11.28432
 Alpha  occ. eigenvalues --  -11.28140 -11.27419 -11.27388 -11.26699 -11.26549
 Alpha  occ. eigenvalues --  -11.26271 -11.25702 -11.25368  -1.60853  -1.58985
 Alpha  occ. eigenvalues --   -1.40416  -1.38544  -1.20066  -1.18240  -1.09508
 Alpha  occ. eigenvalues --   -1.07660  -1.05430  -1.03594  -0.96390  -0.94539
 Alpha  occ. eigenvalues --   -0.86840  -0.84987  -0.83235  -0.81371  -0.78312
 Alpha  occ. eigenvalues --   -0.76454  -0.73061  -0.72147  -0.71173  -0.71169
 Alpha  occ. eigenvalues --   -0.70305  -0.69330  -0.65724  -0.65429  -0.63875
 Alpha  occ. eigenvalues --   -0.63546  -0.62783  -0.60929  -0.55934  -0.54075
 Alpha  occ. eigenvalues --   -0.53770  -0.53519  -0.51960  -0.51660  -0.49815
 Alpha  occ. eigenvalues --   -0.49773  -0.47940  -0.47905  -0.45875  -0.43995
 Alpha  occ. eigenvalues --   -0.38024  -0.37020  -0.36203  -0.35196
 Alpha virt. eigenvalues --    0.04210   0.06041   0.10639   0.12461   0.15761
 Alpha virt. eigenvalues --    0.17608   0.20790   0.22660   0.26723   0.27621
 Alpha virt. eigenvalues --    0.28675   0.29373   0.30439   0.31871   0.32321

 Mulliken charges:
               1
     1  C   -0.169755
     2  C   -0.218325
     3  C   -0.170272
     4  C    0.158120
     5  C   -0.170101
     6  C   -0.218425
     7  H    0.228071
     8  H    0.224815
     9  H    0.272431
    10  H    0.277262
    11  H    0.226045
    12  N    0.490450
    13  O   -0.455881
    14  O   -0.471622
    15  C   -0.171678
    16  C   -0.219629
    17  C   -0.173510
    18  C    0.157988
    19  C   -0.173521
    20  C   -0.219336
    21  H    0.226748
    22  H    0.243702
    23  H    0.274811
    24  H    0.271339
    25  H    0.218049
    26  N    0.488131
    27  O   -0.464152
    28  O   -0.461753
 Sum of Mulliken charges =  -0.00000

 Dipole moment (field-independent basis, Debye):
    X=              9.8577    Y=              4.3675    Z=              0.3681  Tot=             10.7882
 Quadrupole moment (field-independent basis, Debye-Ang):
   XX=           -102.2178   YY=            -98.0262   ZZ=           -105.7426
   XY=            -11.7593   XZ=             -4.3838   YZ=             -0.8468

 Normal termination of Gaussian 16 at Thu May  6 14:47:42 2021.
