 Gaussian 16, Revision A.03,
 Gaussian 16:  EM64L-G16RevA.03 25-Dec-2016

 -------------
 #p 6-31g* mp2
 -------------

 ------------------------------------------------------
 Input file generated by CHIRIPA (05-May-2021 14:51:09)
 ------------------------------------------------------
 Symbolic Z-matrix:
 Charge =  0 Multiplicity = 1

                         Standard orientation:
 ---------------------------------------------------------------------
 Center     Atomic      Atomic             Coordinates (Angstroms)
 Number     Number       Type             X           Y           Z
 ---------------------------------------------------------------------
      1          6           0        4.777360   -0.188908   -0.232146
      2          6           0        5.068207   -1.507692    0.484932
      3          6           0        6.194270   -2.303789   -0.175375
      4          1           0        4.515902   -0.397766   -1.278551
      5          1           0        5.692940    0.418242   -0.253938
      6          1           0        4.151990   -2.111591    0.506582
      7          1           0        5.328815   -1.295685    1.529802
      8          1           0        7.122705   -1.723666   -0.183519
      9          1           0        5.939193   -2.544209   -1.212552
     10          1           0        6.385575   -3.242785    0.353348
     11          6           0        3.654032    0.618273    0.416176
     12          6           0        3.363185    1.937057   -0.300902
     13          6           0        2.237122    2.733153    0.359405
     14          1           0        2.738452    0.011122    0.437968
     15          1           0        3.915490    0.827131    1.462581
     16          1           0        3.102577    1.725049   -1.345772
     17          1           0        4.279402    2.540956   -0.322552
     18          1           0        2.492199    2.973573    1.396582
     19          1           0        1.308687    2.153030    0.367549
     20          1           0        2.045817    3.672150   -0.169318
     21          6           0       -4.923194    0.072234   -0.068386
     22          6           0       -5.994076   -0.978477    0.226917
     23          6           0       -7.404231   -0.389144    0.270961
     24          1           0       -4.969591    0.858999    0.696985
     25          1           0       -5.149393    0.556425   -1.028484
     26          1           0       -5.765160   -1.461507    1.185508
     27          1           0       -5.944997   -1.762930   -0.539138
     28          1           0       -7.657355    0.076256   -0.687127
     29          1           0       -7.476495    0.379393    1.047317
     30          1           0       -8.154037   -1.157584    0.483450
     31          6           0       -3.508199   -0.501598   -0.115644
     32          6           0       -2.437317    0.549113   -0.410947
     33          6           0       -1.027160   -0.040221   -0.454991
     34          1           0       -3.281999   -0.985790    0.844454
     35          1           0       -3.461802   -1.288364   -0.881015
     36          1           0       -2.486395    1.333566    0.355108
     37          1           0       -2.666232    1.032142   -1.369538
     38          1           0       -0.954897   -0.808757   -1.231347
     39          1           0       -0.774038   -0.505621    0.503098
     40          1           0       -0.277356    0.728220   -0.667480
 ---------------------------------------------------------------------

 SCF Done:  E(RHF) =  -470.733318884     A.U. after   11 cycles
 E2 =    -0.1582407150D+01 EUMP2 =    -0.47231572603416D+03

 The electronic state is 1-A.
 Alpha  occ. eigenvalues --  -11.21644 -11.21615 -11.21569 -11.21566 -11.21429
 Alpha  occ. eigenvalues --  -11.21368 -11.21358 -11.21297 -11.21136 -11.21081
 Alpha  occ. eigenvalues --  -11.21044 -11.21021  -1.08457  -1.08389  -1.03568
 Alpha  occ. eigenvalues --   -1.03491  -0.96028  -0.95934  -0.87051  -0.86947
 Alpha  occ. eigenvalues --   -0.79640  -0.79543  -0.78267  -0.78199  -0.65088
 Alpha  occ. eigenvalues --   -0.65023  -0.60987  -0.60913  -0.59414  -0.59282
 Alpha  occ. eigenvalues --   -0.57684  -0.57507  -0.55319  -0.55222  -0.52757
 Alpha  occ. eigenvalues --   -0.52640  -0.52480  -0.52289  -0.49967  -0.49861
 Alpha  occ. eigenvalues --   -0.47975  -0.47833  -0.46668  -0.46570  -0.45812
 Alpha  occ. eigenvalues --   -0.45749  -0.45730  -0.45658  -0.43790  -0.43741
 Alpha virt. eigenvalues --    0.21261   0.22985   0.23600   0.24945   0.26244
 Alpha virt. eigenvalues --    0.26668   0.27271   0.27308   0.27907   0.28915
 Alpha virt. eigenvalues --    0.30568   0.31293   0.31694   0.31825   0.31962

 Mulliken charges:
               1
     1  C   -0.298220
     2  C   -0.299691
     3  C   -0.475679
     4  H    0.149699
     5  H    0.149303
     6  H    0.152191
     7  H    0.151773
     8  H    0.155078
     9  H    0.155160
    10  H    0.160130
    11  C   -0.299775
    12  C   -0.299280
    13  C   -0.482272
    14  H    0.151715
    15  H    0.149330
    16  H    0.151669
    17  H    0.151860
    18  H    0.155184
    19  H    0.161180
    20  H    0.159886
    21  C   -0.298322
    22  C   -0.299680
    23  C   -0.475727
    24  H    0.149830
    25  H    0.149585
    26  H    0.151980
    27  H    0.151932
    28  H    0.155206
    29  H    0.155250
    30  H    0.160298
    31  C   -0.298488
    32  C   -0.299626
    33  C   -0.482611
    34  H    0.149650
    35  H    0.149669
    36  H    0.152650
    37  H    0.152175
    38  H    0.155359
    39  H    0.155434
    40  H    0.166195
 Sum of Mulliken charges =  -0.00000

 Dipole moment (field-independent basis, Debye):
    X=             -0.0337    Y=             -0.0087    Z=             -0.0004  Tot=              0.0348
 Quadrupole moment (field-independent basis, Debye-Ang):
   XX=            -86.1598   YY=            -85.1583   ZZ=            -83.5376
   XY=              1.1452   XZ=              0.8796   YZ=              0.2029

 Normal termination of Gaussian 16 at Wed May  5 16:37:10 2021.
