 Gaussian 16, Revision A.03,
 Gaussian 16:  EM64L-G16RevA.03 25-Dec-2016

 -------------
 #p 6-31g* mp2
 -------------

 ------------------------------------------------------
 Input file generated by CHIRIPA (05-May-2021 14:57:20)
 ------------------------------------------------------
 Symbolic Z-matrix:
 Charge =  0 Multiplicity = 1

                         Standard orientation:
 ---------------------------------------------------------------------
 Center     Atomic      Atomic             Coordinates (Angstroms)
 Number     Number       Type             X           Y           Z
 ---------------------------------------------------------------------
      1          6           0        1.294696   -0.740961    0.441716
      2          6           0        1.875756   -0.898656   -0.820830
      3          6           0        3.230445   -0.615856   -1.019296
      4          6           0        3.977890   -0.175329    0.071828
      5          6           0        3.427860   -0.008317    1.341814
      6          6           0        2.071234   -0.297078    1.517113
      7          1           0        0.241588   -0.962962    0.586891
      8          1           0        1.275113   -1.243222   -1.657817
      9          1           0        3.705778   -0.729205   -1.986058
     10          1           0        4.052182    0.336845    2.156985
     11          1           0        1.622647   -0.173695    2.498740
     12          7           0        5.413065    0.127214   -0.126016
     13          8           0        6.049976    0.513899    0.851458
     14          8           0        5.873868   -0.028068   -1.254814
     15          6           0       -5.197370   -1.814211    0.190157
     16          6           0       -3.862580   -1.957883   -0.202543
     17          6           0       -3.046599   -0.834911   -0.368852
     18          6           0       -3.600594    0.422354   -0.132916
     19          6           0       -4.926720    0.598113    0.259246
     20          6           0       -5.724252   -0.538919    0.419393
     21          1           0       -5.824077   -2.692024    0.316957
     22          1           0       -3.450710   -2.947057   -0.381268
     23          1           0       -2.009932   -0.917358   -0.672068
     24          1           0       -5.308980    1.597172    0.430056
     25          1           0       -6.760519   -0.424325    0.724452
     26          7           0       -2.746517    1.618637   -0.305719
     27          8           0       -3.258490    2.715312   -0.091651
     28          8           0       -1.581294    1.436956   -0.651957
 ---------------------------------------------------------------------

 SCF Done:  E(RHF) =  -868.337247087     A.U. after   16 cycles
 E2 =    -0.2600083838D+01 EUMP2 =    -0.87093733092519D+03

 The electronic state is 1-A.
 Alpha  occ. eigenvalues --  -20.61659 -20.61627 -20.60355 -20.60349 -15.86691
 Alpha  occ. eigenvalues --  -15.85408 -11.32119 -11.30704 -11.28780 -11.28597
 Alpha  occ. eigenvalues --  -11.28341 -11.27715 -11.27618 -11.27291 -11.27281
 Alpha  occ. eigenvalues --  -11.27067 -11.26315 -11.26279  -1.60714  -1.59431
 Alpha  occ. eigenvalues --   -1.40270  -1.38987  -1.20268  -1.18880  -1.09636
 Alpha  occ. eigenvalues --   -1.08293  -1.05683  -1.04286  -0.96475  -0.95141
 Alpha  occ. eigenvalues --   -0.87073  -0.85697  -0.83305  -0.81984  -0.78374
 Alpha  occ. eigenvalues --   -0.77031  -0.72906  -0.72042  -0.71632  -0.71376
 Alpha  occ. eigenvalues --   -0.70751  -0.70029  -0.65913  -0.65671  -0.64551
 Alpha  occ. eigenvalues --   -0.64319  -0.63043  -0.61651  -0.56143  -0.54856
 Alpha  occ. eigenvalues --   -0.53988  -0.53738  -0.52586  -0.52403  -0.49674
 Alpha  occ. eigenvalues --   -0.49652  -0.48387  -0.48384  -0.45657  -0.44409
 Alpha  occ. eigenvalues --   -0.38214  -0.37285  -0.36816  -0.35872
 Alpha virt. eigenvalues --    0.04136   0.05529   0.10291   0.11781   0.15675
 Alpha virt. eigenvalues --    0.17035   0.19086   0.21888   0.25446   0.26963
 Alpha virt. eigenvalues --    0.27815   0.29007   0.30693   0.31026   0.32072

 Mulliken charges:
               1
     1  C   -0.158939
     2  C   -0.215100
     3  C   -0.170586
     4  C    0.158207
     5  C   -0.170399
     6  C   -0.218537
     7  H    0.218890
     8  H    0.218171
     9  H    0.274406
    10  H    0.274523
    11  H    0.222364
    12  N    0.488205
    13  O   -0.461413
    14  O   -0.461529
    15  C   -0.170512
    16  C   -0.218163
    17  C   -0.177151
    18  C    0.159598
    19  C   -0.170219
    20  C   -0.217457
    21  H    0.228750
    22  H    0.224314
    23  H    0.268838
    24  H    0.278344
    25  H    0.226934
    26  N    0.488035
    27  O   -0.455236
    28  O   -0.464340
 Sum of Mulliken charges =  -0.00000

 Dipole moment (field-independent basis, Debye):
    X=             -8.4260    Y=             -5.1601    Z=              1.3398  Tot=              9.9709
 Quadrupole moment (field-independent basis, Debye-Ang):
   XX=           -120.0570   YY=           -107.0334   ZZ=           -100.8046
   XY=              8.3568   XZ=             -0.2597   YZ=              2.8854

 Normal termination of Gaussian 16 at Wed May  5 19:15:16 2021.
