 Gaussian 16, Revision A.03,
 Gaussian 16:  EM64L-G16RevA.03 25-Dec-2016

 -------------
 #p 6-31g* mp2
 -------------

 ------------------------------------------------------
 Input file generated by CHIRIPA (05-May-2021 14:55:20)
 ------------------------------------------------------
 Symbolic Z-matrix:
 Charge =  0 Multiplicity = 1

                         Standard orientation:
 ---------------------------------------------------------------------
 Center     Atomic      Atomic             Coordinates (Angstroms)
 Number     Number       Type             X           Y           Z
 ---------------------------------------------------------------------
      1          6           0        2.016563    2.885869   -0.339493
      2          6           0        1.448580    2.307975    0.800663
      3          6           0        1.660363    0.957244    1.092589
      4          6           0        2.449022    0.210486    0.218712
      5          6           0        3.028562    0.757427   -0.925088
      6          6           0        2.803354    2.110118   -1.197217
      7          1           0        1.846830    3.935911   -0.558579
      8          1           0        0.837107    2.908016    1.468568
      9          1           0        1.232689    0.484419    1.968346
     10          1           0        3.633471    0.133799   -1.572075
     11          1           0        3.245719    2.556252   -2.083401
     12          7           0        2.680333   -1.220510    0.517283
     13          8           0        3.379058   -1.856895   -0.268488
     14          8           0        2.158530   -1.678644    1.531419
     15          6           0       -2.675497   -1.177202    0.001776
     16          6           0       -1.622233   -1.598275   -1.023562
     17          6           0       -0.809214   -2.811760   -0.571622
     18          1           0       -2.179865   -0.953413    0.956350
     19          1           0       -3.351342   -2.022640    0.191159
     20          1           0       -0.949409   -0.751859   -1.211987
     21          1           0       -2.120410   -1.820904   -1.975859
     22          1           0       -1.463942   -3.672694   -0.402138
     23          1           0       -0.286289   -2.597575    0.366075
     24          1           0       -0.062214   -3.095643   -1.319461
     25          6           0       -3.496404    0.034594   -0.435708
     26          6           0       -4.549668    0.455666    0.589630
     27          6           0       -5.362686    1.669151    0.137691
     28          1           0       -2.820559    0.880030   -0.625090
     29          1           0       -3.992036   -0.189196   -1.390282
     30          1           0       -4.051490    0.678294    1.541928
     31          1           0       -5.222491   -0.390750    0.778056
     32          1           0       -5.885611    1.454965   -0.800005
     33          1           0       -4.707958    2.530084   -0.031793
     34          1           0       -6.109685    1.953033    0.885530
 ---------------------------------------------------------------------

 SCF Done:  E(RHF) =  -669.536333369     A.U. after   15 cycles
 E2 =    -0.2092110773D+01 EUMP2 =    -0.67162844414228D+03

 The electronic state is 1-A.
 Alpha  occ. eigenvalues --  -20.60942 -20.60925 -15.85956 -11.31307 -11.27873
 Alpha  occ. eigenvalues --  -11.27857 -11.27597 -11.26875 -11.26862 -11.21661
 Alpha  occ. eigenvalues --  -11.21356 -11.21225 -11.21206 -11.21153 -11.20213
 Alpha  occ. eigenvalues --   -1.59985  -1.39544  -1.19469  -1.08867  -1.08287
 Alpha  occ. eigenvalues --   -1.04867  -1.03311  -0.95742  -0.95700  -0.86742
 Alpha  occ. eigenvalues --   -0.86266  -0.82541  -0.79392  -0.78080  -0.77593
 Alpha  occ. eigenvalues --   -0.72183  -0.71303  -0.70574  -0.65125  -0.64930
 Alpha  occ. eigenvalues --   -0.64867  -0.62214  -0.60712  -0.59144  -0.57343
 Alpha  occ. eigenvalues --   -0.55367  -0.55022  -0.53199  -0.52958  -0.52400
 Alpha  occ. eigenvalues --   -0.52149  -0.49687  -0.48946  -0.48933  -0.47698
 Alpha  occ. eigenvalues --   -0.46472  -0.45638  -0.45570  -0.44809  -0.43567
 Alpha  occ. eigenvalues --   -0.37438  -0.36466
 Alpha virt. eigenvalues --    0.04904   0.11166   0.16369   0.21220   0.22867
 Alpha virt. eigenvalues --    0.24385   0.26507   0.27212   0.27561   0.28210
 Alpha virt. eigenvalues --    0.28501   0.30796   0.31627   0.31857   0.32161

 Mulliken charges:
               1
     1  C   -0.170645
     2  C   -0.218691
     3  C   -0.171550
     4  C    0.159377
     5  C   -0.170911
     6  C   -0.218434
     7  H    0.226123
     8  H    0.223872
     9  H    0.275583
    10  H    0.275994
    11  H    0.223984
    12  N    0.489028
    13  O   -0.458219
    14  O   -0.459635
    15  C   -0.297061
    16  C   -0.300506
    17  C   -0.487004
    18  H    0.147724
    19  H    0.150681
    20  H    0.147070
    21  H    0.149744
    22  H    0.153207
    23  H    0.172273
    24  H    0.163220
    25  C   -0.297667
    26  C   -0.299093
    27  C   -0.475135
    28  H    0.145774
    29  H    0.149886
    30  H    0.149481
    31  H    0.153520
    32  H    0.155922
    33  H    0.151994
    34  H    0.160093
 Sum of Mulliken charges =  -0.00000

 Dipole moment (field-independent basis, Debye):
    X=             -0.6469    Y=              4.9782    Z=             -1.0193  Tot=              5.1225
 Quadrupole moment (field-independent basis, Debye-Ang):
   XX=            -97.8323   YY=            -93.3701   ZZ=            -91.9956
   XY=             13.0799   XZ=             -5.4003   YZ=              1.5605

 Normal termination of Gaussian 16 at Thu May  6 09:16:55 2021.
