 Gaussian 16, Revision A.03,
 Gaussian 16:  EM64L-G16RevA.03 25-Dec-2016

 -------------
 #p 6-31g* mp2
 -------------

 ------------------------------------------------------
 Input file generated by CHIRIPA (05-May-2021 14:57:22)
 ------------------------------------------------------
 Symbolic Z-matrix:
 Charge =  0 Multiplicity = 1

                         Standard orientation:
 ---------------------------------------------------------------------
 Center     Atomic      Atomic             Coordinates (Angstroms)
 Number     Number       Type             X           Y           Z
 ---------------------------------------------------------------------
      1          6           0       -3.919155    2.490554    0.619829
      2          6           0       -2.745554    1.854122    1.037123
      3          6           0       -2.526744    0.504815    0.743793
      4          6           0       -3.507048   -0.180841    0.028132
      5          6           0       -4.686628    0.425272   -0.401410
      6          6           0       -4.884245    1.775359   -0.096843
      7          1           0       -4.080900    3.539030    0.852060
      8          1           0       -1.994317    2.407063    1.593850
      9          1           0       -1.627263   -0.012578    1.054688
     10          1           0       -5.417215   -0.152153   -0.954801
     11          1           0       -5.796632    2.267032   -0.422194
     12          7           0       -3.286621   -1.609704   -0.288352
     13          8           0       -4.165706   -2.191627   -0.920186
     14          8           0       -2.238941   -2.120669    0.101414
     15          6           0        2.640228   -2.359237    0.408725
     16          6           0        3.940373   -2.019928    0.797330
     17          6           0        4.451194   -0.745967    0.531568
     18          6           0        3.630690    0.168146   -0.127569
     19          6           0        2.331241   -0.139873   -0.527377
     20          6           0        1.841220   -1.419782   -0.251225
     21          1           0        2.251488   -3.351191    0.619212
     22          1           0        4.563152   -2.747496    1.310005
     23          1           0        5.454121   -0.456776    0.821267
     24          1           0        1.734235    0.606735   -1.036866
     25          1           0        0.831132   -1.680515   -0.554189
     26          7           0        4.160463    1.519980   -0.414420
     27          8           0        3.417494    2.307304   -0.996446
     28          8           0        5.308638    1.766627   -0.051794
 ---------------------------------------------------------------------

 SCF Done:  E(RHF) =  -868.340181608     A.U. after   16 cycles
 E2 =    -0.2598572274D+01 EUMP2 =    -0.87093875388161D+03

 The electronic state is 1-A.
 Alpha  occ. eigenvalues --  -20.61595 -20.61519 -20.60694 -20.60683 -15.86588
 Alpha  occ. eigenvalues --  -15.85737 -11.31697 -11.30961 -11.28245 -11.28208
 Alpha  occ. eigenvalues --  -11.27883 -11.27506 -11.27478 -11.27167 -11.27155
 Alpha  occ. eigenvalues --  -11.27106 -11.26478 -11.26304  -1.60618  -1.59770
 Alpha  occ. eigenvalues --   -1.40183  -1.39328  -1.19835  -1.19093  -1.09269
 Alpha  occ. eigenvalues --   -1.08491  -1.05196  -1.04464  -0.96151  -0.95363
 Alpha  occ. eigenvalues --   -0.86604  -0.85845  -0.82995  -0.82196  -0.78083
 Alpha  occ. eigenvalues --   -0.77277  -0.72819  -0.71956  -0.71922  -0.71094
 Alpha  occ. eigenvalues --   -0.70929  -0.70161  -0.65488  -0.65185  -0.64725
 Alpha  occ. eigenvalues --   -0.64400  -0.62552  -0.61793  -0.55684  -0.54903
 Alpha  occ. eigenvalues --   -0.53540  -0.53279  -0.52815  -0.52508  -0.49582
 Alpha  occ. eigenvalues --   -0.49536  -0.48724  -0.48695  -0.45637  -0.44766
 Alpha  occ. eigenvalues --   -0.37786  -0.37040  -0.36792  -0.36083
 Alpha virt. eigenvalues --    0.04400   0.05220   0.10859   0.11569   0.15943
 Alpha virt. eigenvalues --    0.16734   0.20802   0.21992   0.26388   0.27381
 Alpha virt. eigenvalues --    0.28621   0.28708   0.30403   0.31353   0.32414

 Mulliken charges:
               1
     1  C   -0.169696
     2  C   -0.217918
     3  C   -0.174144
     4  C    0.158200
     5  C   -0.170677
     6  C   -0.218207
     7  H    0.228951
     8  H    0.227904
     9  H    0.272520
    10  H    0.276298
    11  H    0.225593
    12  N    0.490081
    13  O   -0.455353
    14  O   -0.471432
    15  C   -0.171898
    16  C   -0.218776
    17  C   -0.172386
    18  C    0.158430
    19  C   -0.176476
    20  C   -0.228443
    21  H    0.231217
    22  H    0.222904
    23  H    0.274148
    24  H    0.272232
    25  H    0.243213
    26  N    0.488051
    27  O   -0.463351
    28  O   -0.460984
 Sum of Mulliken charges =  -0.00000

 Dipole moment (field-independent basis, Debye):
    X=             -2.9666    Y=              0.2547    Z=              2.1369  Tot=              3.6650
 Quadrupole moment (field-independent basis, Debye-Ang):
   XX=           -105.1888   YY=           -108.6080   ZZ=           -104.3317
   XY=            -37.2386   XZ=              4.6345   YZ=              0.3931

 Normal termination of Gaussian 16 at Thu May  6 19:30:24 2021.
