 Gaussian 16, Revision A.03,
 Gaussian 16:  EM64L-G16RevA.03 25-Dec-2016

 -------------
 #p 6-31g* mp2
 -------------

 ------------------------------------------------------
 Input file generated by CHIRIPA (05-May-2021 14:57:26)
 ------------------------------------------------------
 Symbolic Z-matrix:
 Charge =  0 Multiplicity = 1

                         Standard orientation:
 ---------------------------------------------------------------------
 Center     Atomic      Atomic             Coordinates (Angstroms)
 Number     Number       Type             X           Y           Z
 ---------------------------------------------------------------------
      1          6           0        3.725950   -2.258007    0.352226
      2          6           0        4.745995   -1.474722   -0.197769
      3          6           0        4.562318   -0.102082   -0.389266
      4          6           0        3.340488    0.456906   -0.017845
      5          6           0        2.305051   -0.296918    0.532526
      6          6           0        2.510876   -1.667646    0.714978
      7          1           0        3.877237   -3.323564    0.497472
      8          1           0        5.690676   -1.930503   -0.480412
      9          1           0        5.335113    0.527766   -0.812937
     10          1           0        1.374282    0.185887    0.804531
     11          1           0        1.716925   -2.273497    1.142333
     12          7           0        3.134314    1.909047   -0.215787
     13          8           0        2.048647    2.377488    0.119664
     14          8           0        4.062285    2.551296   -0.702637
     15          6           0       -4.798235    1.855578    0.187320
     16          6           0       -3.484981    1.858614    0.668857
     17          6           0       -2.686995    0.715639    0.562204
     18          6           0       -3.236824   -0.418001   -0.034316
     19          6           0       -4.541683   -0.452238   -0.523663
     20          6           0       -5.321471    0.702195   -0.406356
     21          1           0       -5.411062    2.747918    0.274309
     22          1           0       -3.075991    2.752912    1.130379
     23          1           0       -1.667169    0.690449    0.926540
     24          1           0       -4.921594   -1.358828   -0.978833
     25          1           0       -6.341032    0.696951   -0.781210
     26          7           0       -2.401663   -1.634082   -0.152865
     27          8           0       -2.909526   -2.620065   -0.682535
     28          8           0       -1.255016   -1.578238    0.286133
 ---------------------------------------------------------------------

 SCF Done:  E(RHF) =  -868.340836860     A.U. after   16 cycles
 E2 =    -0.2598827668D+01 EUMP2 =    -0.87093966452727D+03

 The electronic state is 1-A.
 Alpha  occ. eigenvalues --  -20.61356 -20.61310 -20.60425 -20.60398 -15.86367
 Alpha  occ. eigenvalues --  -15.85452 -11.31376 -11.30492 -11.27907 -11.27896
 Alpha  occ. eigenvalues --  -11.27569 -11.27053 -11.26930 -11.26857 -11.26788
 Alpha  occ. eigenvalues --  -11.26666 -11.26039 -11.25766  -1.60388  -1.59488
 Alpha  occ. eigenvalues --   -1.39959  -1.39054  -1.19511  -1.18616  -1.08970
 Alpha  occ. eigenvalues --   -1.08077  -1.04856  -1.03939  -0.95869  -0.94971
 Alpha  occ. eigenvalues --   -0.86277  -0.85369  -0.82727  -0.81794  -0.77812
 Alpha  occ. eigenvalues --   -0.76876  -0.72619  -0.71693  -0.71676  -0.70798
 Alpha  occ. eigenvalues --   -0.70624  -0.69737  -0.65171  -0.64855  -0.64256
 Alpha  occ. eigenvalues --   -0.63918  -0.62214  -0.61272  -0.55376  -0.54485
 Alpha  occ. eigenvalues --   -0.53206  -0.52946  -0.52321  -0.52011  -0.49369
 Alpha  occ. eigenvalues --   -0.49304  -0.48455  -0.48400  -0.45437  -0.44530
 Alpha  occ. eigenvalues --   -0.37471  -0.36602  -0.36437  -0.35517
 Alpha virt. eigenvalues --    0.04702   0.05605   0.11214   0.12115   0.16279
 Alpha virt. eigenvalues --    0.17186   0.20276   0.22377   0.25138   0.27639
 Alpha virt. eigenvalues --    0.28669   0.29524   0.31002   0.31487   0.32098

 Mulliken charges:
               1
     1  C   -0.171796
     2  C   -0.218857
     3  C   -0.172619
     4  C    0.157335
     5  C   -0.170706
     6  C   -0.218326
     7  H    0.225100
     8  H    0.220568
     9  H    0.272232
    10  H    0.275392
    11  H    0.240361
    12  N    0.488633
    13  O   -0.467979
    14  O   -0.461689
    15  C   -0.169712
    16  C   -0.219122
    17  C   -0.169225
    18  C    0.157063
    19  C   -0.170382
    20  C   -0.218742
    21  H    0.227520
    22  H    0.229708
    23  H    0.276370
    24  H    0.275044
    25  H    0.224074
    26  N    0.493132
    27  O   -0.457101
    28  O   -0.476274
 Sum of Mulliken charges =  -0.00000

 Dipole moment (field-independent basis, Debye):
    X=             -2.5905    Y=             -0.9179    Z=              1.1470  Tot=              2.9780
 Quadrupole moment (field-independent basis, Debye-Ang):
   XX=            -74.3110   YY=           -112.7532   ZZ=           -104.6175
   XY=            -28.0140   XZ=              1.1602   YZ=              1.1686

 Normal termination of Gaussian 16 at Thu May  6 08:22:53 2021.
