 Gaussian 16, Revision A.03,
 Gaussian 16:  EM64L-G16RevA.03 25-Dec-2016

 -------------
 #p 6-31g* mp2
 -------------

 ------------------------------------------------------
 Input file generated by CHIRIPA (05-May-2021 14:55:21)
 ------------------------------------------------------
 Symbolic Z-matrix:
 Charge =  0 Multiplicity = 1

                         Standard orientation:
 ---------------------------------------------------------------------
 Center     Atomic      Atomic             Coordinates (Angstroms)
 Number     Number       Type             X           Y           Z
 ---------------------------------------------------------------------
      1          6           0        1.456768   -0.991022   -0.771089
      2          6           0        1.734857    0.366556   -0.580901
      3          6           0        3.010458    0.781634   -0.187077
      4          6           0        3.988619   -0.192137    0.008528
      5          6           0        3.742488   -1.552214   -0.172856
      6          6           0        2.459703   -1.944393   -0.566820
      7          1           0        0.463060   -1.304570   -1.077076
      8          1           0        0.957914    1.109167   -0.738807
      9          1           0        3.253041    1.826017   -0.032688
     10          1           0        4.537534   -2.269190   -0.007735
     11          1           0        2.246597   -2.999398   -0.713773
     12          7           0        5.342844    0.235167    0.425526
     13          8           0        6.187253   -0.642395    0.591342
     14          8           0        5.534233    1.439558    0.578657
     15          6           0       -4.090437    0.472118    0.258809
     16          6           0       -3.480493    1.641131   -0.515375
     17          6           0       -2.021055    1.900954   -0.140770
     18          1           0       -4.017572    0.676077    1.335859
     19          1           0       -3.496057   -0.432804    0.071135
     20          1           0       -4.076660    2.543276   -0.327393
     21          1           0       -3.554991    1.434453   -1.590712
     22          1           0       -1.407756    1.017326   -0.344895
     23          1           0       -1.932388    2.132449    0.925602
     24          1           0       -1.604884    2.740714   -0.705981
     25          6           0       -5.549055    0.200040   -0.104701
     26          6           0       -6.158999   -0.968974    0.669482
     27          6           0       -7.618437   -1.228795    0.294878
     28          1           0       -6.143436    1.104963    0.082974
     29          1           0       -5.621920   -0.003918   -1.181750
     30          1           0       -6.084501   -0.762295    1.744820
     31          1           0       -5.562832   -1.871118    0.481501
     32          1           0       -7.707104   -1.460291   -0.771494
     33          1           0       -8.231736   -0.345168    0.499003
     34          1           0       -8.034608   -2.068557    0.860089
 ---------------------------------------------------------------------

 SCF Done:  E(RHF) =  -669.535384605     A.U. after   15 cycles
 E2 =    -0.2091083559D+01 EUMP2 =    -0.67162646816486D+03

 The electronic state is 1-A.
 Alpha  occ. eigenvalues --  -20.60713 -20.60708 -15.85765 -11.31122 -11.27689
 Alpha  occ. eigenvalues --  -11.27666 -11.27433 -11.26715 -11.26633 -11.22519
 Alpha  occ. eigenvalues --  -11.22273 -11.22188 -11.22158 -11.22014 -11.21536
 Alpha  occ. eigenvalues --   -1.59789  -1.39343  -1.19289  -1.09178  -1.08690
 Alpha  occ. eigenvalues --   -1.04688  -1.04301  -0.96775  -0.95528  -0.87805
 Alpha  occ. eigenvalues --   -0.86087  -0.82356  -0.80377  -0.78958  -0.77402
 Alpha  occ. eigenvalues --   -0.71985  -0.71111  -0.70412  -0.65820  -0.64942
 Alpha  occ. eigenvalues --   -0.64711  -0.62098  -0.61645  -0.60150  -0.58353
 Alpha  occ. eigenvalues --   -0.56072  -0.55203  -0.53510  -0.53234  -0.53010
 Alpha  occ. eigenvalues --   -0.52710  -0.50697  -0.48761  -0.48740  -0.48655
 Alpha  occ. eigenvalues --   -0.47389  -0.46506  -0.46413  -0.44750  -0.44544
 Alpha  occ. eigenvalues --   -0.37275  -0.36285
 Alpha virt. eigenvalues --    0.05122   0.11326   0.16617   0.19991   0.22359
 Alpha virt. eigenvalues --    0.23748   0.25483   0.25929   0.26574   0.27731
 Alpha virt. eigenvalues --    0.28721   0.29819   0.30969   0.31468   0.31795

 Mulliken charges:
               1
     1  C   -0.173112
     2  C   -0.223094
     3  C   -0.172226
     4  C    0.158846
     5  C   -0.171452
     6  C   -0.218371
     7  H    0.224573
     8  H    0.232786
     9  H    0.275673
    10  H    0.275309
    11  H    0.222999
    12  N    0.488012
    13  O   -0.460654
    14  O   -0.460482
    15  C   -0.298132
    16  C   -0.300259
    17  C   -0.480291
    18  H    0.152274
    19  H    0.145572
    20  H    0.156484
    21  H    0.152672
    22  H    0.145567
    23  H    0.161817
    24  H    0.161136
    25  C   -0.298906
    26  C   -0.299955
    27  C   -0.476086
    28  H    0.151581
    29  H    0.149939
    30  H    0.153244
    31  H    0.151003
    32  H    0.155469
    33  H    0.156360
    34  H    0.161701
 Sum of Mulliken charges =  -0.00000

 Dipole moment (field-independent basis, Debye):
    X=             -5.0190    Y=             -1.4417    Z=             -1.4245  Tot=              5.4128
 Quadrupole moment (field-independent basis, Debye-Ang):
   XX=           -133.1855   YY=            -89.1776   ZZ=            -95.1467
   XY=             -7.4569   XZ=             -6.4272   YZ=              0.7324

 Normal termination of Gaussian 16 at Wed May  5 15:58:25 2021.
