 Gaussian 16, Revision A.03,
 Gaussian 16:  EM64L-G16RevA.03 25-Dec-2016

 -------------
 #p 6-31g* mp2
 -------------

 ------------------------------------------------------
 Input file generated by CHIRIPA (05-May-2021 14:57:25)
 ------------------------------------------------------
 Symbolic Z-matrix:
 Charge =  0 Multiplicity = 1

                         Standard orientation:
 ---------------------------------------------------------------------
 Center     Atomic      Atomic             Coordinates (Angstroms)
 Number     Number       Type             X           Y           Z
 ---------------------------------------------------------------------
      1          6           0        5.588383   -0.256283    0.150680
      2          6           0        5.051421    0.741647   -0.669276
      3          6           0        3.669196    0.841533   -0.853737
      4          6           0        2.849549   -0.077267   -0.200074
      5          6           0        3.354282   -1.082631    0.623198
      6          6           0        4.739596   -1.163638    0.793167
      7          1           0        6.663329   -0.326544    0.288345
      8          1           0        5.708193    1.447677   -1.169492
      9          1           0        3.226801    1.604301   -1.482935
     10          1           0        2.674220   -1.772033    1.108646
     11          1           0        5.153810   -1.939670    1.430542
     12          7           0        1.384614    0.018484   -0.387684
     13          8           0        0.683913   -0.803141    0.199331
     14          8           0        0.964838    0.913346   -1.118196
     15          6           0       -3.858373   -2.180236   -0.611374
     16          6           0       -4.215204   -1.035542   -1.331698
     17          6           0       -3.795654    0.229144   -0.908504
     18          6           0       -3.016800    0.312821    0.244613
     19          6           0       -2.644894   -0.809036    0.983810
     20          6           0       -3.075737   -2.063535    0.542048
     21          1           0       -4.188675   -3.158718   -0.947334
     22          1           0       -4.822925   -1.123158   -2.227825
     23          1           0       -4.057442    1.131767   -1.447165
     24          1           0       -2.038204   -0.689929    1.873282
     25          1           0       -2.797101   -2.950796    1.103452
     26          7           0       -2.566664    1.646295    0.702459
     27          8           0       -1.881239    1.693196    1.721590
     28          8           0       -2.907795    2.619323    0.033517
 ---------------------------------------------------------------------

 SCF Done:  E(RHF) =  -868.338484687     A.U. after   16 cycles
 E2 =    -0.2600241512D+01 EUMP2 =    -0.87093872619890D+03

 The electronic state is 1-A.
 Alpha  occ. eigenvalues --  -20.60804 -20.60751 -20.59281 -20.59276 -15.85813
 Alpha  occ. eigenvalues --  -15.84341 -11.31127 -11.29585 -11.27721 -11.27665
 Alpha  occ. eigenvalues --  -11.27438 -11.26720 -11.26684 -11.26287 -11.26196
 Alpha  occ. eigenvalues --  -11.26097 -11.25317 -11.25247  -1.59830  -1.58336
 Alpha  occ. eigenvalues --   -1.39391  -1.37903  -1.19296  -1.17811  -1.08703
 Alpha  occ. eigenvalues --   -1.07251  -1.04697  -1.03241  -0.95550  -0.94099
 Alpha  occ. eigenvalues --   -0.86098  -0.84662  -0.82389  -0.80961  -0.77438
 Alpha  occ. eigenvalues --   -0.75983  -0.72059  -0.71127  -0.70598  -0.70415
 Alpha  occ. eigenvalues --   -0.69602  -0.69021  -0.64958  -0.64708  -0.63518
 Alpha  occ. eigenvalues --   -0.63316  -0.62049  -0.60621  -0.55210  -0.53846
 Alpha  occ. eigenvalues --   -0.53021  -0.52796  -0.51562  -0.51394  -0.48796
 Alpha  occ. eigenvalues --   -0.48773  -0.47338  -0.47327  -0.44800  -0.43343
 Alpha  occ. eigenvalues --   -0.37272  -0.36296  -0.35807  -0.34767
 Alpha virt. eigenvalues --    0.05105   0.06613   0.11361   0.12871   0.16605
 Alpha virt. eigenvalues --    0.18058   0.21473   0.22693   0.27378   0.28329
 Alpha virt. eigenvalues --    0.28601   0.29599   0.31023   0.32162   0.32589

 Mulliken charges:
               1
     1  C   -0.170579
     2  C   -0.218528
     3  C   -0.169634
     4  C    0.159726
     5  C   -0.170217
     6  C   -0.218454
     7  H    0.225481
     8  H    0.224000
     9  H    0.277603
    10  H    0.272483
    11  H    0.222541
    12  N    0.492043
    13  O   -0.468205
    14  O   -0.456116
    15  C   -0.170830
    16  C   -0.220208
    17  C   -0.168959
    18  C    0.162887
    19  C   -0.146024
    20  C   -0.219368
    21  H    0.218875
    22  H    0.217004
    23  H    0.271599
    24  H    0.273411
    25  H    0.216742
    26  N    0.492293
    27  O   -0.464409
    28  O   -0.465158
 Sum of Mulliken charges =  -0.00000

 Dipole moment (field-independent basis, Debye):
    X=              3.9383    Y=             -4.8963    Z=             -0.9394  Tot=              6.3534
 Quadrupole moment (field-independent basis, Debye-Ang):
   XX=            -67.1543   YY=           -105.1276   ZZ=           -102.1433
   XY=             11.7764   XZ=              6.7884   YZ=             -6.5459

 Normal termination of Gaussian 16 at Thu May  6 06:45:04 2021.
