 Gaussian 16, Revision A.03,
 Gaussian 16:  EM64L-G16RevA.03 25-Dec-2016

 -------------
 #p 6-31g* mp2
 -------------

 ------------------------------------------------------
 Input file generated by CHIRIPA (05-May-2021 14:51:09)
 ------------------------------------------------------
 Symbolic Z-matrix:
 Charge =  0 Multiplicity = 1

                         Standard orientation:
 ---------------------------------------------------------------------
 Center     Atomic      Atomic             Coordinates (Angstroms)
 Number     Number       Type             X           Y           Z
 ---------------------------------------------------------------------
      1          6           0       -3.328475   -0.714372   -0.066487
      2          6           0       -2.164400   -1.434447    0.614986
      3          6           0       -2.124119   -2.928738    0.293634
      4          1           0       -4.272749   -1.182987    0.242854
      5          1           0       -3.251339   -0.854635   -1.153580
      6          1           0       -2.242936   -1.291707    1.700377
      7          1           0       -1.222799   -0.963941    0.304135
      8          1           0       -2.021827   -3.088274   -0.784645
      9          1           0       -3.047760   -3.417901    0.619530
     10          1           0       -1.284279   -3.423850    0.791021
     11          6           0       -3.382150    0.780196    0.245143
     12          6           0       -4.546226    1.500271   -0.436330
     13          6           0       -4.586506    2.994562   -0.114978
     14          1           0       -3.459286    0.920459    1.332237
     15          1           0       -2.437877    1.248811   -0.064198
     16          1           0       -5.487826    1.029765   -0.125479
     17          1           0       -4.467689    1.357531   -1.521720
     18          1           0       -3.662865    3.483725   -0.440873
     19          1           0       -4.688799    3.154098    0.963301
     20          1           0       -5.426346    3.489674   -0.612364
     21          6           0        4.004645    0.343073    0.053623
     22          6           0        3.852368    1.863077   -0.012567
     23          6           0        5.159940    2.601293    0.275682
     24          1           0        4.374924    0.061029    1.048757
     25          1           0        4.771855    0.026708   -0.666583
     26          1           0        3.084689    2.176338    0.706567
     27          1           0        3.482226    2.141519   -1.007595
     28          1           0        5.930329    2.317419   -0.448555
     29          1           0        5.530534    2.352437    1.275348
     30          1           0        5.028279    3.686540    0.223103
     31          6           0        2.705980   -0.408896   -0.232280
     32          6           0        2.858258   -1.928902   -0.166090
     33          6           0        1.550686   -2.667117   -0.454338
     34          1           0        1.938769   -0.092533    0.487926
     35          1           0        2.335702   -0.126853   -1.227413
     36          1           0        3.228398   -2.207343    0.828939
     37          1           0        3.625936   -2.242162   -0.885224
     38          1           0        1.180092   -2.418261   -1.454004
     39          1           0        0.780296   -2.383244    0.269898
     40          1           0        1.682346   -3.752364   -0.401760
 ---------------------------------------------------------------------

 SCF Done:  E(RHF) =  -470.732379864     A.U. after   11 cycles
 E2 =    -0.1583409681D+01 EUMP2 =    -0.47231578954490D+03

 The electronic state is 1-A.
 Alpha  occ. eigenvalues --  -11.21611 -11.21587 -11.21578 -11.21555 -11.21418
 Alpha  occ. eigenvalues --  -11.21382 -11.21358 -11.21323 -11.21078 -11.21060
 Alpha  occ. eigenvalues --  -11.20986 -11.20969  -1.08444  -1.08397  -1.03575
 Alpha  occ. eigenvalues --   -1.03455  -0.96059  -0.95869  -0.87073  -0.86884
 Alpha  occ. eigenvalues --   -0.79595  -0.79567  -0.78281  -0.78194  -0.65110
 Alpha  occ. eigenvalues --   -0.65003  -0.61073  -0.60818  -0.59360  -0.59333
 Alpha  occ. eigenvalues --   -0.57759  -0.57426  -0.55343  -0.55132  -0.52809
 Alpha  occ. eigenvalues --   -0.52578  -0.52452  -0.52202  -0.49882  -0.49870
 Alpha  occ. eigenvalues --   -0.47922  -0.47855  -0.46716  -0.46504  -0.45888
 Alpha  occ. eigenvalues --   -0.45744  -0.45725  -0.45528  -0.43833  -0.43695
 Alpha virt. eigenvalues --    0.21671   0.23082   0.23494   0.24879   0.25983
 Alpha virt. eigenvalues --    0.26686   0.26979   0.27246   0.28177   0.29294
 Alpha virt. eigenvalues --    0.30451   0.31191   0.31592   0.31953   0.32121

 Mulliken charges:
               1
     1  C   -0.297681
     2  C   -0.305067
     3  C   -0.477084
     4  H    0.149630
     5  H    0.149589
     6  H    0.151120
     7  H    0.155532
     8  H    0.156310
     9  H    0.154834
    10  H    0.162110
    11  C   -0.298474
    12  C   -0.299622
    13  C   -0.475709
    14  H    0.149279
    15  H    0.149873
    16  H    0.151914
    17  H    0.151914
    18  H    0.155208
    19  H    0.155098
    20  H    0.160199
    21  C   -0.298171
    22  C   -0.299703
    23  C   -0.475709
    24  H    0.149764
    25  H    0.149678
    26  H    0.152014
    27  H    0.151753
    28  H    0.155192
    29  H    0.155243
    30  H    0.160278
    31  C   -0.299379
    32  C   -0.299875
    33  C   -0.481133
    34  H    0.150029
    35  H    0.149143
    36  H    0.151634
    37  H    0.151571
    38  H    0.154124
    39  H    0.164869
    40  H    0.159706
 Sum of Mulliken charges =  -0.00000

 Dipole moment (field-independent basis, Debye):
    X=              0.0020    Y=             -0.0140    Z=             -0.0001  Tot=              0.0142
 Quadrupole moment (field-independent basis, Debye-Ang):
   XX=            -85.3041   YY=            -86.4008   ZZ=            -83.1786
   XY=             -0.2732   XZ=             -0.8046   YZ=             -0.4204

 Normal termination of Gaussian 16 at Thu May  6 00:34:06 2021.
