 Gaussian 16, Revision A.03,
 Gaussian 16:  EM64L-G16RevA.03 25-Dec-2016

 -------------
 #p 6-31g* mp2
 -------------

 ------------------------------------------------------
 Input file generated by CHIRIPA (05-May-2021 14:55:22)
 ------------------------------------------------------
 Symbolic Z-matrix:
 Charge =  0 Multiplicity = 1

                         Standard orientation:
 ---------------------------------------------------------------------
 Center     Atomic      Atomic             Coordinates (Angstroms)
 Number     Number       Type             X           Y           Z
 ---------------------------------------------------------------------
      1          6           0        0.538217   -0.521217    0.427438
      2          6           0        1.304341    0.157294    1.380957
      3          6           0        2.688222    0.278936    1.224035
      4          6           0        3.275829   -0.292630    0.096506
      5          6           0        2.539647   -0.974730   -0.870998
      6          6           0        1.157223   -1.084071   -0.693520
      7          1           0       -0.536249   -0.610933    0.557323
      8          1           0        0.826306    0.595411    2.252496
      9          1           0        3.305265    0.798848    1.946784
     10          1           0        3.044560   -1.400961   -1.729374
     11          1           0        0.564750   -1.611574   -1.435653
     12          7           0        4.740110   -0.170365   -0.080501
     13          8           0        5.233829   -0.682784   -1.082651
     14          8           0        5.366369    0.435572    0.786262
     15          6           0       -4.399869   -0.108705   -0.402377
     16          6           0       -5.347614   -0.581586    0.700414
     17          6           0       -6.373547   -1.599733    0.201783
     18          1           0       -4.988369    0.331457   -1.218999
     19          1           0       -3.878727   -0.978312   -0.826159
     20          1           0       -5.865794    0.288807    1.122931
     21          1           0       -4.756778   -1.020501    1.514590
     22          1           0       -5.872458   -2.485608   -0.201624
     23          1           0       -6.987776   -1.168861   -0.595508
     24          1           0       -7.040822   -1.924267    1.006321
     25          6           0       -3.368445    0.909424    0.080639
     26          6           0       -2.420700    1.382305   -1.022152
     27          6           0       -1.394767    2.400452   -0.523521
     28          1           0       -3.889587    1.779030    0.504420
     29          1           0       -2.779945    0.469262    0.897260
     30          1           0       -3.011535    1.821219   -1.836328
     31          1           0       -1.902520    0.511911   -1.444670
     32          1           0       -0.780538    1.969580    0.273769
     33          1           0       -1.895856    3.286327   -0.120114
     34          1           0       -0.727492    2.724986   -1.328060
 ---------------------------------------------------------------------

 SCF Done:  E(RHF) =  -669.533965567     A.U. after   15 cycles
 E2 =    -0.2093876201D+01 EUMP2 =    -0.67162784176751D+03

 The electronic state is 1-A.
 Alpha  occ. eigenvalues --  -20.60770 -20.60765 -15.85826 -11.31199 -11.27795
 Alpha  occ. eigenvalues --  -11.27789 -11.27506 -11.26790 -11.26779 -11.22574
 Alpha  occ. eigenvalues --  -11.22488 -11.22412 -11.22312 -11.21742 -11.21741
 Alpha  occ. eigenvalues --   -1.59846  -1.39399  -1.19392  -1.09405  -1.08782
 Alpha  occ. eigenvalues --   -1.04797  -1.04376  -0.96811  -0.95614  -0.87820
 Alpha  occ. eigenvalues --   -0.86199  -0.82449  -0.80439  -0.79212  -0.77486
 Alpha  occ. eigenvalues --   -0.72045  -0.71170  -0.70598  -0.66047  -0.65048
 Alpha  occ. eigenvalues --   -0.64792  -0.62146  -0.61791  -0.60169  -0.58418
 Alpha  occ. eigenvalues --   -0.56178  -0.55266  -0.53456  -0.53305  -0.52996
 Alpha  occ. eigenvalues --   -0.52887  -0.50740  -0.48804  -0.48799  -0.48733
 Alpha  occ. eigenvalues --   -0.47512  -0.46729  -0.46693  -0.44804  -0.44652
 Alpha  occ. eigenvalues --   -0.37285  -0.36389
 Alpha virt. eigenvalues --    0.05035   0.11079   0.16453   0.18856   0.22763
 Alpha virt. eigenvalues --    0.24174   0.25064   0.25435   0.26953   0.27956
 Alpha virt. eigenvalues --    0.29450   0.30605   0.30953   0.31318   0.31955

 Mulliken charges:
               1
     1  C   -0.170512
     2  C   -0.221297
     3  C   -0.170666
     4  C    0.157922
     5  C   -0.170319
     6  C   -0.221744
     7  H    0.234636
     8  H    0.223676
     9  H    0.275950
    10  H    0.275798
    11  H    0.223597
    12  N    0.488095
    13  O   -0.460459
    14  O   -0.460356
    15  C   -0.298153
    16  C   -0.299911
    17  C   -0.476131
    18  H    0.153999
    19  H    0.145620
    20  H    0.154349
    21  H    0.150050
    22  H    0.155089
    23  H    0.157050
    24  H    0.162672
    25  C   -0.301498
    26  C   -0.303375
    27  C   -0.476774
    28  H    0.155681
    29  H    0.138982
    30  H    0.157967
    31  H    0.144632
    32  H    0.153526
    33  H    0.156436
    34  H    0.165472
 Sum of Mulliken charges =  -0.00000

 Dipole moment (field-independent basis, Debye):
    X=             -5.2850    Y=             -0.3644    Z=              0.5764  Tot=              5.3288
 Quadrupole moment (field-independent basis, Debye-Ang):
   XX=           -128.5467   YY=            -93.6030   ZZ=            -91.1522
   XY=             -0.9371   XZ=              1.9519   YZ=              1.9091

 Normal termination of Gaussian 16 at Thu May  6 06:16:04 2021.
