 Gaussian 16, Revision A.03,
 Gaussian 16:  EM64L-G16RevA.03 25-Dec-2016

 -------------
 #p 6-31g* mp2
 -------------

 ------------------------------------------------------
 Input file generated by CHIRIPA (05-May-2021 14:53:16)
 ------------------------------------------------------
 Symbolic Z-matrix:
 Charge =  0 Multiplicity = 1

                         Standard orientation:
 ---------------------------------------------------------------------
 Center     Atomic      Atomic             Coordinates (Angstroms)
 Number     Number       Type             X           Y           Z
 ---------------------------------------------------------------------
      1          6           0       -3.528934    0.617334    0.063371
      2          6           0       -3.752618    1.777278   -0.907444
      3          6           0       -2.762714    2.923429   -0.697161
      4          1           0       -3.609937    0.989255    1.093933
      5          1           0       -2.502602    0.242822   -0.054009
      6          1           0       -4.778665    2.148590   -0.789242
      7          1           0       -3.671264    1.402514   -1.935817
      8          1           0       -1.734254    2.574413   -0.835216
      9          1           0       -2.847947    3.324727    0.317874
     10          1           0       -2.940659    3.741924   -1.401620
     11          6           0       -4.510828   -0.536137   -0.134413
     12          6           0       -4.287144   -1.696080    0.836403
     13          6           0       -5.277048   -2.842232    0.626119
     14          1           0       -5.537160   -0.161625   -0.017033
     15          1           0       -4.429825   -0.908057   -1.164975
     16          1           0       -4.368498   -1.321317    1.864775
     17          1           0       -3.261097   -2.067392    0.718200
     18          1           0       -5.191815   -3.243529   -0.388916
     19          1           0       -6.305508   -2.493215    0.764174
     20          1           0       -5.099103   -3.660726    1.330578
     21          6           0        1.998187    2.110492    0.714704
     22          6           0        3.303700    1.845443    1.141205
     23          6           0        3.946453    0.661739    0.766689
     24          6           0        3.250970   -0.238819   -0.038661
     25          6           0        1.949695   -0.003352   -0.479718
     26          6           0        1.326535    1.186878   -0.092972
     27          1           0        1.506491    3.032557    1.010387
     28          1           0        3.827746    2.560916    1.768516
     29          1           0        4.956645    0.431301    1.082646
     30          1           0        1.452932   -0.735734   -1.104426
     31          1           0        0.312604    1.390073   -0.425690
     32          7           0        3.921053   -1.495408   -0.441618
     33          8           0        3.286691   -2.272622   -1.151662
     34          8           0        5.067936   -1.679314   -0.039781
 ---------------------------------------------------------------------

 SCF Done:  E(RHF) =  -669.535497646     A.U. after   15 cycles
 E2 =    -0.2091087588D+01 EUMP2 =    -0.67162658523400D+03

 The electronic state is 1-A.
 Alpha  occ. eigenvalues --  -20.60745 -20.60740 -15.85798 -11.31156 -11.27728
 Alpha  occ. eigenvalues --  -11.27725 -11.27458 -11.26738 -11.26717 -11.22415
 Alpha  occ. eigenvalues --  -11.22171 -11.22141 -11.21985 -11.21886 -11.21335
 Alpha  occ. eigenvalues --   -1.59820  -1.39374  -1.19328  -1.09071  -1.08722
 Alpha  occ. eigenvalues --   -1.04734  -1.04163  -0.96633  -0.95558  -0.87651
 Alpha  occ. eigenvalues --   -0.86132  -0.82394  -0.80240  -0.78850  -0.77444
 Alpha  occ. eigenvalues --   -0.72017  -0.71143  -0.70432  -0.65726  -0.64980
 Alpha  occ. eigenvalues --   -0.64748  -0.62133  -0.61521  -0.60007  -0.58221
 Alpha  occ. eigenvalues --   -0.55951  -0.55222  -0.53310  -0.53119  -0.53058
 Alpha  occ. eigenvalues --   -0.52783  -0.50579  -0.48787  -0.48772  -0.48532
 Alpha  occ. eigenvalues --   -0.47262  -0.46392  -0.46295  -0.44781  -0.44405
 Alpha  occ. eigenvalues --   -0.37305  -0.36335
 Alpha virt. eigenvalues --    0.05093   0.11307   0.16572   0.18974   0.22638
 Alpha virt. eigenvalues --    0.23688   0.25133   0.26470   0.26971   0.28422
 Alpha virt. eigenvalues --    0.28842   0.30045   0.31102   0.31555   0.31872

 Mulliken charges:
               1
     1  C   -0.298729
     2  C   -0.300305
     3  C   -0.479817
     4  H    0.151008
     5  H    0.143640
     6  H    0.156089
     7  H    0.154270
     8  H    0.145803
     9  H    0.156790
    10  H    0.165472
    11  C   -0.298922
    12  C   -0.300293
    13  C   -0.476189
    14  H    0.151264
    15  H    0.151183
    16  H    0.152269
    17  H    0.152992
    18  H    0.156469
    19  H    0.155405
    20  H    0.162408
    21  C   -0.173512
    22  C   -0.218568
    23  C   -0.171216
    24  C    0.159054
    25  C   -0.173211
    26  C   -0.227204
    27  H    0.226345
    28  H    0.223345
    29  H    0.275489
    30  H    0.275610
    31  H    0.236230
    32  N    0.487998
    33  O   -0.460619
    34  O   -0.460549
 Sum of Mulliken charges =  -0.00000

 Dipole moment (field-independent basis, Debye):
    X=             -2.5732    Y=              4.4183    Z=              1.4379  Tot=              5.3113
 Quadrupole moment (field-independent basis, Debye-Ang):
   XX=           -106.1015   YY=            -97.5357   ZZ=            -93.7281
   XY=             15.4764   XZ=              6.8028   YZ=              0.5908

 Normal termination of Gaussian 16 at Wed May  5 15:42:30 2021.
