 Gaussian 16, Revision A.03,
 Gaussian 16:  EM64L-G16RevA.03 25-Dec-2016

 -------------
 #p 6-31g* mp2
 -------------

 ------------------------------------------------------
 Input file generated by CHIRIPA (05-May-2021 14:55:20)
 ------------------------------------------------------
 Symbolic Z-matrix:
 Charge =  0 Multiplicity = 1

                         Standard orientation:
 ---------------------------------------------------------------------
 Center     Atomic      Atomic             Coordinates (Angstroms)
 Number     Number       Type             X           Y           Z
 ---------------------------------------------------------------------
      1          6           0       -0.324493   -2.304171    0.173512
      2          6           0       -1.360627   -2.455804   -0.753825
      3          6           0       -2.415872   -1.539689   -0.795525
      4          6           0       -2.403085   -0.478914    0.108843
      5          6           0       -1.385181   -0.300753    1.044483
      6          6           0       -0.340049   -1.229025    1.068129
      7          1           0        0.491319   -3.020553    0.198893
      8          1           0       -1.351162   -3.289813   -1.449802
      9          1           0       -3.230739   -1.633180   -1.503105
     10          1           0       -1.422184    0.540783    1.725560
     11          1           0        0.463293   -1.108759    1.789394
     12          7           0       -3.514872    0.497371    0.074254
     13          8           0       -3.480332    1.423342    0.881732
     14          8           0       -4.399780    0.318126   -0.759681
     15          6           0        2.462706    1.332198   -0.566868
     16          6           0        1.747668    2.392901    0.270758
     17          6           0        0.994526    3.412516   -0.584201
     18          1           0        3.163923    1.827059   -1.252692
     19          1           0        1.725667    0.812575   -1.194689
     20          1           0        2.485636    2.909431    0.897827
     21          1           0        1.048212    1.895446    0.954800
     22          1           0        0.237271    2.915338   -1.199003
     23          1           0        1.682862    3.935085   -1.256299
     24          1           0        0.490744    4.161455    0.034794
     25          6           0        3.220107    0.305734    0.273635
     26          6           0        3.935145   -0.754968   -0.563990
     27          6           0        4.688287   -1.774583    0.290968
     28          1           0        3.957146    0.825358    0.901455
     29          1           0        2.518890   -0.189126    0.959459
     30          1           0        4.634601   -0.257512   -1.248033
     31          1           0        3.197177   -1.271497   -1.191060
     32          1           0        3.999951   -2.297151    0.963067
     33          1           0        5.445542   -1.277406    0.905769
     34          1           0        5.192068   -2.523523   -0.328027
 ---------------------------------------------------------------------

 SCF Done:  E(RHF) =  -669.535195161     A.U. after   15 cycles
 E2 =    -0.2093557249D+01 EUMP2 =    -0.67162875240939D+03

 The electronic state is 1-A.
 Alpha  occ. eigenvalues --  -20.60829 -20.60824 -15.85884 -11.31288 -11.27859
 Alpha  occ. eigenvalues --  -11.27851 -11.27605 -11.26879 -11.26869 -11.22303
 Alpha  occ. eigenvalues --  -11.22043 -11.21922 -11.21867 -11.21757 -11.21123
 Alpha  occ. eigenvalues --   -1.59904  -1.39456  -1.19466  -1.08970  -1.08836
 Alpha  occ. eigenvalues --   -1.04873  -1.04009  -0.96446  -0.95678  -0.87458
 Alpha  occ. eigenvalues --   -0.86268  -0.82512  -0.80094  -0.78770  -0.77545
 Alpha  occ. eigenvalues --   -0.72101  -0.71229  -0.70563  -0.65700  -0.65116
 Alpha  occ. eigenvalues --   -0.64817  -0.62209  -0.61412  -0.59834  -0.58051
 Alpha  occ. eigenvalues --   -0.55775  -0.55347  -0.53189  -0.53116  -0.53005
 Alpha  occ. eigenvalues --   -0.52819  -0.50388  -0.48868  -0.48854  -0.48398
 Alpha  occ. eigenvalues --   -0.47146  -0.46300  -0.46184  -0.44853  -0.44256
 Alpha  occ. eigenvalues --   -0.37431  -0.36434
 Alpha virt. eigenvalues --    0.04943   0.11059   0.16315   0.19265   0.23127
 Alpha virt. eigenvalues --    0.23222   0.24995   0.26391   0.27313   0.27676
 Alpha virt. eigenvalues --    0.29752   0.30601   0.31004   0.31192   0.31894

 Mulliken charges:
               1
     1  C   -0.172709
     2  C   -0.218574
     3  C   -0.170866
     4  C    0.157716
     5  C   -0.171707
     6  C   -0.216915
     7  H    0.226931
     8  H    0.224058
     9  H    0.276065
    10  H    0.276452
    11  H    0.226019
    12  N    0.488057
    13  O   -0.459827
    14  O   -0.460158
    15  C   -0.298883
    16  C   -0.299792
    17  C   -0.476034
    18  H    0.151517
    19  H    0.152863
    20  H    0.152098
    21  H    0.145119
    22  H    0.158081
    23  H    0.155141
    24  H    0.164834
    25  C   -0.298626
    26  C   -0.300878
    27  C   -0.474853
    28  H    0.151643
    29  H    0.140053
    30  H    0.156004
    31  H    0.149510
    32  H    0.146772
    33  H    0.158754
    34  H    0.162133
 Sum of Mulliken charges =  -0.00000

 Dipole moment (field-independent basis, Debye):
    X=              3.8986    Y=             -3.3571    Z=              0.0276  Tot=              5.1449
 Quadrupole moment (field-independent basis, Debye-Ang):
   XX=           -112.7269   YY=            -90.7211   ZZ=            -92.5289
   XY=              8.7611   XZ=              1.4608   YZ=              2.1308

 Normal termination of Gaussian 16 at Wed May  5 22:11:34 2021.
