 Gaussian 16, Revision A.03,
 Gaussian 16:  EM64L-G16RevA.03 25-Dec-2016

 -------------
 #p 6-31g* mp2
 -------------

 ------------------------------------------------------
 Input file generated by CHIRIPA (05-May-2021 14:53:16)
 ------------------------------------------------------
 Symbolic Z-matrix:
 Charge =  0 Multiplicity = 1

                         Standard orientation:
 ---------------------------------------------------------------------
 Center     Atomic      Atomic             Coordinates (Angstroms)
 Number     Number       Type             X           Y           Z
 ---------------------------------------------------------------------
      1          6           0        3.665883    0.130078   -0.316853
      2          6           0        3.474000   -1.273821    0.257807
      3          6           0        4.593647   -2.234797   -0.143080
      4          1           0        3.721813    0.066525   -1.412196
      5          1           0        4.631781    0.528892    0.022829
      6          1           0        2.508128   -1.669321   -0.081732
      7          1           0        3.418329   -1.206897    1.351899
      8          1           0        5.562364   -1.866134    0.209448
      9          1           0        4.646992   -2.331186   -1.232329
     10          1           0        4.436509   -3.232512    0.278504
     11          6           0        2.554583    1.102236    0.075128
     12          6           0        2.746467    2.506135   -0.499531
     13          6           0        1.626820    3.467111   -0.098645
     14          1           0        1.588685    0.703422   -0.264553
     15          1           0        2.498653    1.165789    1.170472
     16          1           0        2.802138    2.439211   -1.593624
     17          1           0        3.712338    2.901635   -0.159992
     18          1           0        1.573475    3.563500    0.990605
     19          1           0        0.658103    3.098447   -0.451172
     20          1           0        1.783958    4.464826   -0.520228
     21          6           0       -0.467711   -2.050178    0.328318
     22          6           0       -1.589008   -2.437329   -0.412848
     23          6           0       -2.681928   -1.576227   -0.549146
     24          6           0       -2.619564   -0.329707    0.071812
     25          6           0       -1.516658    0.084869    0.816805
     26          6           0       -0.435172   -0.792531    0.939701
     27          1           0        0.376854   -2.725433    0.428992
     28          1           0       -1.617048   -3.413431   -0.888749
     29          1           0       -3.562592   -1.850492   -1.117150
     30          1           0       -1.517889    1.064236    1.279686
     31          1           0        0.434324   -0.489197    1.515905
     32          7           0       -3.770538    0.590532   -0.065387
     33          8           0       -3.690956    1.683365    0.491404
     34          8           0       -4.730457    0.201554   -0.727118
 ---------------------------------------------------------------------

 SCF Done:  E(RHF) =  -669.533803168     A.U. after   15 cycles
 E2 =    -0.2094545327D+01 EUMP2 =    -0.67162834849422D+03

 The electronic state is 1-A.
 Alpha  occ. eigenvalues --  -20.60757 -20.60752 -15.85808 -11.31184 -11.27725
 Alpha  occ. eigenvalues --  -11.27700 -11.27422 -11.26763 -11.26653 -11.22697
 Alpha  occ. eigenvalues --  -11.22197 -11.22117 -11.22055 -11.21975 -11.21446
 Alpha  occ. eigenvalues --   -1.59832  -1.39385  -1.19344  -1.09243  -1.08726
 Alpha  occ. eigenvalues --   -1.04741  -1.04272  -0.96690  -0.95573  -0.87710
 Alpha  occ. eigenvalues --   -0.86144  -0.82411  -0.80383  -0.79128  -0.77410
 Alpha  occ. eigenvalues --   -0.72025  -0.71156  -0.70454  -0.65869  -0.64985
 Alpha  occ. eigenvalues --   -0.64721  -0.62085  -0.61663  -0.60094  -0.58329
 Alpha  occ. eigenvalues --   -0.55969  -0.55233  -0.53413  -0.53264  -0.53045
 Alpha  occ. eigenvalues --   -0.52705  -0.50625  -0.48792  -0.48783  -0.48670
 Alpha  occ. eigenvalues --   -0.47409  -0.46541  -0.46462  -0.44788  -0.44516
 Alpha  occ. eigenvalues --   -0.37286  -0.36262
 Alpha virt. eigenvalues --    0.05024   0.11205   0.16409   0.20370   0.22631
 Alpha virt. eigenvalues --    0.23150   0.24462   0.26154   0.26977   0.27874
 Alpha virt. eigenvalues --    0.29627   0.30746   0.30893   0.31339   0.31540

 Mulliken charges:
               1
     1  C   -0.295684
     2  C   -0.308654
     3  C   -0.475564
     4  H    0.153195
     5  H    0.152583
     6  H    0.148103
     7  H    0.149025
     8  H    0.159456
     9  H    0.158174
    10  H    0.158834
    11  C   -0.310808
    12  C   -0.298893
    13  C   -0.478246
    14  H    0.159297
    15  H    0.142314
    16  H    0.154623
    17  H    0.152966
    18  H    0.153263
    19  H    0.158455
    20  H    0.164646
    21  C   -0.175894
    22  C   -0.218614
    23  C   -0.171586
    24  C    0.159133
    25  C   -0.174922
    26  C   -0.219553
    27  H    0.228142
    28  H    0.223365
    29  H    0.275384
    30  H    0.276566
    31  H    0.233567
    32  N    0.487987
    33  O   -0.460189
    34  O   -0.460471
 Sum of Mulliken charges =  -0.00000

 Dipole moment (field-independent basis, Debye):
    X=              4.1633    Y=             -3.1550    Z=              0.3914  Tot=              5.2383
 Quadrupole moment (field-independent basis, Debye-Ang):
   XX=           -115.3085   YY=            -91.0004   ZZ=            -93.0598
   XY=              9.8587   XZ=              0.8335   YZ=              1.7701

 Normal termination of Gaussian 16 at Thu May  6 13:53:50 2021.
