 Gaussian 16, Revision A.03,
 Gaussian 16:  ES64L-G16RevA.03 25-Dec-2016

 ---------------------------
 # opt pm6 geom=connectivity
 ---------------------------

 -------------------
 Title Card Required
 -------------------
 Symbolic Z-matrix:
 Charge =  0 Multiplicity = 1

 SCF Done:  E(RPM6) = -0.205680544134     A.U. after   18 cycles
 SCF Done:  E(RPM6) = -0.234727469351     A.U. after   17 cycles
 SCF Done:  E(RPM6) = -0.243983796675     A.U. after   15 cycles
 SCF Done:  E(RPM6) = -0.245538497532     A.U. after   16 cycles
 SCF Done:  E(RPM6) = -0.242138881570     A.U. after   17 cycles
 SCF Done:  E(RPM6) = -0.245853584145     A.U. after   14 cycles
 SCF Done:  E(RPM6) = -0.245867698473     A.U. after   14 cycles
 SCF Done:  E(RPM6) = -0.245775331891     A.U. after   15 cycles
 SCF Done:  E(RPM6) = -0.245873469183     A.U. after   15 cycles
 SCF Done:  E(RPM6) = -0.245874062066     A.U. after   11 cycles
 Optimization completed.
    -- Stationary point found.

                         Standard orientation:
 ---------------------------------------------------------------------
 Center     Atomic      Atomic             Coordinates (Angstroms)
 Number     Number       Type             X           Y           Z
 ---------------------------------------------------------------------
      1          6           0       -1.320161   -1.083848    0.003842
      2          6           0        0.052701   -0.827310    0.004759
      3          6           0        0.510915    0.497169    0.001527
      4          6           0       -0.394794    1.569331   -0.002571
      5          6           0       -1.766766    1.314056   -0.003575
      6          6           0       -2.225182   -0.013012   -0.000300
      7          1           0       -1.694826   -2.111840    0.006301
      8          1           0        0.773222   -1.650792    0.007960
      9          1           0       -0.018501    2.597449   -0.004849
     10          1           0       -2.486792    2.138342   -0.006942
     11          6           0        1.966743    0.813888    0.002336
     12          8           0        2.487404    1.907175    0.001200
     13          8           0        2.712955   -0.337549    0.004517
     14          6           0       -3.690434   -0.243855   -0.001307
     15          8           0       -4.591483    0.562704   -0.004731
     16          8           0       -3.988687   -1.590030    0.002361
     17          1           0       -4.970948   -1.756626    0.001542
     18          6           0        4.177955   -0.173153    0.006363
     19          6           0        4.696909   -1.593401   -0.012331
     20          1           0        4.447503    0.387296    0.918116
     21          1           0        4.448949    0.411780   -0.889473
     22          1           0        5.793846   -1.613950   -0.012269
     23          1           0        4.349089   -2.161328    0.861827
     24          1           0        4.349626   -2.137920   -0.901443
 ---------------------------------------------------------------------

 The electronic state is 1-A.
 Alpha  occ. eigenvalues --   -1.19994  -1.18700  -1.13428  -1.13126  -1.12522
 Alpha  occ. eigenvalues --   -1.04044  -1.00466  -0.98329  -0.91286  -0.83827
 Alpha  occ. eigenvalues --   -0.80887  -0.79579  -0.75790  -0.69080  -0.66222
 Alpha  occ. eigenvalues --   -0.64558  -0.63188  -0.61828  -0.60099  -0.58501
 Alpha  occ. eigenvalues --   -0.58073  -0.56342  -0.55314  -0.54355  -0.52223
 Alpha  occ. eigenvalues --   -0.51135  -0.50758  -0.49587  -0.48002  -0.47721
 Alpha  occ. eigenvalues --   -0.46672  -0.45871  -0.42393  -0.42114  -0.41176
 Alpha  occ. eigenvalues --   -0.39205  -0.38470
 Alpha virt. eigenvalues --   -0.05217  -0.01487   0.00949   0.03587   0.03630
 Alpha virt. eigenvalues --    0.05158   0.07172   0.09389   0.10233   0.11376
 Alpha virt. eigenvalues --    0.12816   0.13392   0.13942   0.14666   0.15082

 Mulliken charges:
               1
     1  C   -0.090811
     2  C   -0.104408
     3  C   -0.107234
     4  C   -0.107754
     5  C   -0.097265
     6  C   -0.124091
     7  H    0.176685
     8  H    0.177884
     9  H    0.179499
    10  H    0.177124
    11  C    0.615765
    12  O   -0.509749
    13  O   -0.460596
    14  C    0.629535
    15  O   -0.496540
    16  O   -0.529590
    17  H    0.344724
    18  C    0.051944
    19  C   -0.500719
    20  H    0.132732
    21  H    0.133179
    22  H    0.166570
    23  H    0.171533
    24  H    0.171582
 Sum of Mulliken charges =   0.00000

 Dipole moment (field-independent basis, Debye):
    X=              1.7957    Y=             -3.0511    Z=              0.0023  Tot=              3.5403
 N-N= 4.819346803626D+02 E-N=-7.610826803081D+02  KE=-1.521810699198D+02
 1\1\GINC-TOTEM\FOpt\RPM6\ZDO\C10H10O4\JRAMOS\14-Oct-2019\0\\# opt pm6
 geom=connectivity\\Title Card Required\\0,1\C,0.1030568654,0.432205000
 2,-0.2422207103\C,1.3728662614,0.9737233521,-0.0303108831\C,1.50176150
 71,2.3266772973,0.311910985\C,0.3685043676,3.1440405337,0.4442126883\C
 ,-0.9007377486,2.6039321223,0.2325987814\C,-1.029213711,1.248475422,-0
 .1101781867\H,-0.0154247013,-0.6220218488,-0.5100178697\H,2.2673941444
 ,0.3513508829,-0.1290805782\H,0.4885236783,4.19869716,0.7123960642\H,-
 1.794968111,3.2272129757,0.3314423543\C,2.8376752152,2.9432035446,0.54
 63839116\O,3.0820668496,4.0906642047,0.8463395239\O,3.8352962672,2.016

 Normal termination of Gaussian 16 at Mon Oct 14 17:34:04 2019.
