 Gaussian 16, Revision A.03,
 Gaussian 16:  EM64L-G16RevA.03 25-Dec-2016

 -------------
 #p 6-31g* mp2
 -------------

 ------------------------------------------------------
 Input file generated by CHIRIPA (05-May-2021 14:51:09)
 ------------------------------------------------------
 Symbolic Z-matrix:
 Charge =  0 Multiplicity = 1

                         Standard orientation:
 ---------------------------------------------------------------------
 Center     Atomic      Atomic             Coordinates (Angstroms)
 Number     Number       Type             X           Y           Z
 ---------------------------------------------------------------------
      1          6           0        2.532237   -0.397558   -0.093077
      2          6           0        1.732621   -1.662498   -0.406965
      3          6           0        0.223569   -1.417478   -0.429816
      4          1           0        2.209300    0.001081    0.878388
      5          1           0        2.296085    0.372118   -0.840891
      6          1           0        1.971257   -2.430020    0.340415
      7          1           0        2.057633   -2.058278   -1.377708
      8          1           0       -0.034013   -0.670616   -1.187742
      9          1           0       -0.120879   -1.044470    0.540143
     10          1           0       -0.328729   -2.334883   -0.656077
     11          6           0        4.042416   -0.626449   -0.066679
     12          6           0        4.842032    0.638491    0.247209
     13          6           0        6.351084    0.393471    0.270060
     14          1           0        4.278567   -1.396125    0.681135
     15          1           0        4.365352   -1.025087   -1.038145
     16          1           0        4.517020    1.034271    1.217951
     17          1           0        4.603395    1.406013   -0.500172
     18          1           0        6.695532    0.020464   -0.699900
     19          1           0        6.608665   -0.353390    1.027985
     20          1           0        6.903382    1.310876    0.496320
     21          6           0       -3.807980   -0.003803   -0.135286
     22          6           0       -3.659891   -1.348489    0.577368
     23          6           0       -4.708646   -2.369943    0.136301
     24          1           0       -4.813600    0.395762    0.054499
     25          1           0       -3.733947   -0.161584   -1.220191
     26          1           0       -3.732798   -1.188029    1.660674
     27          1           0       -2.654440   -1.744810    0.386022
     28          1           0       -4.633482   -2.559279   -0.939386
     29          1           0       -5.717967   -1.999335    0.342509
     30          1           0       -4.584306   -3.323899    0.658190
     31          6           0       -2.766673    1.027810    0.295043
     32          6           0       -2.914760    2.372496   -0.417611
     33          6           0       -1.866007    3.393950    0.023456
     34          1           0       -2.840705    1.185592    1.379947
     35          1           0       -1.761052    0.628244    0.105258
     36          1           0       -3.920212    2.768816   -0.226265
     37          1           0       -2.841854    2.212036   -1.500918
     38          1           0       -0.856685    3.023343   -0.182753
     39          1           0       -1.941170    3.583287    1.099143
     40          1           0       -1.990345    4.347906   -0.498433
 ---------------------------------------------------------------------

 SCF Done:  E(RHF) =  -470.732004135     A.U. after   11 cycles
 E2 =    -0.1584061406D+01 EUMP2 =    -0.47231606554170D+03

 The electronic state is 1-A.
 Alpha  occ. eigenvalues --  -11.21688 -11.21636 -11.21497 -11.21473 -11.21424
 Alpha  occ. eigenvalues --  -11.21408 -11.21248 -11.21201 -11.21140 -11.21097
 Alpha  occ. eigenvalues --  -11.21005 -11.20978  -1.08504  -1.08294  -1.03612
 Alpha  occ. eigenvalues --   -1.03417  -0.96083  -0.95863  -0.87107  -0.86888
 Alpha  occ. eigenvalues --   -0.79725  -0.79482  -0.78352  -0.78044  -0.65129
 Alpha  occ. eigenvalues --   -0.64942  -0.61023  -0.60833  -0.59450  -0.59216
 Alpha  occ. eigenvalues --   -0.57762  -0.57426  -0.55360  -0.55173  -0.52813
 Alpha  occ. eigenvalues --   -0.52634  -0.52499  -0.52238  -0.50030  -0.49807
 Alpha  occ. eigenvalues --   -0.48105  -0.47777  -0.46752  -0.46472  -0.46039
 Alpha  occ. eigenvalues --   -0.45772  -0.45621  -0.45183  -0.43815  -0.43651
 Alpha virt. eigenvalues --    0.21715   0.22949   0.24115   0.24348   0.25894
 Alpha virt. eigenvalues --    0.26483   0.27210   0.27455   0.27895   0.29884
 Alpha virt. eigenvalues --    0.30472   0.31086   0.31740   0.31967   0.32353

 Mulliken charges:
               1
     1  C   -0.298883
     2  C   -0.299911
     3  C   -0.481008
     4  H    0.150175
     5  H    0.149119
     6  H    0.152500
     7  H    0.152099
     8  H    0.156049
     9  H    0.160137
    10  H    0.161288
    11  C   -0.298311
    12  C   -0.299719
    13  C   -0.475759
    14  H    0.149741
    15  H    0.149778
    16  H    0.152188
    17  H    0.152022
    18  H    0.155206
    19  H    0.155247
    20  H    0.160454
    21  C   -0.296505
    22  C   -0.308224
    23  C   -0.475290
    24  H    0.148788
    25  H    0.148435
    26  H    0.150497
    27  H    0.162447
    28  H    0.154615
    29  H    0.154780
    30  H    0.159439
    31  C   -0.308631
    32  C   -0.298894
    33  C   -0.475646
    34  H    0.147585
    35  H    0.162321
    36  H    0.151398
    37  H    0.150899
    38  H    0.154876
    39  H    0.154912
    40  H    0.159784
 Sum of Mulliken charges =  -0.00000

 Dipole moment (field-independent basis, Debye):
    X=              0.1088    Y=             -0.0449    Z=             -0.0020  Tot=              0.1177
 Quadrupole moment (field-independent basis, Debye-Ang):
   XX=            -86.5150   YY=            -85.4787   ZZ=            -83.2966
   XY=             -0.7310   XZ=             -0.6761   YZ=             -0.1500

 Normal termination of Gaussian 16 at Thu May  6 00:35:16 2021.
