 Gaussian 16, Revision A.03,
 Gaussian 16:  EM64L-G16RevA.03 25-Dec-2016

 -------------
 #p 6-31g* mp2
 -------------

 ------------------------------------------------------
 Input file generated by CHIRIPA (05-May-2021 14:53:16)
 ------------------------------------------------------
 Symbolic Z-matrix:
 Charge =  0 Multiplicity = 1

                         Standard orientation:
 ---------------------------------------------------------------------
 Center     Atomic      Atomic             Coordinates (Angstroms)
 Number     Number       Type             X           Y           Z
 ---------------------------------------------------------------------
      1          6           0       -4.969872   -0.337574   -0.178009
      2          6           0       -5.994740    0.791562   -0.290633
      3          6           0       -7.247863    0.377666   -1.062750
      4          1           0       -4.687842   -0.670114   -1.186385
      5          1           0       -5.437909   -1.200233    0.316112
      6          1           0       -5.524501    1.652327   -0.783152
      7          1           0       -6.274219    1.121583    0.718126
      8          1           0       -7.742593   -0.465862   -0.570506
      9          1           0       -6.988615    0.067898   -2.080313
     10          1           0       -7.967052    1.199819   -1.131248
     11          6           0       -3.711592    0.060861    0.591217
     12          6           0       -2.686725   -1.068275    0.703840
     13          6           0       -1.433601   -0.654378    1.475957
     14          1           0       -3.243555    0.923520    0.097096
     15          1           0       -3.993622    0.393402    1.599592
     16          1           0       -2.407245   -1.398296   -0.304918
     17          1           0       -3.156963   -1.929040    1.196359
     18          1           0       -1.692849   -0.344610    2.493521
     19          1           0       -0.938872    0.189150    0.983713
     20          1           0       -0.714413   -1.476532    1.544455
     21          6           0        3.466037   -2.401964   -0.406249
     22          6           0        2.237666   -1.749320   -0.259002
     23          6           0        2.184232   -0.358970   -0.122554
     24          6           0        3.383961    0.350753   -0.137739
     25          6           0        4.623380   -0.270616   -0.282763
     26          6           0        4.652881   -1.661834   -0.417639
     27          1           0        3.498250   -3.482359   -0.511633
     28          1           0        1.314352   -2.321554   -0.249801
     29          1           0        1.246999    0.171764   -0.007078
     30          1           0        5.526976    0.326797   -0.288196
     31          1           0        5.608289   -2.166015   -0.531837
     32          7           0        3.340062    1.823114    0.005880
     33          8           0        4.411217    2.425601   -0.010654
     34          8           0        2.235329    2.346785    0.132263
 ---------------------------------------------------------------------

 SCF Done:  E(RHF) =  -669.535409724     A.U. after   15 cycles
 E2 =    -0.2091400164D+01 EUMP2 =    -0.67162680988804D+03

 The electronic state is 1-A.
 Alpha  occ. eigenvalues --  -20.60728 -20.60723 -15.85780 -11.31115 -11.27705
 Alpha  occ. eigenvalues --  -11.27651 -11.27450 -11.26717 -11.26692 -11.22125
 Alpha  occ. eigenvalues --  -11.21747 -11.21717 -11.21662 -11.21575 -11.21165
 Alpha  occ. eigenvalues --   -1.59803  -1.39357  -1.19298  -1.08722  -1.08701
 Alpha  occ. eigenvalues --   -1.04701  -1.03867  -0.96326  -0.95536  -0.87346
 Alpha  occ. eigenvalues --   -0.86101  -0.82370  -0.79936  -0.78499  -0.77416
 Alpha  occ. eigenvalues --   -0.72001  -0.71124  -0.70421  -0.65358  -0.64952
 Alpha  occ. eigenvalues --   -0.64715  -0.62133  -0.61210  -0.59706  -0.57920
 Alpha  occ. eigenvalues --   -0.55639  -0.55176  -0.53117  -0.52953  -0.52932
 Alpha  occ. eigenvalues --   -0.52596  -0.50235  -0.48757  -0.48755  -0.48239
 Alpha  occ. eigenvalues --   -0.46950  -0.46049  -0.45949  -0.44768  -0.44107
 Alpha  occ. eigenvalues --   -0.37288  -0.36293
 Alpha virt. eigenvalues --    0.05105   0.11338   0.16557   0.19924   0.22838
 Alpha virt. eigenvalues --    0.23861   0.25750   0.26355   0.26742   0.27896
 Alpha virt. eigenvalues --    0.28871   0.30077   0.31416   0.31704   0.32428

 Mulliken charges:
               1
     1  C   -0.298583
     2  C   -0.300228
     3  C   -0.475908
     4  H    0.149202
     5  H    0.149162
     6  H    0.153965
     7  H    0.152828
     8  H    0.154833
     9  H    0.155107
    10  H    0.161393
    11  C   -0.299435
    12  C   -0.300070
    13  C   -0.485094
    14  H    0.153826
    15  H    0.151963
    16  H    0.148121
    17  H    0.153242
    18  H    0.163357
    19  H    0.160059
    20  H    0.153623
    21  C   -0.170626
    22  C   -0.223990
    23  C   -0.175133
    24  C    0.158066
    25  C   -0.170222
    26  C   -0.219041
    27  H    0.225355
    28  H    0.225156
    29  H    0.284740
    30  H    0.275395
    31  H    0.223154
    32  N    0.487450
    33  O   -0.460525
    34  O   -0.461142
 Sum of Mulliken charges =  -0.00000

 Dipole moment (field-independent basis, Debye):
    X=             -0.0027    Y=             -5.1213    Z=             -0.4582  Tot=              5.1417
 Quadrupole moment (field-independent basis, Debye-Ang):
   XX=            -88.9982   YY=            -99.0852   ZZ=            -94.8947
   XY=            -17.6971   XZ=             -3.1745   YZ=              0.2340

 Normal termination of Gaussian 16 at Thu May  6 10:39:43 2021.
