 Gaussian 16, Revision A.03,
 Gaussian 16:  EM64L-G16RevA.03 25-Dec-2016

 -------------
 #p 6-31g* mp2
 -------------

 ------------------------------------------------------
 Input file generated by CHIRIPA (05-May-2021 14:51:13)
 ------------------------------------------------------
 Symbolic Z-matrix:
 Charge =  0 Multiplicity = 1

                         Standard orientation:
 ---------------------------------------------------------------------
 Center     Atomic      Atomic             Coordinates (Angstroms)
 Number     Number       Type             X           Y           Z
 ---------------------------------------------------------------------
      1          6           0        3.240018   -0.136623   -0.574852
      2          6           0        4.330939   -1.081909   -0.070560
      3          6           0        4.396457   -2.386484   -0.865283
      4          1           0        2.268802   -0.647627   -0.524257
      5          1           0        3.420353    0.087627   -1.635317
      6          1           0        4.149381   -1.303210    0.989005
      7          1           0        5.299645   -0.568528   -0.122181
      8          1           0        4.600921   -2.184208   -1.921635
      9          1           0        3.444122   -2.923065   -0.804135
     10          1           0        5.183058   -3.047357   -0.487968
     11          6           0        3.162098    1.171897    0.209642
     12          6           0        2.071177    2.117183   -0.294649
     13          6           0        2.005659    3.421759    0.500074
     14          1           0        2.981763    0.947647    1.270107
     15          1           0        4.133314    1.682902    0.159048
     16          1           0        1.102471    1.603802   -0.243028
     17          1           0        2.252735    2.338485   -1.354215
     18          1           0        2.957994    3.958340    0.438926
     19          1           0        1.801195    3.219483    1.556426
     20          1           0        1.219058    4.082631    0.122759
     21          6           0       -2.463935   -0.679104    0.064243
     22          6           0       -1.753209   -1.214476    1.307718
     23          6           0       -0.279241   -1.532883    1.055077
     24          1           0       -2.380322   -1.417774   -0.744658
     25          1           0       -1.946863    0.225725   -0.284062
     26          1           0       -2.272295   -2.117243    1.654384
     27          1           0       -1.838688   -0.474529    2.113812
     28          1           0        0.258571   -0.636027    0.731026
     29          1           0       -0.177500   -2.288075    0.268988
     30          1           0        0.209457   -1.914156    1.957110
     31          6           0       -3.938181   -0.356171    0.300966
     32          6           0       -4.648907    0.179201   -0.942509
     33          6           0       -6.122875    0.497609   -0.689868
     34          1           0       -4.455254   -1.261000    0.649271
     35          1           0       -4.021794    0.382499    1.109867
     36          1           0       -4.563427   -0.560746   -1.748603
     37          1           0       -4.129821    1.081968   -1.289175
     38          1           0       -6.224615    1.252801    0.096221
     39          1           0       -6.660687   -0.399248   -0.365817
     40          1           0       -6.611573    0.878882   -1.591901
 ---------------------------------------------------------------------

 SCF Done:  E(RHF) =  -470.732927974     A.U. after   11 cycles
 E2 =    -0.1583539579D+01 EUMP2 =    -0.47231646755382D+03

 The electronic state is 1-A.
 Alpha  occ. eigenvalues --  -11.21672 -11.21631 -11.21625 -11.21527 -11.21454
 Alpha  occ. eigenvalues --  -11.21391 -11.21357 -11.21243 -11.21161 -11.21096
 Alpha  occ. eigenvalues --  -11.21088 -11.21008  -1.08484  -1.08387  -1.03585
 Alpha  occ. eigenvalues --   -1.03502  -0.96052  -0.95936  -0.87065  -0.86961
 Alpha  occ. eigenvalues --   -0.79663  -0.79567  -0.78323  -0.78164  -0.65209
 Alpha  occ. eigenvalues --   -0.64964  -0.61025  -0.60858  -0.59405  -0.59313
 Alpha  occ. eigenvalues --   -0.57684  -0.57533  -0.55426  -0.55146  -0.52733
 Alpha  occ. eigenvalues --   -0.52661  -0.52498  -0.52336  -0.49991  -0.49889
 Alpha  occ. eigenvalues --   -0.48026  -0.47890  -0.46762  -0.46581  -0.45993
 Alpha  occ. eigenvalues --   -0.45772  -0.45703  -0.45309  -0.43836  -0.43746
 Alpha virt. eigenvalues --    0.20383   0.22883   0.23742   0.24590   0.25727
 Alpha virt. eigenvalues --    0.26601   0.27058   0.27576   0.27913   0.29661
 Alpha virt. eigenvalues --    0.30080   0.31466   0.31722   0.31993   0.32109

 Mulliken charges:
               1
     1  C   -0.305226
     2  C   -0.298981
     3  C   -0.475883
     4  H    0.158167
     5  H    0.148810
     6  H    0.151954
     7  H    0.151371
     8  H    0.154859
     9  H    0.155612
    10  H    0.159883
    11  C   -0.298468
    12  C   -0.304007
    13  C   -0.475496
    14  H    0.149732
    15  H    0.149834
    16  H    0.153594
    17  H    0.152529
    18  H    0.155564
    19  H    0.155126
    20  H    0.159971
    21  C   -0.299266
    22  C   -0.299520
    23  C   -0.483965
    24  H    0.149957
    25  H    0.149867
    26  H    0.152296
    27  H    0.152061
    28  H    0.163109
    29  H    0.155304
    30  H    0.160556
    31  C   -0.298342
    32  C   -0.299729
    33  C   -0.475751
    34  H    0.149709
    35  H    0.149785
    36  H    0.152041
    37  H    0.152119
    38  H    0.155238
    39  H    0.155204
    40  H    0.160378
 Sum of Mulliken charges =  -0.00000

 Dipole moment (field-independent basis, Debye):
    X=             -0.0334    Y=             -0.0122    Z=              0.0048  Tot=              0.0358
 Quadrupole moment (field-independent basis, Debye-Ang):
   XX=            -85.5481   YY=            -84.7557   ZZ=            -84.5405
   XY=              1.0230   XZ=             -0.2262   YZ=             -0.5055

 Normal termination of Gaussian 16 at Thu May  6 07:09:45 2021.
