 Gaussian 16, Revision A.03,
 Gaussian 16:  EM64L-G16RevA.03 25-Dec-2016

 -------------
 #p 6-31g* mp2
 -------------

 ------------------------------------------------------
 Input file generated by CHIRIPA (05-May-2021 14:53:13)
 ------------------------------------------------------
 Symbolic Z-matrix:
 Charge =  0 Multiplicity = 1

                         Standard orientation:
 ---------------------------------------------------------------------
 Center     Atomic      Atomic             Coordinates (Angstroms)
 Number     Number       Type             X           Y           Z
 ---------------------------------------------------------------------
      1          6           0       -3.181029    1.049462   -0.032850
      2          6           0       -2.357743    1.536370    1.160089
      3          6           0       -1.888814    2.983235    1.003623
      4          1           0       -2.580700    1.144913   -0.947967
      5          1           0       -4.052427    1.706507   -0.160723
      6          1           0       -1.488901    0.877777    1.286522
      7          1           0       -2.960034    1.439568    2.072499
      8          1           0       -2.745637    3.656843    0.900149
      9          1           0       -1.266146    3.091859    0.109707
     10          1           0       -1.302154    3.310778    1.867571
     11          6           0       -3.657032   -0.395212    0.108812
     12          6           0       -4.480318   -0.882120   -1.084128
     13          6           0       -4.949248   -2.328985   -0.927662
     14          1           0       -2.785634   -1.052258    0.236684
     15          1           0       -4.257361   -0.490664    1.023929
     16          1           0       -3.878027   -0.785319   -1.996537
     17          1           0       -5.349160   -0.223527   -1.210561
     18          1           0       -5.571916   -2.437610   -0.033745
     19          1           0       -4.092424   -3.002593   -0.824188
     20          1           0       -5.535907   -2.656528   -1.791610
     21          6           0        2.415655   -2.550479    0.987203
     22          6           0        3.535460   -2.252711    0.203692
     23          6           0        3.687403   -0.984492   -0.364712
     24          6           0        2.695815   -0.033702   -0.127980
     25          6           0        1.568754   -0.299916    0.648006
     26          6           0        1.437600   -1.574851    1.206473
     27          1           0        2.305697   -3.538270    1.424894
     28          1           0        4.296615   -3.008432    0.031714
     29          1           0        4.544286   -0.727093   -0.975380
     30          1           0        0.826689    0.474136    0.801638
     31          1           0        0.566893   -1.803284    1.814529
     32          7           0        2.845666    1.312460   -0.724465
     33          8           0        1.957983    2.132620   -0.500872
     34          8           0        3.847964    1.521930   -1.404287
 ---------------------------------------------------------------------

 SCF Done:  E(RHF) =  -669.535681358     A.U. after   15 cycles
 E2 =    -0.2091715281D+01 EUMP2 =    -0.67162739663922D+03

 The electronic state is 1-A.
 Alpha  occ. eigenvalues --  -20.60814 -20.60809 -15.85862 -11.31204 -11.27778
 Alpha  occ. eigenvalues --  -11.27752 -11.27520 -11.26791 -11.26778 -11.21855
 Alpha  occ. eigenvalues --  -11.21793 -11.21651 -11.21494 -11.21301 -11.20795
 Alpha  occ. eigenvalues --   -1.59885  -1.39439  -1.19379  -1.08779  -1.08614
 Alpha  occ. eigenvalues --   -1.04782  -1.03656  -0.96061  -0.95616  -0.87068
 Alpha  occ. eigenvalues --   -0.86180  -0.82450  -0.79734  -0.78448  -0.77497
 Alpha  occ. eigenvalues --   -0.72082  -0.71206  -0.70499  -0.65279  -0.65032
 Alpha  occ. eigenvalues --   -0.64772  -0.62178  -0.61005  -0.59445  -0.57690
 Alpha  occ. eigenvalues --   -0.55361  -0.55254  -0.53112  -0.52875  -0.52739
 Alpha  occ. eigenvalues --   -0.52476  -0.49982  -0.48837  -0.48833  -0.48033
 Alpha  occ. eigenvalues --   -0.46771  -0.45984  -0.45892  -0.44848  -0.43914
 Alpha  occ. eigenvalues --   -0.37363  -0.36383
 Alpha virt. eigenvalues --    0.05025   0.11265   0.16506   0.19445   0.22953
 Alpha virt. eigenvalues --    0.23758   0.25251   0.26916   0.27461   0.28247
 Alpha virt. eigenvalues --    0.29404   0.31061   0.31497   0.31711   0.32052

 Mulliken charges:
               1
     1  C   -0.299332
     2  C   -0.300654
     3  C   -0.479708
     4  H    0.154728
     5  H    0.152109
     6  H    0.136797
     7  H    0.151884
     8  H    0.154650
     9  H    0.172190
    10  H    0.160861
    11  C   -0.297205
    12  C   -0.299930
    13  C   -0.475606
    14  H    0.142799
    15  H    0.149169
    16  H    0.153921
    17  H    0.153572
    18  H    0.154877
    19  H    0.152969
    20  H    0.161514
    21  C   -0.170634
    22  C   -0.218969
    23  C   -0.170206
    24  C    0.159820
    25  C   -0.181354
    26  C   -0.221974
    27  H    0.225792
    28  H    0.223579
    29  H    0.275620
    30  H    0.288070
    31  H    0.224134
    32  N    0.488061
    33  O   -0.461523
    34  O   -0.460017
 Sum of Mulliken charges =  -0.00000

 Dipole moment (field-independent basis, Debye):
    X=             -0.5564    Y=             -4.6076    Z=              2.0019  Tot=              5.0544
 Quadrupole moment (field-independent basis, Debye-Ang):
   XX=            -93.2617   YY=            -95.1732   ZZ=            -95.0134
   XY=            -15.3156   XZ=              3.5286   YZ=              1.1775

 Normal termination of Gaussian 16 at Thu May  6 20:17:23 2021.
