 Gaussian 16, Revision A.03,
 Gaussian 16:  EM64L-G16RevA.03 25-Dec-2016

 -------------
 #p 6-31g* mp2
 -------------

 ------------------------------------------------------
 Input file generated by CHIRIPA (05-May-2021 14:51:09)
 ------------------------------------------------------
 Symbolic Z-matrix:
 Charge =  0 Multiplicity = 1

                         Standard orientation:
 ---------------------------------------------------------------------
 Center     Atomic      Atomic             Coordinates (Angstroms)
 Number     Number       Type             X           Y           Z
 ---------------------------------------------------------------------
      1          6           0        2.671423    1.134091    0.291519
      2          6           0        3.168291    2.334772   -0.514379
      3          6           0        2.630763    3.664921    0.014356
      4          1           0        1.573018    1.119439    0.276140
      5          1           0        2.967676    1.258669    1.342285
      6          1           0        2.872387    2.207295   -1.563572
      7          1           0        4.265645    2.346457   -0.497239
      8          1           0        2.937707    3.818538    1.053965
      9          1           0        1.536533    3.678585   -0.018426
     10          1           0        2.998447    4.509775   -0.576314
     11          6           0        3.200210   -0.202852   -0.224909
     12          6           0        2.703341   -1.403533    0.580990
     13          6           0        3.240869   -2.733682    0.052255
     14          1           0        2.903957   -0.327430   -1.275675
     15          1           0        4.298615   -0.188200   -0.209529
     16          1           0        1.605988   -1.415218    0.563850
     17          1           0        2.999245   -1.276056    1.630183
     18          1           0        4.335099   -2.747346    0.085037
     19          1           0        2.933925   -2.887299   -0.987355
     20          1           0        2.873185   -3.578536    0.642925
     21          6           0       -3.153805    0.224536    0.210821
     22          6           0       -4.563054    0.610037   -0.240169
     23          6           0       -4.984849    1.993380    0.256062
     24          1           0       -3.106409    0.252230    1.308059
     25          1           0       -2.441239    0.978226   -0.151941
     26          1           0       -5.272574   -0.144890    0.122159
     27          1           0       -4.607153    0.581236   -1.336456
     28          1           0       -4.299914    2.761775   -0.116812
     29          1           0       -4.969117    2.031524    1.350090
     30          1           0       -5.995379    2.248758   -0.077811
     31          6           0       -2.717827   -1.155776   -0.277432
     32          6           0       -1.308578   -1.541276    0.173559
     33          6           0       -0.886783   -2.924619   -0.322672
     34          1           0       -3.430393   -1.909465    0.085331
     35          1           0       -2.765223   -1.183469   -1.374670
     36          1           0       -1.264479   -1.512475    1.269845
     37          1           0       -0.599058   -0.786349   -0.188770
     38          1           0       -0.902516   -2.962762   -1.416700
     39          1           0       -1.571718   -3.693014    0.050201
     40          1           0        0.123747   -3.179996    0.011200
 ---------------------------------------------------------------------

 SCF Done:  E(RHF) =  -470.732318973     A.U. after   11 cycles
 E2 =    -0.1584295420D+01 EUMP2 =    -0.47231661439291D+03

 The electronic state is 1-A.
 Alpha  occ. eigenvalues --  -11.21671 -11.21634 -11.21601 -11.21487 -11.21455
 Alpha  occ. eigenvalues --  -11.21395 -11.21388 -11.21327 -11.21095 -11.21073
 Alpha  occ. eigenvalues --  -11.21073 -11.21056  -1.08500  -1.08397  -1.03632
 Alpha  occ. eigenvalues --   -1.03467  -0.96063  -0.95934  -0.87046  -0.86974
 Alpha  occ. eigenvalues --   -0.79703  -0.79535  -0.78373  -0.78149  -0.65225
 Alpha  occ. eigenvalues --   -0.64979  -0.61161  -0.60881  -0.59550  -0.59142
 Alpha  occ. eigenvalues --   -0.57771  -0.57399  -0.55326  -0.55232  -0.52756
 Alpha  occ. eigenvalues --   -0.52608  -0.52434  -0.52371  -0.49976  -0.49895
 Alpha  occ. eigenvalues --   -0.48000  -0.47859  -0.46788  -0.46539  -0.46036
 Alpha  occ. eigenvalues --   -0.45792  -0.45727  -0.45360  -0.43830  -0.43761
 Alpha virt. eigenvalues --    0.20724   0.22990   0.23324   0.24854   0.25558
 Alpha virt. eigenvalues --    0.26774   0.26836   0.27203   0.28283   0.29329
 Alpha virt. eigenvalues --    0.30971   0.31358   0.31503   0.31842   0.32372

 Mulliken charges:
               1
     1  C   -0.300807
     2  C   -0.299570
     3  C   -0.475622
     4  H    0.151128
     5  H    0.149793
     6  H    0.151592
     7  H    0.152098
     8  H    0.155327
     9  H    0.154946
    10  H    0.160213
    11  C   -0.297161
    12  C   -0.312330
    13  C   -0.476899
    14  H    0.148758
    15  H    0.149518
    16  H    0.166559
    17  H    0.151384
    18  H    0.155618
    19  H    0.155802
    20  H    0.159471
    21  C   -0.298280
    22  C   -0.299706
    23  C   -0.475728
    24  H    0.149973
    25  H    0.148878
    26  H    0.152101
    27  H    0.151965
    28  H    0.155177
    29  H    0.155323
    30  H    0.160393
    31  C   -0.297670
    32  C   -0.304640
    33  C   -0.483023
    34  H    0.149953
    35  H    0.149695
    36  H    0.152918
    37  H    0.153701
    38  H    0.154922
    39  H    0.155768
    40  H    0.168462
 Sum of Mulliken charges =  -0.00000

 Dipole moment (field-independent basis, Debye):
    X=             -0.0315    Y=             -0.0138    Z=              0.0127  Tot=              0.0366
 Quadrupole moment (field-independent basis, Debye-Ang):
   XX=            -84.3442   YY=            -86.6459   ZZ=            -83.8263
   XY=              1.0127   XZ=              0.3590   YZ=             -0.8666

 Normal termination of Gaussian 16 at Wed May  5 19:44:38 2021.
