 Gaussian 16, Revision A.03,
 Gaussian 16:  EM64L-G16RevA.03 25-Dec-2016

 -------------
 #p 6-31g* mp2
 -------------

 ------------------------------------------------------
 Input file generated by CHIRIPA (05-May-2021 14:53:12)
 ------------------------------------------------------
 Symbolic Z-matrix:
 Charge =  0 Multiplicity = 1

                         Standard orientation:
 ---------------------------------------------------------------------
 Center     Atomic      Atomic             Coordinates (Angstroms)
 Number     Number       Type             X           Y           Z
 ---------------------------------------------------------------------
      1          6           0       -4.132149   -0.265108    0.374251
      2          6           0       -3.141913   -0.969371   -0.553882
      3          6           0       -1.834877   -1.339731    0.147748
      4          1           0       -3.662923    0.641284    0.780730
      5          1           0       -4.347393   -0.917220    1.232047
      6          1           0       -2.929666   -0.316694   -1.410375
      7          1           0       -3.613619   -1.874089   -0.958349
      8          1           0       -2.027146   -2.010586    0.991304
      9          1           0       -1.339306   -0.444342    0.536709
     10          1           0       -1.141589   -1.842087   -0.534051
     11          6           0       -5.443643    0.111470   -0.312701
     12          6           0       -6.433879    0.815734    0.615432
     13          6           0       -7.740915    1.186093   -0.086198
     14          1           0       -5.228398    0.763583   -1.170497
     15          1           0       -5.912869   -0.794921   -0.719180
     16          1           0       -5.962172    1.720452    1.019899
     17          1           0       -6.646126    0.163057    1.471925
     18          1           0       -8.236486    0.290705   -0.475159
     19          1           0       -7.548646    1.856949   -0.929753
     20          1           0       -8.434202    1.688450    0.595601
     21          6           0        5.019137    2.234220    0.038828
     22          6           0        5.670025    1.030723    0.329453
     23          6           0        4.971540   -0.179919    0.297670
     24          6           0        3.616934   -0.150180   -0.030121
     25          6           0        2.940372    1.032551   -0.324572
     26          6           0        3.658786    2.231297   -0.286683
     27          1           0        5.569478    3.170055    0.065889
     28          1           0        6.726423    1.029973    0.582571
     29          1           0        5.450670   -1.126046    0.518345
     30          1           0        1.886576    1.001478   -0.573504
     31          1           0        3.150703    3.164437   -0.512839
     32          7           0        2.866930   -1.425536   -0.067001
     33          8           0        1.674133   -1.372470   -0.358645
     34          8           0        3.486075   -2.454077    0.196437
 ---------------------------------------------------------------------

 SCF Done:  E(RHF) =  -669.535668895     A.U. after   15 cycles
 E2 =    -0.2090799800D+01 EUMP2 =    -0.67162646869507D+03

 The electronic state is 1-A.
 Alpha  occ. eigenvalues --  -20.60844 -20.60837 -15.85885 -11.31241 -11.27810
 Alpha  occ. eigenvalues --  -11.27806 -11.27554 -11.26826 -11.26816 -11.21275
 Alpha  occ. eigenvalues --  -11.20946 -11.20814 -11.20801 -11.20734 -11.19739
 Alpha  occ. eigenvalues --   -1.59911  -1.39466  -1.19414  -1.08812  -1.07881
 Alpha  occ. eigenvalues --   -1.04816  -1.02886  -0.95656  -0.95294  -0.86310
 Alpha  occ. eigenvalues --   -0.86212  -0.82482  -0.78971  -0.77686  -0.77517
 Alpha  occ. eigenvalues --   -0.72114  -0.71228  -0.70523  -0.65070  -0.64820
 Alpha  occ. eigenvalues --   -0.64527  -0.62163  -0.60301  -0.58700  -0.56899
 Alpha  occ. eigenvalues --   -0.55319  -0.54612  -0.53146  -0.52909  -0.51914
 Alpha  occ. eigenvalues --   -0.51731  -0.49286  -0.48860  -0.48847  -0.47267
 Alpha  occ. eigenvalues --   -0.46045  -0.45218  -0.45153  -0.44853  -0.43093
 Alpha  occ. eigenvalues --   -0.37395  -0.36419
 Alpha virt. eigenvalues --    0.04998   0.11234   0.16487   0.21273   0.23334
 Alpha virt. eigenvalues --    0.24823   0.26924   0.27283   0.27800   0.28034
 Alpha virt. eigenvalues --    0.29057   0.30863   0.31765   0.32243   0.32780

 Mulliken charges:
               1
     1  C   -0.296987
     2  C   -0.301013
     3  C   -0.474780
     4  H    0.145967
     5  H    0.149119
     6  H    0.147345
     7  H    0.150320
     8  H    0.151477
     9  H    0.148339
    10  H    0.182155
    11  C   -0.297435
    12  C   -0.299001
    13  C   -0.475314
    14  H    0.147557
    15  H    0.149535
    16  H    0.150225
    17  H    0.151834
    18  H    0.155202
    19  H    0.154138
    20  H    0.158957
    21  C   -0.170707
    22  C   -0.218590
    23  C   -0.170657
    24  C    0.157824
    25  C   -0.171116
    26  C   -0.218555
    27  H    0.225773
    28  H    0.223623
    29  H    0.275770
    30  H    0.275976
    31  H    0.223574
    32  N    0.493352
    33  O   -0.464056
    34  O   -0.459851
 Sum of Mulliken charges =  -0.00000

 Dipole moment (field-independent basis, Debye):
    X=              2.9025    Y=              4.3942    Z=              0.1044  Tot=              5.2673
 Quadrupole moment (field-independent basis, Debye-Ang):
   XX=            -74.2181   YY=            -94.4768   ZZ=            -95.4813
   XY=             14.6348   XZ=              1.2157   YZ=             -0.9751

 Normal termination of Gaussian 16 at Thu May  6 16:59:30 2021.
