 Gaussian 16, Revision A.03,
 Gaussian 16:  EM64L-G16RevA.03 25-Dec-2016

 -------------
 #p 6-31g* mp2
 -------------

 ------------------------------------------------------
 Input file generated by CHIRIPA (05-May-2021 14:55:24)
 ------------------------------------------------------
 Symbolic Z-matrix:
 Charge =  0 Multiplicity = 1

                         Standard orientation:
 ---------------------------------------------------------------------
 Center     Atomic      Atomic             Coordinates (Angstroms)
 Number     Number       Type             X           Y           Z
 ---------------------------------------------------------------------
      1          6           0        3.367184    1.303610    1.763628
      2          6           0        1.987208    1.090831    1.680492
      3          6           0        1.454635    0.266384    0.684901
      4          6           0        2.335030   -0.332125   -0.215089
      5          6           0        3.714530   -0.139664   -0.158258
      6          6           0        4.224928    0.688767    0.845606
      7          1           0        3.772287    1.945607    2.540240
      8          1           0        1.318685    1.567024    2.392084
      9          1           0        0.390358    0.084420    0.597598
     10          1           0        4.355799   -0.628073   -0.881893
     11          1           0        5.297061    0.852207    0.907766
     12          7           0        1.782956   -1.207038   -1.273456
     13          8           0        2.579816   -1.722745   -2.054287
     14          8           0        0.563835   -1.360522   -1.302132
     15          6           0       -2.859535   -0.460298    0.230493
     16          6           0       -3.898294   -1.294294    0.981104
     17          6           0       -3.391850   -2.693861    1.331136
     18          1           0       -2.570065   -0.987596   -0.688805
     19          1           0       -1.951395   -0.379860    0.843849
     20          1           0       -4.804710   -1.371973    0.367107
     21          1           0       -4.185467   -0.764860    1.898626
     22          1           0       -2.500506   -2.633901    1.963999
     23          1           0       -3.123268   -3.244463    0.423777
     24          1           0       -4.150284   -3.272801    1.867296
     25          6           0       -3.351071    0.941394   -0.126411
     26          6           0       -2.312313    1.775391   -0.877020
     27          6           0       -2.818758    3.174957   -1.227053
     28          1           0       -4.259212    0.860957   -0.739765
     29          1           0       -3.640541    1.468692    0.792887
     30          1           0       -2.025141    1.245956   -1.794543
     31          1           0       -1.405897    1.853070   -0.263023
     32          1           0       -3.087339    3.725560   -0.319693
     33          1           0       -3.710100    3.114998   -1.859915
     34          1           0       -2.060324    3.753897   -1.763213
 ---------------------------------------------------------------------

 SCF Done:  E(RHF) =  -669.535419347     A.U. after   15 cycles
 E2 =    -0.2092666981D+01 EUMP2 =    -0.67162808632865D+03

 The electronic state is 1-A.
 Alpha  occ. eigenvalues --  -20.60776 -20.60770 -15.85823 -11.31172 -11.27754
 Alpha  occ. eigenvalues --  -11.27706 -11.27499 -11.26770 -11.26759 -11.21504
 Alpha  occ. eigenvalues --  -11.21353 -11.21244 -11.21096 -11.21020 -11.20721
 Alpha  occ. eigenvalues --   -1.59847  -1.39399  -1.19352  -1.08751  -1.08247
 Alpha  occ. eigenvalues --   -1.04756  -1.03341  -0.95788  -0.95585  -0.86799
 Alpha  occ. eigenvalues --   -0.86155  -0.82420  -0.79407  -0.78121  -0.77393
 Alpha  occ. eigenvalues --   -0.72042  -0.71166  -0.70471  -0.65035  -0.64961
 Alpha  occ. eigenvalues --   -0.64680  -0.62102  -0.60748  -0.59154  -0.57388
 Alpha  occ. eigenvalues --   -0.55278  -0.55065  -0.53085  -0.52876  -0.52475
 Alpha  occ. eigenvalues --   -0.52190  -0.49728  -0.48806  -0.48804  -0.47721
 Alpha  occ. eigenvalues --   -0.46454  -0.45580  -0.45445  -0.44799  -0.43596
 Alpha  occ. eigenvalues --   -0.37335  -0.36351
 Alpha virt. eigenvalues --    0.05037   0.11261   0.16528   0.20227   0.23183
 Alpha virt. eigenvalues --    0.24484   0.24840   0.27247   0.27791   0.28109
 Alpha virt. eigenvalues --    0.29911   0.31272   0.31488   0.31998   0.32083

 Mulliken charges:
               1
     1  C   -0.170276
     2  C   -0.223811
     3  C   -0.180336
     4  C    0.155417
     5  C   -0.169607
     6  C   -0.219168
     7  H    0.225595
     8  H    0.223270
     9  H    0.294908
    10  H    0.275577
    11  H    0.223428
    12  N    0.487944
    13  O   -0.460428
    14  O   -0.462213
    15  C   -0.301331
    16  C   -0.299467
    17  C   -0.475057
    18  H    0.170236
    19  H    0.137170
    20  H    0.152714
    21  H    0.147649
    22  H    0.152254
    23  H    0.162437
    24  H    0.158181
    25  C   -0.299262
    26  C   -0.300080
    27  C   -0.475585
    28  H    0.151408
    29  H    0.144918
    30  H    0.164054
    31  H    0.140312
    32  H    0.152090
    33  H    0.156904
    34  H    0.160153
 Sum of Mulliken charges =  -0.00000

 Dipole moment (field-independent basis, Debye):
    X=              1.9175    Y=              2.9455    Z=              3.5238  Tot=              4.9769
 Quadrupole moment (field-independent basis, Debye-Ang):
   XX=            -81.2999   YY=            -98.5220   ZZ=            -95.7523
   XY=              6.4751   XZ=              7.4488   YZ=             -0.7658

 Normal termination of Gaussian 16 at Thu May  6 00:01:03 2021.
