 Gaussian 16, Revision A.03,
 Gaussian 16:  EM64L-G16RevA.03 25-Dec-2016

 -------------
 #p 6-31g* mp2
 -------------

 ------------------------------------------------------
 Input file generated by CHIRIPA (05-May-2021 14:53:13)
 ------------------------------------------------------
 Symbolic Z-matrix:
 Charge =  0 Multiplicity = 1

                         Standard orientation:
 ---------------------------------------------------------------------
 Center     Atomic      Atomic             Coordinates (Angstroms)
 Number     Number       Type             X           Y           Z
 ---------------------------------------------------------------------
      1          6           0        3.865207    0.656426    0.416670
      2          6           0        4.873795    1.579411   -0.268044
      3          6           0        4.904705    2.979761    0.345028
      4          1           0        2.865141    1.107089    0.355712
      5          1           0        4.111053    0.584548    1.485215
      6          1           0        4.626944    1.648429   -1.335245
      7          1           0        5.871545    1.126407   -0.205617
      8          1           0        5.173151    2.930291    1.405259
      9          1           0        3.921478    3.455279    0.269213
     10          1           0        5.632433    3.622942   -0.159543
     11          6           0        3.822670   -0.747087   -0.185053
     12          6           0        2.814081   -1.670072    0.499661
     13          6           0        2.783171   -3.070422   -0.113411
     14          1           0        3.576824   -0.675209   -1.253598
     15          1           0        4.822735   -1.197750   -0.124095
     16          1           0        1.816331   -1.217067    0.437234
     17          1           0        3.060933   -1.739090    1.566862
     18          1           0        3.766398   -3.545940   -0.037596
     19          1           0        2.514725   -3.020952   -1.173642
     20          1           0        2.055444   -3.713603    0.391159
     21          6           0       -5.018542    1.515240    0.247068
     22          6           0       -5.060583    0.174256    0.642684
     23          6           0       -3.949802   -0.654914    0.460504
     24          6           0       -2.808229   -0.107649   -0.123108
     25          6           0       -2.735467    1.224374   -0.527719
     26          6           0       -3.858165    2.035103   -0.335844
     27          1           0       -5.886053    2.152196    0.392355
     28          1           0       -5.960404   -0.232188    1.095645
     29          1           0       -3.955105   -1.696619    0.757558
     30          1           0       -1.824311    1.600968   -0.976482
     31          1           0       -3.822659    3.076157   -0.644051
     32          7           0       -1.625986   -0.975694   -0.321106
     33          8           0       -0.632224   -0.469435   -0.837608
     34          8           0       -1.715494   -2.145888    0.043956
 ---------------------------------------------------------------------

 SCF Done:  E(RHF) =  -669.536540439     A.U. after   15 cycles
 E2 =    -0.2091238138D+01 EUMP2 =    -0.67162777857710D+03

 The electronic state is 1-A.
 Alpha  occ. eigenvalues --  -20.61059 -20.61052 -15.86074 -11.31362 -11.27920
 Alpha  occ. eigenvalues --  -11.27914 -11.27648 -11.26916 -11.26906 -11.20866
 Alpha  occ. eigenvalues --  -11.20540 -11.20400 -11.20118 -11.19888 -11.19470
 Alpha  occ. eigenvalues --   -1.60106  -1.39664  -1.19524  -1.08935  -1.07303
 Alpha  occ. eigenvalues --   -1.04914  -1.02368  -0.95782  -0.94862  -0.86316
 Alpha  occ. eigenvalues --   -0.85891  -0.82618  -0.78499  -0.77676  -0.77047
 Alpha  occ. eigenvalues --   -0.72291  -0.71415  -0.70632  -0.65180  -0.64917
 Alpha  occ. eigenvalues --   -0.63925  -0.62262  -0.59749  -0.58293  -0.56443
 Alpha  occ. eigenvalues --   -0.55419  -0.54158  -0.53247  -0.53005  -0.51573
 Alpha  occ. eigenvalues --   -0.51294  -0.49102  -0.49044  -0.48808  -0.46802
 Alpha  occ. eigenvalues --   -0.45545  -0.45133  -0.44601  -0.44324  -0.42632
 Alpha  occ. eigenvalues --   -0.37499  -0.36513
 Alpha virt. eigenvalues --    0.04823   0.11143   0.16320   0.21276   0.23912
 Alpha virt. eigenvalues --    0.25522   0.27200   0.27691   0.28175   0.28685
 Alpha virt. eigenvalues --    0.29086   0.30863   0.32363   0.32502   0.32775

 Mulliken charges:
               1
     1  C   -0.298036
     2  C   -0.298809
     3  C   -0.474679
     4  H    0.151803
     5  H    0.145940
     6  H    0.151316
     7  H    0.150302
     8  H    0.153830
     9  H    0.152620
    10  H    0.157532
    11  C   -0.296580
    12  C   -0.308221
    13  C   -0.472792
    14  H    0.151097
    15  H    0.143746
    16  H    0.176499
    17  H    0.142357
    18  H    0.145330
    19  H    0.157928
    20  H    0.163077
    21  C   -0.170424
    22  C   -0.218580
    23  C   -0.170618
    24  C    0.158324
    25  C   -0.170652
    26  C   -0.218529
    27  H    0.226276
    28  H    0.224082
    29  H    0.276041
    30  H    0.275588
    31  H    0.224079
    32  N    0.488530
    33  O   -0.460326
    34  O   -0.458052
 Sum of Mulliken charges =  -0.00000

 Dipole moment (field-independent basis, Debye):
    X=             -4.6041    Y=              3.0253    Z=              0.6333  Tot=              5.5454
 Quadrupole moment (field-independent basis, Debye-Ang):
   XX=            -71.4296   YY=            -94.1627   ZZ=            -94.6853
   XY=             -6.4503   XZ=             -2.5378   YZ=             -2.7746

 Normal termination of Gaussian 16 at Wed May  5 23:24:10 2021.
