 Gaussian 16, Revision A.03,
 Gaussian 16:  EM64L-G16RevA.03 25-Dec-2016

 -------------
 #p 6-31g* mp2
 -------------

 ------------------------------------------------------
 Input file generated by CHIRIPA (05-May-2021 14:55:25)
 ------------------------------------------------------
 Symbolic Z-matrix:
 Charge =  0 Multiplicity = 1

                         Standard orientation:
 ---------------------------------------------------------------------
 Center     Atomic      Atomic             Coordinates (Angstroms)
 Number     Number       Type             X           Y           Z
 ---------------------------------------------------------------------
      1          6           0       -6.407002    0.380092    0.290058
      2          6           0       -5.861696   -0.902708    0.173492
      3          6           0       -4.487691   -1.075381   -0.018446
      4          6           0       -3.684681    0.061908   -0.089433
      5          6           0       -4.198066    1.353057    0.023085
      6          6           0       -5.574914    1.501902    0.214615
      7          1           0       -7.475467    0.504973    0.439002
      8          1           0       -6.505501   -1.775733    0.231696
      9          1           0       -4.039136   -2.056955   -0.111880
     10          1           0       -3.530932    2.204229   -0.039007
     11          1           0       -5.995639    2.499349    0.304807
     12          7           0       -2.228578   -0.108281   -0.292414
     13          8           0       -1.542535    0.909800   -0.351516
     14          8           0       -1.800900   -1.256533   -0.388564
     15          6           0        5.557241    0.419895   -0.039517
     16          6           0        6.981918   -0.089665    0.181005
     17          6           0        8.038356    0.992271   -0.045148
     18          1           0        5.469145    0.812407   -1.061827
     19          1           0        5.368675    1.264918    0.637073
     20          1           0        7.167272   -0.934362   -0.494826
     21          1           0        7.066580   -0.481185    1.202846
     22          1           0        7.881550    1.832735    0.638689
     23          1           0        7.982814    1.376984   -1.068629
     24          1           0        9.049488    0.606384    0.117833
     25          6           0        4.489899   -0.650185    0.182824
     26          6           0        3.065222   -0.140624   -0.037697
     27          6           0        2.008784   -1.222562    0.188456
     28          1           0        4.678465   -1.495208   -0.493766
     29          1           0        4.577995   -1.042697    1.205135
     30          1           0        2.980560    0.250895   -1.059539
     31          1           0        2.879868    0.704072    0.638133
     32          1           0        2.064326   -1.607273    1.211936
     33          1           0        2.165590   -2.063024   -0.495382
     34          1           0        0.997652   -0.836673    0.025474
 ---------------------------------------------------------------------

 SCF Done:  E(RHF) =  -669.536934804     A.U. after   15 cycles
 E2 =    -0.2091387722D+01 EUMP2 =    -0.67162832252649D+03

 The electronic state is 1-A.
 Alpha  occ. eigenvalues --  -20.61107 -20.61100 -15.86089 -11.31373 -11.27922
 Alpha  occ. eigenvalues --  -11.27918 -11.27652 -11.26917 -11.26907 -11.20874
 Alpha  occ. eigenvalues --  -11.20474 -11.20467 -11.20223 -11.20058 -11.18993
 Alpha  occ. eigenvalues --   -1.60135  -1.39691  -1.19530  -1.08944  -1.07362
 Alpha  occ. eigenvalues --   -1.04917  -1.02341  -0.95793  -0.94766  -0.86319
 Alpha  occ. eigenvalues --   -0.85786  -0.82626  -0.78463  -0.77690  -0.77114
 Alpha  occ. eigenvalues --   -0.72289  -0.71435  -0.70638  -0.65183  -0.64920
 Alpha  occ. eigenvalues --   -0.64013  -0.62263  -0.59763  -0.58219  -0.56349
 Alpha  occ. eigenvalues --   -0.55418  -0.54096  -0.53252  -0.53007  -0.51461
 Alpha  occ. eigenvalues --   -0.51217  -0.49062  -0.48970  -0.48770  -0.46716
 Alpha  occ. eigenvalues --   -0.45548  -0.45112  -0.44652  -0.44572  -0.42518
 Alpha  occ. eigenvalues --   -0.37506  -0.36514
 Alpha virt. eigenvalues --    0.04839   0.11142   0.16351   0.21284   0.23831
 Alpha virt. eigenvalues --    0.25586   0.27207   0.27641   0.28168   0.28496
 Alpha virt. eigenvalues --    0.29309   0.30843   0.32404   0.32495   0.32706

 Mulliken charges:
               1
     1  C   -0.170382
     2  C   -0.218617
     3  C   -0.170639
     4  C    0.159613
     5  C   -0.170685
     6  C   -0.218635
     7  H    0.226279
     8  H    0.224141
     9  H    0.276243
    10  H    0.276055
    11  H    0.224100
    12  N    0.488099
    13  O   -0.459330
    14  O   -0.457340
    15  C   -0.297123
    16  C   -0.298697
    17  C   -0.475060
    18  H    0.148499
    19  H    0.147942
    20  H    0.150778
    21  H    0.150516
    22  H    0.154143
    23  H    0.154362
    24  H    0.157885
    25  C   -0.296918
    26  C   -0.297700
    27  C   -0.487403
    28  H    0.146960
    29  H    0.146430
    30  H    0.150804
    31  H    0.149495
    32  H    0.144730
    33  H    0.148067
    34  H    0.193387
 Sum of Mulliken charges =  -0.00000

 Dipole moment (field-independent basis, Debye):
    X=             -5.6770    Y=              0.6415    Z=              0.6659  Tot=              5.7518
 Quadrupole moment (field-independent basis, Debye-Ang):
   XX=            -59.7110   YY=            -90.2705   ZZ=            -94.9602
   XY=             -2.3504   XZ=             -2.3298   YZ=              0.5107

 Normal termination of Gaussian 16 at Thu May  6 20:57:30 2021.
