 Gaussian 16, Revision A.03,
 Gaussian 16:  EM64L-G16RevA.03 25-Dec-2016

 -------------
 #p 6-31g* mp2
 -------------

 ------------------------------------------------------
 Input file generated by CHIRIPA (05-May-2021 14:51:11)
 ------------------------------------------------------
 Symbolic Z-matrix:
 Charge =  0 Multiplicity = 1

                         Standard orientation:
 ---------------------------------------------------------------------
 Center     Atomic      Atomic             Coordinates (Angstroms)
 Number     Number       Type             X           Y           Z
 ---------------------------------------------------------------------
      1          6           0       -2.977345    0.343356    0.237702
      2          6           0       -3.758606    0.634065   -1.044135
      3          6           0       -4.426457    2.009411   -1.030332
      4          1           0       -3.657156    0.413824    1.097839
      5          1           0       -2.214061    1.121243    0.378007
      6          1           0       -4.519276   -0.144905   -1.182709
      7          1           0       -3.076897    0.562708   -1.901338
      8          1           0       -3.677792    2.800083   -0.916576
      9          1           0       -5.128366    2.088449   -0.193864
     10          1           0       -4.979470    2.196478   -1.956098
     11          6           0       -2.303996   -1.027895    0.238966
     12          6           0       -1.522736   -1.318603    1.520802
     13          6           0       -0.854884   -2.693950    1.507000
     14          1           0       -3.067280   -1.805781    0.098661
     15          1           0       -1.624185   -1.098363   -0.621171
     16          1           0       -2.204444   -1.247247    2.378006
     17          1           0       -0.762066   -0.539633    1.659377
     18          1           0       -0.152975   -2.772987    0.670532
     19          1           0       -1.603549   -3.484621    1.393244
     20          1           0       -0.301872   -2.881017    2.432766
     21          6           0        2.349025    0.901152    0.192972
     22          6           0        3.153536    2.199816    0.128028
     23          6           0        2.557588    3.308436    0.996132
     24          1           0        1.316027    1.101027   -0.123114
     25          1           0        2.296456    0.562387    1.236941
     26          1           0        3.205746    2.535293   -0.915689
     27          1           0        4.184787    1.996787    0.444123
     28          1           0        2.520527    2.998190    2.045405
     29          1           0        1.535922    3.539756    0.677868
     30          1           0        3.148372    4.227715    0.934825
     31          6           0        2.932316   -0.216614   -0.669640
     32          6           0        2.127805   -1.515278   -0.604696
     33          6           0        2.723754   -2.623897   -1.472799
     34          1           0        2.984885    0.122151   -1.713608
     35          1           0        3.965314   -0.416489   -0.353554
     36          1           0        1.096554   -1.312248   -0.920790
     37          1           0        2.075596   -1.850755    0.439021
     38          1           0        3.745419   -2.855217   -1.154535
     39          1           0        2.760814   -2.313651   -2.522074
     40          1           0        2.132970   -3.543177   -1.411493
 ---------------------------------------------------------------------

 SCF Done:  E(RHF) =  -470.732528041     A.U. after   11 cycles
 E2 =    -0.1584374938D+01 EUMP2 =    -0.47231690297890D+03

 The electronic state is 1-A.
 Alpha  occ. eigenvalues --  -11.21665 -11.21652 -11.21607 -11.21512 -11.21483
 Alpha  occ. eigenvalues --  -11.21420 -11.21390 -11.21328 -11.21136 -11.21123
 Alpha  occ. eigenvalues --  -11.21078 -11.20892  -1.08520  -1.08389  -1.03628
 Alpha  occ. eigenvalues --   -1.03461  -0.96056  -0.95928  -0.87068  -0.86949
 Alpha  occ. eigenvalues --   -0.79752  -0.79490  -0.78349  -0.78203  -0.65178
 Alpha  occ. eigenvalues --   -0.64998  -0.61001  -0.60934  -0.59419  -0.59290
 Alpha  occ. eigenvalues --   -0.57741  -0.57489  -0.55333  -0.55212  -0.52735
 Alpha  occ. eigenvalues --   -0.52627  -0.52471  -0.52357  -0.50026  -0.49876
 Alpha  occ. eigenvalues --   -0.48101  -0.47785  -0.46708  -0.46546  -0.46040
 Alpha  occ. eigenvalues --   -0.45778  -0.45647  -0.45464  -0.43848  -0.43746
 Alpha virt. eigenvalues --    0.20087   0.23081   0.23472   0.24473   0.25234
 Alpha virt. eigenvalues --    0.26217   0.26517   0.27650   0.28743   0.30006
 Alpha virt. eigenvalues --    0.30432   0.30879   0.31619   0.31835   0.31963

 Mulliken charges:
               1
     1  C   -0.298588
     2  C   -0.299579
     3  C   -0.475635
     4  H    0.149929
     5  H    0.149378
     6  H    0.152079
     7  H    0.151367
     8  H    0.154961
     9  H    0.155342
    10  H    0.160223
    11  C   -0.301234
    12  C   -0.301364
    13  C   -0.482413
    14  H    0.149608
    15  H    0.151072
    16  H    0.151577
    17  H    0.154582
    18  H    0.165612
    19  H    0.153718
    20  H    0.158215
    21  C   -0.299939
    22  C   -0.299759
    23  C   -0.475720
    24  H    0.149658
    25  H    0.150283
    26  H    0.152117
    27  H    0.152323
    28  H    0.155420
    29  H    0.154885
    30  H    0.160594
    31  C   -0.297352
    32  C   -0.307790
    33  C   -0.477230
    34  H    0.149466
    35  H    0.150033
    36  H    0.155028
    37  H    0.156643
    38  H    0.155833
    39  H    0.155473
    40  H    0.161186
 Sum of Mulliken charges =  -0.00000

 Dipole moment (field-independent basis, Debye):
    X=              0.0616    Y=              0.0031    Z=             -0.0105  Tot=              0.0626
 Quadrupole moment (field-independent basis, Debye-Ang):
   XX=            -84.0669   YY=            -86.2960   ZZ=            -84.4044
   XY=              0.8821   XZ=              0.2503   YZ=             -0.7269

 Normal termination of Gaussian 16 at Thu May  6 03:51:49 2021.
