 Gaussian 16, Revision A.03,
 Gaussian 16:  EM64L-G16RevA.03 25-Dec-2016

 -------------
 #p 6-31g* mp2
 -------------

 ------------------------------------------------------
 Input file generated by CHIRIPA (05-May-2021 14:57:26)
 ------------------------------------------------------
 Symbolic Z-matrix:
 Charge =  0 Multiplicity = 1

                         Standard orientation:
 ---------------------------------------------------------------------
 Center     Atomic      Atomic             Coordinates (Angstroms)
 Number     Number       Type             X           Y           Z
 ---------------------------------------------------------------------
      1          6           0        5.962854   -1.439515   -0.779522
      2          6           0        4.616526   -1.646457   -1.097480
      3          6           0        3.641451   -0.732502   -0.687037
      4          6           0        4.049844    0.382534    0.043169
      5          6           0        5.383285    0.616507    0.375557
      6          6           0        6.341269   -0.310684   -0.045312
      7          1           0        6.713678   -2.154638   -1.102414
      8          1           0        4.319743   -2.522230   -1.667556
      9          1           0        2.592164   -0.868187   -0.919425
     10          1           0        5.648563    1.498922    0.945109
     11          1           0        7.386111   -0.147400    0.203061
     12          7           0        3.026622    1.357102    0.483206
     13          8           0        3.412226    2.331513    1.125443
     14          8           0        1.858391    1.128105    0.177537
     15          6           0       -2.148597   -1.367381    0.906508
     16          6           0       -3.412936   -1.774414    1.345018
     17          6           0       -4.566668   -1.146910    0.865756
     18          6           0       -4.418592   -0.111174   -0.055446
     19          6           0       -3.172847    0.317117   -0.511489
     20          6           0       -2.032792   -0.324753   -0.018715
     21          1           0       -1.257664   -1.860421    1.284058
     22          1           0       -3.505897   -2.583850    2.063500
     23          1           0       -5.557783   -1.441946    1.188343
     24          1           0       -3.112043    1.126984   -1.228313
     25          1           0       -1.052179   -0.006541   -0.361038
     26          7           0       -5.632756    0.560741   -0.569970
     27          8           0       -5.475401    1.470709   -1.381040
     28          8           0       -6.718785    0.164697   -0.152442
 ---------------------------------------------------------------------

 SCF Done:  E(RHF) =  -868.339141287     A.U. after   16 cycles
 E2 =    -0.2598524590D+01 EUMP2 =    -0.87093766587710D+03

 The electronic state is 1-A.
 Alpha  occ. eigenvalues --  -20.61694 -20.61631 -20.60242 -20.60232 -15.86716
 Alpha  occ. eigenvalues --  -15.85286 -11.31926 -11.30554 -11.28521 -11.28435
 Alpha  occ. eigenvalues --  -11.28158 -11.27460 -11.27415 -11.27132 -11.27030
 Alpha  occ. eigenvalues --  -11.26814 -11.26162 -11.25940  -1.60724  -1.59316
 Alpha  occ. eigenvalues --   -1.40289  -1.38872  -1.20076  -1.18701  -1.09491
 Alpha  occ. eigenvalues --   -1.08118  -1.05459  -1.04073  -0.96357  -0.94976
 Alpha  occ. eigenvalues --   -0.86863  -0.85475  -0.83202  -0.81798  -0.78275
 Alpha  occ. eigenvalues --   -0.76856  -0.72944  -0.72036  -0.71508  -0.71180
 Alpha  occ. eigenvalues --   -0.70637  -0.69827  -0.65734  -0.65454  -0.64348
 Alpha  occ. eigenvalues --   -0.64041  -0.62816  -0.61405  -0.55947  -0.54599
 Alpha  occ. eigenvalues --   -0.53791  -0.53548  -0.52429  -0.52139  -0.49704
 Alpha  occ. eigenvalues --   -0.49653  -0.48268  -0.48255  -0.45727  -0.44299
 Alpha  occ. eigenvalues --   -0.38035  -0.37055  -0.36691  -0.35672
 Alpha virt. eigenvalues --    0.04264   0.05647   0.10602   0.11977   0.15796
 Alpha virt. eigenvalues --    0.17173   0.20455   0.22063   0.26134   0.27043
 Alpha virt. eigenvalues --    0.28536   0.28908   0.30313   0.31262   0.32314

 Mulliken charges:
               1
     1  C   -0.170178
     2  C   -0.218172
     3  C   -0.170753
     4  C    0.158655
     5  C   -0.170408
     6  C   -0.218195
     7  H    0.228038
     8  H    0.224690
     9  H    0.269347
    10  H    0.277393
    11  H    0.226000
    12  N    0.493440
    13  O   -0.454344
    14  O   -0.473925
    15  C   -0.172091
    16  C   -0.218564
    17  C   -0.172615
    18  C    0.158499
    19  C   -0.172435
    20  C   -0.223092
    21  H    0.223018
    22  H    0.220261
    23  H    0.273220
    24  H    0.276243
    25  H    0.241238
    26  N    0.488076
    27  O   -0.460716
    28  O   -0.462632
 Sum of Mulliken charges =  -0.00000

 Dipole moment (field-independent basis, Debye):
    X=              8.3704    Y=             -5.7129    Z=              0.2531  Tot=             10.1373
 Quadrupole moment (field-independent basis, Debye-Ang):
   XX=           -109.4558   YY=           -104.5579   ZZ=           -103.8996
   XY=              1.2992   XZ=            -14.4043   YZ=             -1.1650

 Normal termination of Gaussian 16 at Fri May  7 05:05:14 2021.
