 Gaussian 16, Revision A.03,
 Gaussian 16:  EM64L-G16RevA.03 25-Dec-2016

 -------------
 #p 6-31g* mp2
 -------------

 ------------------------------------------------------
 Input file generated by CHIRIPA (05-May-2021 14:55:25)
 ------------------------------------------------------
 Symbolic Z-matrix:
 Charge =  0 Multiplicity = 1

                         Standard orientation:
 ---------------------------------------------------------------------
 Center     Atomic      Atomic             Coordinates (Angstroms)
 Number     Number       Type             X           Y           Z
 ---------------------------------------------------------------------
      1          6           0        4.426475   -1.612538   -0.504685
      2          6           0        3.140583   -1.625221   -1.054996
      3          6           0        2.286606   -0.530752   -0.889436
      4          6           0        2.753153    0.564747   -0.164518
      5          6           0        4.028845    0.607406    0.395910
      6          6           0        4.865728   -0.498229    0.217738
      7          1           0        5.083226   -2.467085   -0.638194
      8          1           0        2.796780   -2.489247   -1.616515
      9          1           0        1.286282   -0.514079   -1.304757
     10          1           0        4.343392    1.483050    0.950641
     11          1           0        5.863862   -0.485603    0.646239
     12          7           0        1.858134    1.729323    0.017428
     13          8           0        2.292949    2.682352    0.660319
     14          8           0        0.738752    1.667036   -0.486297
     15          6           0       -4.193959    0.111922    0.178940
     16          6           0       -5.486857   -0.245016   -0.555222
     17          6           0       -6.439146    0.943878   -0.687410
     18          1           0       -4.441316    0.498171    1.177224
     19          1           0       -3.690137    0.928715   -0.356231
     20          1           0       -5.987393   -1.061828   -0.019595
     21          1           0       -5.236384   -0.630639   -1.551802
     22          1           0       -5.962621    1.759463   -1.240895
     23          1           0       -6.717898    1.325824    0.300019
     24          1           0       -7.356858    0.666413   -1.215309
     25          6           0       -3.231739   -1.066317    0.318994
     26          6           0       -1.938840   -0.709379    1.053155
     27          6           0       -0.986552   -1.898273    1.185343
     28          1           0       -3.735561   -1.883110    0.854165
     29          1           0       -2.984381   -1.452566   -0.679290
     30          1           0       -2.189314   -0.323756    2.049736
     31          1           0       -1.438304    0.107434    0.517530
     32          1           0       -0.707799   -2.280219    0.197916
     33          1           0       -1.463077   -2.713859    1.738829
     34          1           0       -0.068840   -1.620809    1.713243
 ---------------------------------------------------------------------

 SCF Done:  E(RHF) =  -669.536302186     A.U. after   15 cycles
 E2 =    -0.2091837308D+01 EUMP2 =    -0.67162813949344D+03

 The electronic state is 1-A.
 Alpha  occ. eigenvalues --  -20.60948 -20.60935 -15.85969 -11.31261 -11.27826
 Alpha  occ. eigenvalues --  -11.27822 -11.27557 -11.26826 -11.26814 -11.21161
 Alpha  occ. eigenvalues --  -11.20931 -11.20893 -11.20844 -11.20790 -11.20643
 Alpha  occ. eigenvalues --   -1.59998  -1.39557  -1.19429  -1.08838  -1.07916
 Alpha  occ. eigenvalues --   -1.04821  -1.03075  -0.95691  -0.95565  -0.86588
 Alpha  occ. eigenvalues --   -0.86221  -0.82523  -0.79115  -0.77722  -0.77565
 Alpha  occ. eigenvalues --   -0.72198  -0.71308  -0.70540  -0.65089  -0.64832
 Alpha  occ. eigenvalues --   -0.64536  -0.62178  -0.60465  -0.58925  -0.57163
 Alpha  occ. eigenvalues --   -0.55335  -0.54879  -0.53159  -0.52911  -0.52264
 Alpha  occ. eigenvalues --   -0.51991  -0.49520  -0.48960  -0.48945  -0.47449
 Alpha  occ. eigenvalues --   -0.46160  -0.45331  -0.45255  -0.44725  -0.43319
 Alpha  occ. eigenvalues --   -0.37404  -0.36407
 Alpha virt. eigenvalues --    0.04902   0.11203   0.16376   0.20825   0.23195
 Alpha virt. eigenvalues --    0.24328   0.26659   0.27471   0.27985   0.28249
 Alpha virt. eigenvalues --    0.28808   0.30815   0.31584   0.31928   0.32356

 Mulliken charges:
               1
     1  C   -0.170499
     2  C   -0.218639
     3  C   -0.168564
     4  C    0.157336
     5  C   -0.170919
     6  C   -0.218643
     7  H    0.225982
     8  H    0.223936
     9  H    0.276402
    10  H    0.275661
    11  H    0.223689
    12  N    0.489398
    13  O   -0.458580
    14  O   -0.461397
    15  C   -0.299522
    16  C   -0.299167
    17  C   -0.475615
    18  H    0.149627
    19  H    0.156838
    20  H    0.149808
    21  H    0.150197
    22  H    0.156912
    23  H    0.155075
    24  H    0.158229
    25  C   -0.296734
    26  C   -0.312963
    27  C   -0.474414
    28  H    0.145968
    29  H    0.145046
    30  H    0.151562
    31  H    0.177372
    32  H    0.144046
    33  H    0.153572
    34  H    0.158998
 Sum of Mulliken charges =  -0.00000

 Dipole moment (field-independent basis, Debye):
    X=              3.3044    Y=             -3.9150    Z=             -0.6508  Tot=              5.1643
 Quadrupole moment (field-independent basis, Debye-Ang):
   XX=            -75.8929   YY=            -99.6336   ZZ=            -93.1131
   XY=             -7.5130   XZ=             -0.6828   YZ=              1.8089

 Normal termination of Gaussian 16 at Thu May  6 04:48:17 2021.
