 Gaussian 16, Revision A.03,
 Gaussian 16:  EM64L-G16RevA.03 25-Dec-2016

 -------------
 #p 6-31g* mp2
 -------------

 ------------------------------------------------------
 Input file generated by CHIRIPA (05-May-2021 14:53:18)
 ------------------------------------------------------
 Symbolic Z-matrix:
 Charge =  0 Multiplicity = 1

                         Standard orientation:
 ---------------------------------------------------------------------
 Center     Atomic      Atomic             Coordinates (Angstroms)
 Number     Number       Type             X           Y           Z
 ---------------------------------------------------------------------
      1          6           0        3.803911   -0.724043    0.534318
      2          6           0        2.396107   -0.195248    0.257824
      3          6           0        1.307845   -1.029475    0.934245
      4          1           0        3.871569   -1.765402    0.190896
      5          1           0        3.975070   -0.741072    1.619587
      6          1           0        2.228157   -0.177918   -0.826661
      7          1           0        2.331851    0.845035    0.601770
      8          1           0        1.447452   -1.037223    2.020086
      9          1           0        1.343169   -2.065987    0.583539
     10          1           0        0.309424   -0.633812    0.723374
     11          6           0        4.902707    0.099453   -0.135183
     12          6           0        6.310511   -0.429342    0.141311
     13          6           0        7.398773    0.404885   -0.535110
     14          1           0        4.731549    0.116483   -1.220452
     15          1           0        4.835049    1.140812    0.208239
     16          1           0        6.374768   -1.469624   -0.202635
     17          1           0        6.478461   -0.446672    1.225796
     18          1           0        7.363449    1.441398   -0.184404
     19          1           0        7.259167    0.412633   -1.620951
     20          1           0        8.397194    0.009223   -0.324239
     21          6           0       -5.222799   -1.496010   -0.016297
     22          6           0       -5.358260   -0.284159    0.668968
     23          6           0       -4.355192    0.687169    0.598783
     24          6           0       -3.224900    0.412196   -0.169409
     25          6           0       -3.060705   -0.785501   -0.863565
     26          6           0       -4.076474   -1.742379   -0.779032
     27          1           0       -6.006939   -2.244947    0.043797
     28          1           0       -6.247417   -0.090096    1.262082
     29          1           0       -4.434268    1.633902    1.119227
     30          1           0       -2.162830   -0.950195   -1.446757
     31          1           0       -3.968569   -2.682622   -1.312273
     32          7           0       -2.156274    1.432848   -0.251305
     33          8           0       -1.170211    1.166317   -0.934883
     34          8           0       -2.324982    2.480041    0.369633
 ---------------------------------------------------------------------

 SCF Done:  E(RHF) =  -669.536208329     A.U. after   15 cycles
 E2 =    -0.2091253205D+01 EUMP2 =    -0.67162746153381D+03

 The electronic state is 1-A.
 Alpha  occ. eigenvalues --  -20.60953 -20.60946 -15.85964 -11.31273 -11.27834
 Alpha  occ. eigenvalues --  -11.27829 -11.27570 -11.26840 -11.26830 -11.21111
 Alpha  occ. eigenvalues --  -11.20762 -11.20677 -11.20639 -11.20602 -11.20245
 Alpha  occ. eigenvalues --   -1.60004  -1.39561  -1.19440  -1.08849  -1.07751
 Alpha  occ. eigenvalues --   -1.04834  -1.02836  -0.95694  -0.95320  -0.86354
 Alpha  occ. eigenvalues --   -0.86235  -0.82525  -0.78908  -0.77584  -0.77531
 Alpha  occ. eigenvalues --   -0.72190  -0.71320  -0.70549  -0.65097  -0.64838
 Alpha  occ. eigenvalues --   -0.64390  -0.62182  -0.60246  -0.58682  -0.56893
 Alpha  occ. eigenvalues --   -0.55340  -0.54638  -0.53165  -0.52927  -0.52027
 Alpha  occ. eigenvalues --   -0.51748  -0.49296  -0.48958  -0.48944  -0.47228
 Alpha  occ. eigenvalues --   -0.45948  -0.45086  -0.45004  -0.44933  -0.43080
 Alpha  occ. eigenvalues --   -0.37418  -0.36431
 Alpha virt. eigenvalues --    0.04927   0.11183   0.16392   0.21297   0.23481
 Alpha virt. eigenvalues --    0.24819   0.27206   0.27320   0.27885   0.28238
 Alpha virt. eigenvalues --    0.28807   0.30714   0.31867   0.32027   0.32468

 Mulliken charges:
               1
     1  C   -0.298467
     2  C   -0.295374
     3  C   -0.480183
     4  H    0.145554
     5  H    0.147086
     6  H    0.155562
     7  H    0.158560
     8  H    0.150862
     9  H    0.146533
    10  H    0.166173
    11  C   -0.297847
    12  C   -0.299034
    13  C   -0.475356
    14  H    0.149569
    15  H    0.151152
    16  H    0.150106
    17  H    0.150882
    18  H    0.155511
    19  H    0.154818
    20  H    0.158369
    21  C   -0.170515
    22  C   -0.218520
    23  C   -0.170774
    24  C    0.158151
    25  C   -0.171137
    26  C   -0.218446
    27  H    0.225960
    28  H    0.223761
    29  H    0.275742
    30  H    0.276398
    31  H    0.223920
    32  N    0.487778
    33  O   -0.458421
    34  O   -0.458373
 Sum of Mulliken charges =  -0.00000

 Dipole moment (field-independent basis, Debye):
    X=             -3.9912    Y=             -3.4493    Z=              0.2245  Tot=              5.2799
 Quadrupole moment (field-independent basis, Debye-Ang):
   XX=            -70.8982   YY=            -96.3778   ZZ=            -93.2298
   XY=              8.3908   XZ=             -1.8878   YZ=              3.7158

 Normal termination of Gaussian 16 at Thu May  6 12:20:21 2021.
