 Gaussian 16, Revision A.03,
 Gaussian 16:  EM64L-G16RevA.03 25-Dec-2016

 -------------
 #p 6-31g* mp2
 -------------

 ------------------------------------------------------
 Input file generated by CHIRIPA (05-May-2021 14:57:22)
 ------------------------------------------------------
 Symbolic Z-matrix:
 Charge =  0 Multiplicity = 1

                         Standard orientation:
 ---------------------------------------------------------------------
 Center     Atomic      Atomic             Coordinates (Angstroms)
 Number     Number       Type             X           Y           Z
 ---------------------------------------------------------------------
      1          6           0        4.384584   -1.968467    0.571368
      2          6           0        3.013053   -1.816120    0.342861
      3          6           0        2.485896   -0.569796   -0.008320
      4          6           0        3.363036    0.507627   -0.122671
      5          6           0        4.734152    0.387719    0.098584
      6          6           0        5.239249   -0.868001    0.448716
      7          1           0        4.785524   -2.940291    0.843766
      8          1           0        2.346940   -2.668999    0.437388
      9          1           0        1.428185   -0.423725   -0.190879
     10          1           0        5.373202    1.256427   -0.003294
     11          1           0        6.304826   -0.983367    0.625584
     12          7           0        2.816636    1.832028   -0.493895
     13          8           0        3.610474    2.765607   -0.588180
     14          8           0        1.604875    1.911438   -0.683546
     15          6           0       -1.798384   -2.129619   -0.429712
     16          6           0       -1.529896   -1.197460    0.578015
     17          6           0       -2.439535   -0.173616    0.858817
     18          6           0       -3.613061   -0.111439    0.108976
     19          6           0       -3.909088   -1.025166   -0.901351
     20          6           0       -2.985031   -2.040654   -1.164882
     21          1           0       -1.086154   -2.921721   -0.641138
     22          1           0       -0.609141   -1.264103    1.150564
     23          1           0       -2.256852    0.561273    1.633403
     24          1           0       -4.835480   -0.932944   -1.455166
     25          1           0       -3.196180   -2.763194   -1.948079
     26          7           0       -4.583687    0.968036    0.397107
     27          8           0       -5.610356    1.001041   -0.277797
     28          8           0       -4.299414    1.760683    1.292393
 ---------------------------------------------------------------------

 SCF Done:  E(RHF) =  -868.336545819     A.U. after   16 cycles
 E2 =    -0.2600503928D+01 EUMP2 =    -0.87093704974706D+03

 The electronic state is 1-A.
 Alpha  occ. eigenvalues --  -20.61207 -20.61200 -20.60676 -20.60663 -15.86267
 Alpha  occ. eigenvalues --  -15.85734 -11.31794 -11.31250 -11.28430 -11.28346
 Alpha  occ. eigenvalues --  -11.28153 -11.27876 -11.27866 -11.27779 -11.27531
 Alpha  occ. eigenvalues --  -11.27376 -11.27023 -11.26917  -1.60280  -1.59743
 Alpha  occ. eigenvalues --   -1.39829  -1.39292  -1.19989  -1.19475  -1.09346
 Alpha  occ. eigenvalues --   -1.08870  -1.05437  -1.04906  -0.96154  -0.95663
 Alpha  occ. eigenvalues --   -0.86818  -0.86323  -0.82997  -0.82492  -0.78031
 Alpha  occ. eigenvalues --   -0.77480  -0.72478  -0.71957  -0.71610  -0.71094
 Alpha  occ. eigenvalues --   -0.71061  -0.70637  -0.65651  -0.65470  -0.65150
 Alpha  occ. eigenvalues --   -0.64960  -0.62821  -0.62190  -0.55902  -0.55492
 Alpha  occ. eigenvalues --   -0.53735  -0.53584  -0.53173  -0.52990  -0.49250
 Alpha  occ. eigenvalues --   -0.49226  -0.48729  -0.48693  -0.45200  -0.44663
 Alpha  occ. eigenvalues --   -0.37958  -0.37499  -0.37045  -0.36479
 Alpha virt. eigenvalues --    0.04511   0.05073   0.10597   0.10971   0.15947
 Alpha virt. eigenvalues --    0.16468   0.18791   0.22062   0.25277   0.26968
 Alpha virt. eigenvalues --    0.28016   0.29360   0.30554   0.30969   0.32101

 Mulliken charges:
               1
     1  C   -0.170089
     2  C   -0.220342
     3  C   -0.178592
     4  C    0.159237
     5  C   -0.169314
     6  C   -0.218339
     7  H    0.226947
     8  H    0.215965
     9  H    0.276894
    10  H    0.278137
    11  H    0.225963
    12  N    0.487387
    13  O   -0.457720
    14  O   -0.458942
    15  C   -0.171243
    16  C   -0.222021
    17  C   -0.164469
    18  C    0.159139
    19  C   -0.168672
    20  C   -0.217690
    21  H    0.218848
    22  H    0.217408
    23  H    0.280112
    24  H    0.277079
    25  H    0.223733
    26  N    0.488291
    27  O   -0.460225
    28  O   -0.457482
 Sum of Mulliken charges =  -0.00000

 Dipole moment (field-independent basis, Debye):
    X=              5.3112    Y=             -8.2335    Z=              0.2758  Tot=              9.8018
 Quadrupole moment (field-independent basis, Debye-Ang):
   XX=           -109.3049   YY=           -108.6876   ZZ=           -103.9803
   XY=              1.8180   XZ=             11.0247   YZ=              2.5739

 Normal termination of Gaussian 16 at Thu May  6 12:55:19 2021.
