 Gaussian 16, Revision A.03,
 Gaussian 16:  EM64L-G16RevA.03 25-Dec-2016

 -------------
 #p 6-31g* mp2
 -------------

 ------------------------------------------------------
 Input file generated by CHIRIPA (05-May-2021 14:51:12)
 ------------------------------------------------------
 Symbolic Z-matrix:
 Charge =  0 Multiplicity = 1

                         Standard orientation:
 ---------------------------------------------------------------------
 Center     Atomic      Atomic             Coordinates (Angstroms)
 Number     Number       Type             X           Y           Z
 ---------------------------------------------------------------------
      1          6           0        2.724234   -1.112758    0.308731
      2          6           0        1.236042   -0.962905    0.626242
      3          6           0        0.559344   -2.299430    0.932143
      4          1           0        2.843482   -1.790277   -0.547829
      5          1           0        3.226991   -1.593098    1.159556
      6          1           0        0.736488   -0.481735   -0.224369
      7          1           0        1.120312   -0.285513    1.482024
      8          1           0        1.031270   -2.781762    1.794258
      9          1           0        0.645266   -2.979098    0.078170
     10          1           0       -0.503954   -2.169038    1.156319
     11          6           0        3.414648    0.214730    0.000784
     12          6           0        4.902840    0.064876   -0.316728
     13          6           0        5.579537    1.401401   -0.622629
     14          1           0        2.911891    0.695069   -0.850042
     15          1           0        3.295399    0.892248    0.857343
     16          1           0        5.018569   -0.612515   -1.172510
     17          1           0        5.402393   -0.416294    0.533883
     18          1           0        5.493615    2.081070    0.231344
     19          1           0        5.107611    1.883733   -1.484744
     20          1           0        6.642835    1.271009   -0.846805
     21          6           0       -2.804333   -0.238761   -0.355042
     22          6           0       -3.868003   -1.336160   -0.307016
     23          6           0       -3.322374   -2.706345   -0.710345
     24          1           0       -2.387832   -0.184829   -1.370208
     25          1           0       -1.973539   -0.513725    0.309467
     26          1           0       -4.697175   -1.058549   -0.970359
     27          1           0       -4.282156   -1.387358    0.708107
     28          1           0       -2.509171   -3.008927   -0.042703
     29          1           0       -2.926548   -2.678250   -1.730704
     30          1           0       -4.099447   -3.475960   -0.668972
     31          6           0       -3.334549    1.136790    0.045528
     32          6           0       -2.270877    2.234188   -0.002498
     33          6           0       -2.816507    3.604374    0.400831
     34          1           0       -4.165342    1.411754   -0.618981
     35          1           0       -3.751049    1.082857    1.060694
     36          1           0       -1.856726    2.285386   -1.017620
     37          1           0       -1.441707    1.956578    0.660845
     38          1           0       -3.212333    3.576279    1.421190
     39          1           0       -3.629711    3.906955   -0.266811
     40          1           0       -2.039434    4.373988    0.359458
 ---------------------------------------------------------------------

 SCF Done:  E(RHF) =  -470.732580214     A.U. after   11 cycles
 E2 =    -0.1583948756D+01 EUMP2 =    -0.47231652897001D+03

 The electronic state is 1-A.
 Alpha  occ. eigenvalues --  -11.21605 -11.21604 -11.21575 -11.21574 -11.21412
 Alpha  occ. eigenvalues --  -11.21370 -11.21352 -11.21305 -11.21084 -11.21073
 Alpha  occ. eigenvalues --  -11.21055 -11.21005  -1.08457  -1.08390  -1.03563
 Alpha  occ. eigenvalues --   -1.03486  -0.96000  -0.95951  -0.87021  -0.86964
 Alpha  occ. eigenvalues --   -0.79634  -0.79537  -0.78325  -0.78156  -0.65104
 Alpha  occ. eigenvalues --   -0.65035  -0.60998  -0.60890  -0.59480  -0.59206
 Alpha  occ. eigenvalues --   -0.57646  -0.57534  -0.55294  -0.55232  -0.52748
 Alpha  occ. eigenvalues --   -0.52632  -0.52468  -0.52334  -0.49974  -0.49852
 Alpha  occ. eigenvalues --   -0.47997  -0.47806  -0.46642  -0.46571  -0.45909
 Alpha  occ. eigenvalues --   -0.45758  -0.45682  -0.45508  -0.43766  -0.43748
 Alpha virt. eigenvalues --    0.21148   0.23114   0.23576   0.24510   0.26027
 Alpha virt. eigenvalues --    0.26204   0.26811   0.27429   0.28287   0.29570
 Alpha virt. eigenvalues --    0.30264   0.31256   0.31625   0.31978   0.32531

 Mulliken charges:
               1
     1  C   -0.298582
     2  C   -0.302099
     3  C   -0.481752
     4  H    0.149857
     5  H    0.149470
     6  H    0.155823
     7  H    0.150991
     8  H    0.155268
     9  H    0.156388
    10  H    0.164461
    11  C   -0.298279
    12  C   -0.299667
    13  C   -0.475698
    14  H    0.149800
    15  H    0.149539
    16  H    0.151961
    17  H    0.151910
    18  H    0.155168
    19  H    0.155208
    20  H    0.160258
    21  C   -0.307010
    22  C   -0.299508
    23  C   -0.480158
    24  H    0.148822
    25  H    0.159711
    26  H    0.151831
    27  H    0.151287
    28  H    0.160363
    29  H    0.154660
    30  H    0.159955
    31  C   -0.297585
    32  C   -0.300621
    33  C   -0.475690
    34  H    0.149371
    35  H    0.149268
    36  H    0.151430
    37  H    0.153442
    38  H    0.155059
    39  H    0.155111
    40  H    0.160236
 Sum of Mulliken charges =  -0.00000

 Dipole moment (field-independent basis, Debye):
    X=              0.0296    Y=             -0.0073    Z=              0.0009  Tot=              0.0305
 Quadrupole moment (field-independent basis, Debye-Ang):
   XX=            -85.3220   YY=            -86.6725   ZZ=            -82.9679
   XY=             -0.3287   XZ=              0.6184   YZ=             -0.1358

 Normal termination of Gaussian 16 at Wed May  5 19:54:18 2021.
