 Gaussian 16, Revision A.03,
 Gaussian 16:  EM64L-G16RevA.03 25-Dec-2016

 -------------
 #p 6-31g* mp2
 -------------

 ------------------------------------------------------
 Input file generated by CHIRIPA (05-May-2021 14:51:10)
 ------------------------------------------------------
 Symbolic Z-matrix:
 Charge =  0 Multiplicity = 1

                         Standard orientation:
 ---------------------------------------------------------------------
 Center     Atomic      Atomic             Coordinates (Angstroms)
 Number     Number       Type             X           Y           Z
 ---------------------------------------------------------------------
      1          6           0        2.936159    0.634924    0.425069
      2          6           0        3.138981   -0.874137    0.285130
      3          6           0        4.288677   -1.398427    1.146009
      4          1           0        3.866535    1.150547    0.150337
      5          1           0        2.745020    0.875899    1.479958
      6          1           0        3.328308   -1.112358   -0.769395
      7          1           0        2.207953   -1.386218    0.560043
      8          1           0        4.103551   -1.189574    2.204645
      9          1           0        5.230272   -0.914158    0.867653
     10          1           0        4.416032   -2.479324    1.030673
     11          6           0        1.790357    1.174006   -0.429482
     12          6           0        1.587535    2.683067   -0.289543
     13          6           0        0.437839    3.207357   -1.150422
     14          1           0        1.981495    0.933031   -1.484371
     15          1           0        0.859980    0.658383   -0.154749
     16          1           0        2.518562    3.195148   -0.564456
     17          1           0        1.398207    2.921287    0.764982
     18          1           0       -0.503757    2.723087   -0.872066
     19          1           0        0.622964    2.998504   -2.209058
     20          1           0        0.310483    4.288254   -1.035086
     21          6           0       -2.801572   -0.585288    0.540201
     22          6           0       -3.345785    0.787414    0.143332
     23          6           0       -4.220819    1.413125    1.229885
     24          1           0       -3.642764   -1.254788    0.766279
     25          1           0       -2.221576   -0.487695    1.468358
     26          1           0       -3.923428    0.687502   -0.784548
     27          1           0       -2.503206    1.453669   -0.082012
     28          1           0       -3.651705    1.541708    2.156263
     29          1           0       -5.079996    0.771188    1.449735
     30          1           0       -4.599234    2.393881    0.925288
     31          6           0       -1.924943   -1.223642   -0.535788
     32          6           0       -1.380730   -2.596344   -0.138919
     33          6           0       -0.505696   -3.222054   -1.225472
     34          1           0       -2.504940   -1.321235   -1.463945
     35          1           0       -1.083752   -0.554141   -0.761866
     36          1           0       -2.223310   -3.262598    0.086425
     37          1           0       -0.803088   -2.496431    0.788962
     38          1           0        0.353480   -2.580117   -1.445322
     39          1           0       -1.074812   -3.350638   -2.151850
     40          1           0       -0.127282   -4.202811   -0.920875
 ---------------------------------------------------------------------

 SCF Done:  E(RHF) =  -470.733022815     A.U. after   11 cycles
 E2 =    -0.1584709464D+01 EUMP2 =    -0.47231773227857D+03

 The electronic state is 1-A.
 Alpha  occ. eigenvalues --  -11.21666 -11.21665 -11.21633 -11.21603 -11.21476
 Alpha  occ. eigenvalues --  -11.21417 -11.21412 -11.21331 -11.21116 -11.21114
 Alpha  occ. eigenvalues --  -11.21093 -11.21024  -1.08520  -1.08428  -1.03596
 Alpha  occ. eigenvalues --   -1.03530  -0.96045  -0.95973  -0.87070  -0.86981
 Alpha  occ. eigenvalues --   -0.79672  -0.79589  -0.78434  -0.78153  -0.65356
 Alpha  occ. eigenvalues --   -0.64876  -0.61102  -0.60839  -0.59407  -0.59348
 Alpha  occ. eigenvalues --   -0.57678  -0.57569  -0.55440  -0.55171  -0.52727
 Alpha  occ. eigenvalues --   -0.52675  -0.52530  -0.52341  -0.50107  -0.49803
 Alpha  occ. eigenvalues --   -0.48070  -0.47842  -0.46818  -0.46637  -0.46285
 Alpha  occ. eigenvalues --   -0.45799  -0.45751  -0.45085  -0.43845  -0.43785
 Alpha virt. eigenvalues --    0.19421   0.21810   0.23714   0.24544   0.25648
 Alpha virt. eigenvalues --    0.26349   0.26824   0.27740   0.28087   0.29677
 Alpha virt. eigenvalues --    0.30911   0.31410   0.31582   0.31732   0.32149

 Mulliken charges:
               1
     1  C   -0.297643
     2  C   -0.302872
     3  C   -0.475744
     4  H    0.150164
     5  H    0.149417
     6  H    0.152341
     7  H    0.154494
     8  H    0.155186
     9  H    0.155406
    10  H    0.160778
    11  C   -0.306716
    12  C   -0.298862
    13  C   -0.483261
    14  H    0.149680
    15  H    0.156763
    16  H    0.152436
    17  H    0.151731
    18  H    0.161329
    19  H    0.155775
    20  H    0.160825
    21  C   -0.297698
    22  C   -0.307761
    23  C   -0.475214
    24  H    0.150040
    25  H    0.148515
    26  H    0.152602
    27  H    0.158301
    28  H    0.154900
    29  H    0.155397
    30  H    0.160548
    31  C   -0.306908
    32  C   -0.299941
    33  C   -0.478052
    34  H    0.149967
    35  H    0.157459
    36  H    0.152086
    37  H    0.151207
    38  H    0.158491
    39  H    0.154919
    40  H    0.159915
 Sum of Mulliken charges =  -0.00000

 Dipole moment (field-independent basis, Debye):
    X=              0.0248    Y=              0.0166    Z=             -0.0139  Tot=              0.0329
 Quadrupole moment (field-independent basis, Debye-Ang):
   XX=            -84.6318   YY=            -85.1986   ZZ=            -84.8025
   XY=              1.2513   XZ=             -0.1540   YZ=             -0.0502

 Normal termination of Gaussian 16 at Wed May  5 21:26:29 2021.
