 Gaussian 16, Revision A.03,
 Gaussian 16:  EM64L-G16RevA.03 25-Dec-2016

 -------------
 #p 6-31g* mp2
 -------------

 ------------------------------------------------------
 Input file generated by CHIRIPA (05-May-2021 14:55:25)
 ------------------------------------------------------
 Symbolic Z-matrix:
 Charge =  0 Multiplicity = 1

                         Standard orientation:
 ---------------------------------------------------------------------
 Center     Atomic      Atomic             Coordinates (Angstroms)
 Number     Number       Type             X           Y           Z
 ---------------------------------------------------------------------
      1          6           0        1.245441   -2.400365    0.067609
      2          6           0        2.623318   -2.637963    0.028598
      3          6           0        3.526741   -1.571839   -0.013296
      4          6           0        3.015304   -0.275028   -0.014956
      5          6           0        1.648038   -0.005937    0.023309
      6          6           0        0.763049   -1.087425    0.064845
      7          1           0        0.550800   -3.234523    0.100014
      8          1           0        3.000801   -3.656563    0.030644
      9          1           0        4.598343   -1.727219   -0.044028
     10          1           0        1.301779    1.020471    0.020204
     11          1           0       -0.306516   -0.899910    0.095085
     12          7           0        3.961959    0.861763   -0.059118
     13          8           0        3.486025    1.994954   -0.059680
     14          8           0        5.161958    0.598062   -0.092334
     15          6           0       -4.034288    0.012020    0.337006
     16          6           0       -5.094857   -0.613495   -0.569588
     17          6           0       -5.835301   -1.772158    0.099019
     18          1           0       -3.313851   -0.761705    0.635777
     19          1           0       -4.513626    0.366005    1.260221
     20          1           0       -4.613884   -0.964950   -1.491412
     21          1           0       -5.812745    0.161851   -0.866389
     22          1           0       -6.340993   -1.432443    1.008673
     23          1           0       -5.135320   -2.565646    0.380098
     24          1           0       -6.588779   -2.204566   -0.566681
     25          6           0       -3.285476    1.171685   -0.317352
     26          6           0       -2.224909    1.797199    0.589242
     27          6           0       -1.484464    2.955863   -0.079363
     28          1           0       -2.806138    0.817700   -1.240566
     29          1           0       -4.005914    1.945410   -0.616122
     30          1           0       -1.507020    1.021853    0.886043
     31          1           0       -2.705880    2.148654    1.511067
     32          1           0       -2.184444    3.749350   -0.360443
     33          1           0       -0.978772    2.616148   -0.989018
     34          1           0       -0.730986    3.388271    0.586335
 ---------------------------------------------------------------------

 SCF Done:  E(RHF) =  -669.535340462     A.U. after   15 cycles
 E2 =    -0.2092122351D+01 EUMP2 =    -0.67162746281364D+03

 The electronic state is 1-A.
 Alpha  occ. eigenvalues --  -20.60738 -20.60733 -15.85791 -11.31156 -11.27736
 Alpha  occ. eigenvalues --  -11.27708 -11.27480 -11.26751 -11.26721 -11.22441
 Alpha  occ. eigenvalues --  -11.22285 -11.22210 -11.22144 -11.21686 -11.21648
 Alpha  occ. eigenvalues --   -1.59814  -1.39367  -1.19333  -1.09214  -1.08730
 Alpha  occ. eigenvalues --   -1.04744  -1.04241  -0.96671  -0.95563  -0.87678
 Alpha  occ. eigenvalues --   -0.86136  -0.82403  -0.80305  -0.79025  -0.77444
 Alpha  occ. eigenvalues --   -0.72010  -0.71137  -0.70448  -0.65932  -0.64985
 Alpha  occ. eigenvalues --   -0.64722  -0.62262  -0.61469  -0.60019  -0.58274
 Alpha  occ. eigenvalues --   -0.55972  -0.55234  -0.53325  -0.53080  -0.53068
 Alpha  occ. eigenvalues --   -0.52849  -0.50605  -0.48773  -0.48764  -0.48599
 Alpha  occ. eigenvalues --   -0.47362  -0.46551  -0.46485  -0.44773  -0.44499
 Alpha  occ. eigenvalues --   -0.37318  -0.36338
 Alpha virt. eigenvalues --    0.05081   0.11301   0.16531   0.18301   0.22544
 Alpha virt. eigenvalues --    0.23399   0.24772   0.26032   0.26715   0.28603
 Alpha virt. eigenvalues --    0.29836   0.30770   0.31172   0.31303   0.32253

 Mulliken charges:
               1
     1  C   -0.171147
     2  C   -0.218717
     3  C   -0.170556
     4  C    0.158664
     5  C   -0.176604
     6  C   -0.225926
     7  H    0.225568
     8  H    0.223322
     9  H    0.275530
    10  H    0.281637
    11  H    0.230378
    12  N    0.487890
    13  O   -0.460249
    14  O   -0.460631
    15  C   -0.298469
    16  C   -0.300175
    17  C   -0.475674
    18  H    0.141478
    19  H    0.153441
    20  H    0.151515
    21  H    0.155129
    22  H    0.157104
    23  H    0.152734
    24  H    0.162544
    25  C   -0.300115
    26  C   -0.305345
    27  C   -0.480894
    28  H    0.148124
    29  H    0.154919
    30  H    0.143098
    31  H    0.157854
    32  H    0.160583
    33  H    0.154964
    34  H    0.168027
 Sum of Mulliken charges =  -0.00000

 Dipole moment (field-independent basis, Debye):
    X=             -3.5193    Y=             -3.8524    Z=              0.1498  Tot=              5.2201
 Quadrupole moment (field-independent basis, Debye-Ang):
   XX=           -111.1940   YY=            -90.5759   ZZ=            -95.6582
   XY=            -15.4221   XZ=              0.4241   YZ=              0.6574

 Normal termination of Gaussian 16 at Wed May  5 17:40:31 2021.
