 Gaussian 16, Revision A.03,
 Gaussian 16:  EM64L-G16RevA.03 25-Dec-2016

 -------------
 #p 6-31g* mp2
 -------------

 ------------------------------------------------------
 Input file generated by CHIRIPA (05-May-2021 14:57:23)
 ------------------------------------------------------
 Symbolic Z-matrix:
 Charge =  0 Multiplicity = 1

                         Standard orientation:
 ---------------------------------------------------------------------
 Center     Atomic      Atomic             Coordinates (Angstroms)
 Number     Number       Type             X           Y           Z
 ---------------------------------------------------------------------
      1          6           0        2.502186    2.113436    0.381462
      2          6           0        3.846881    2.001800    0.750046
      3          6           0        4.550462    0.816087    0.518514
      4          6           0        3.875192   -0.242895   -0.086348
      5          6           0        2.535997   -0.162458   -0.464998
      6          6           0        1.852182    1.032856   -0.223816
      7          1           0        1.963304    3.038255    0.565070
      8          1           0        4.354240    2.839362    1.220280
      9          1           0        5.591972    0.702494    0.793782
     10          1           0        2.057187   -1.014561   -0.931989
     11          1           0        0.807926    1.116707   -0.511120
     12          7           0        4.609580   -1.503238   -0.336569
     13          8           0        3.991913   -2.421699   -0.870941
     14          8           0        5.788954   -1.548770    0.006419
     15          6           0       -2.362950    2.102254   -0.351947
     16          6           0       -1.983017    1.180598    0.629239
     17          6           0       -2.746275    0.031810    0.857872
     18          6           0       -3.888653   -0.164662    0.083495
     19          6           0       -4.293269    0.735046   -0.901443
     20          6           0       -3.514832    1.876934   -1.112813
     21          1           0       -1.764137    2.991979   -0.522850
     22          1           0       -1.088938    1.352993    1.221647
     23          1           0       -2.475155   -0.698081    1.610979
     24          1           0       -5.189668    0.535888   -1.476093
     25          1           0       -3.812305    2.590987   -1.875495
     26          7           0       -4.704714   -1.377180    0.316402
     27          8           0       -5.706815   -1.527219   -0.379242
     28          8           0       -4.326790   -2.154553    1.190187
 ---------------------------------------------------------------------

 SCF Done:  E(RHF) =  -868.336652180     A.U. after   16 cycles
 E2 =    -0.2600651776D+01 EUMP2 =    -0.87093730395594D+03

 The electronic state is 1-A.
 Alpha  occ. eigenvalues --  -20.61289 -20.61284 -20.61150 -20.61144 -15.86350
 Alpha  occ. eigenvalues --  -15.86208 -11.31930 -11.31731 -11.28535 -11.28497
 Alpha  occ. eigenvalues --  -11.28399 -11.28316 -11.28305 -11.28183 -11.27646
 Alpha  occ. eigenvalues --  -11.27563 -11.27384 -11.27370  -1.60360  -1.60222
 Alpha  occ. eigenvalues --   -1.39907  -1.39770  -1.20141  -1.19931  -1.09520
 Alpha  occ. eigenvalues --   -1.09317  -1.05571  -1.05344  -0.96304  -0.96119
 Alpha  occ. eigenvalues --   -0.87012  -0.86720  -0.83121  -0.82935  -0.78136
 Alpha  occ. eigenvalues --   -0.77925  -0.72565  -0.72423  -0.71686  -0.71547
 Alpha  occ. eigenvalues --   -0.71278  -0.71078  -0.65852  -0.65743  -0.65582
 Alpha  occ. eigenvalues --   -0.65191  -0.62955  -0.62596  -0.56120  -0.55914
 Alpha  occ. eigenvalues --   -0.53976  -0.53760  -0.53610  -0.53305  -0.49342
 Alpha  occ. eigenvalues --   -0.49305  -0.49194  -0.49167  -0.45264  -0.45140
 Alpha  occ. eigenvalues --   -0.38170  -0.37960  -0.37186  -0.36916
 Alpha virt. eigenvalues --    0.04402   0.04587   0.10191   0.10677   0.15791
 Alpha virt. eigenvalues --    0.16073   0.19187   0.21813   0.25670   0.26966
 Alpha virt. eigenvalues --    0.27274   0.29163   0.30070   0.30565   0.31559

 Mulliken charges:
               1
     1  C   -0.174013
     2  C   -0.217660
     3  C   -0.170233
     4  C    0.159440
     5  C   -0.171763
     6  C   -0.227228
     7  H    0.220022
     8  H    0.224836
     9  H    0.277698
    10  H    0.279133
    11  H    0.225402
    12  N    0.487883
    13  O   -0.457964
    14  O   -0.458941
    15  C   -0.174732
    16  C   -0.225738
    17  C   -0.171117
    18  C    0.159351
    19  C   -0.169477
    20  C   -0.217562
    21  H    0.221921
    22  H    0.223905
    23  H    0.279549
    24  H    0.278753
    25  H    0.226159
    26  N    0.487943
    27  O   -0.458015
    28  O   -0.457552
 Sum of Mulliken charges =  -0.00000

 Dipole moment (field-independent basis, Debye):
    X=              0.1692    Y=              8.5087    Z=              0.0382  Tot=              8.5105
 Quadrupole moment (field-independent basis, Debye-Ang):
   XX=           -140.5484   YY=           -108.4819   ZZ=           -102.7333
   XY=              1.5851   XZ=             11.7489   YZ=             -0.4394

 Normal termination of Gaussian 16 at Thu May  6 21:09:12 2021.
