 Gaussian 16, Revision A.03,
 Gaussian 16:  EM64L-G16RevA.03 25-Dec-2016

 -------------
 #p 6-31g* mp2
 -------------

 ------------------------------------------------------
 Input file generated by CHIRIPA (05-May-2021 14:57:23)
 ------------------------------------------------------
 Symbolic Z-matrix:
 Charge =  0 Multiplicity = 1

                         Standard orientation:
 ---------------------------------------------------------------------
 Center     Atomic      Atomic             Coordinates (Angstroms)
 Number     Number       Type             X           Y           Z
 ---------------------------------------------------------------------
      1          6           0       -3.341062    2.567413    0.606680
      2          6           0       -3.665131    2.143346   -0.686250
      3          6           0       -3.588925    0.790277   -1.029683
      4          6           0       -3.183092   -0.115651   -0.050968
      5          6           0       -2.853646    0.275834    1.245757
      6          6           0       -2.937066    1.633950    1.566864
      7          1           0       -3.403063    3.620470    0.864795
      8          1           0       -3.979187    2.866057   -1.433982
      9          1           0       -3.834013    0.434603   -2.023084
     10          1           0       -2.543817   -0.468093    1.969634
     11          1           0       -2.684782    1.960417    2.571760
     12          7           0       -3.098597   -1.550755   -0.402728
     13          8           0       -2.738324   -2.329046    0.477672
     14          8           0       -3.394244   -1.870126   -1.552177
     15          6           0        1.262516   -1.687811    0.403272
     16          6           0        2.575642   -2.134459    0.584173
     17          6           0        3.655214   -1.274975    0.359765
     18          6           0        3.384038    0.030614   -0.046670
     19          6           0        2.086986    0.505248   -0.235533
     20          6           0        1.022801   -0.371703   -0.005284
     21          1           0        0.429854   -2.362263    0.579866
     22          1           0        2.764798   -3.156041    0.901406
     23          1           0        4.681718   -1.594613    0.492202
     24          1           0        1.929946    1.529148   -0.552369
     25          1           0        0.004051   -0.022090   -0.146572
     26          7           0        4.518788    0.949758   -0.287333
     27          8           0        4.253270    2.095308   -0.644894
     28          8           0        5.652236    0.507226   -0.113847
 ---------------------------------------------------------------------

 SCF Done:  E(RHF) =  -868.339608288     A.U. after   16 cycles
 E2 =    -0.2600335845D+01 EUMP2 =    -0.87093994413299D+03

 The electronic state is 1-A.
 Alpha  occ. eigenvalues --  -20.62040 -20.61975 -20.60587 -20.60576 -15.87033
 Alpha  occ. eigenvalues --  -15.85635 -11.32266 -11.30874 -11.28803 -11.28753
 Alpha  occ. eigenvalues --  -11.28425 -11.27722 -11.27695 -11.27471 -11.27433
 Alpha  occ. eigenvalues --  -11.26979 -11.26370 -11.26347  -1.61076  -1.59663
 Alpha  occ. eigenvalues --   -1.40629  -1.39221  -1.20413  -1.19026  -1.09811
 Alpha  occ. eigenvalues --   -1.08411  -1.05756  -1.04424  -0.96667  -0.95269
 Alpha  occ. eigenvalues --   -0.87153  -0.85814  -0.83484  -0.82119  -0.78570
 Alpha  occ. eigenvalues --   -0.77222  -0.73236  -0.72424  -0.71852  -0.71445
 Alpha  occ. eigenvalues --   -0.70987  -0.70023  -0.66027  -0.65709  -0.64663
 Alpha  occ. eigenvalues --   -0.64428  -0.63082  -0.61798  -0.56209  -0.54822
 Alpha  occ. eigenvalues --   -0.54131  -0.53806  -0.52750  -0.52456  -0.50015
 Alpha  occ. eigenvalues --   -0.49982  -0.48618  -0.48599  -0.46041  -0.44655
 Alpha  occ. eigenvalues --   -0.38362  -0.37377  -0.36940  -0.36043
 Alpha virt. eigenvalues --    0.03889   0.05332   0.10236   0.11635   0.15394
 Alpha virt. eigenvalues --    0.16872   0.20563   0.21781   0.26497   0.27154
 Alpha virt. eigenvalues --    0.27389   0.28761   0.30408   0.31107   0.32075

 Mulliken charges:
               1
     1  C   -0.170580
     2  C   -0.218333
     3  C   -0.172440
     4  C    0.152395
     5  C   -0.177727
     6  C   -0.217372
     7  H    0.230907
     8  H    0.228326
     9  H    0.278810
    10  H    0.276090
    11  H    0.228438
    12  N    0.488052
    13  O   -0.466146
    14  O   -0.453141
    15  C   -0.178064
    16  C   -0.219427
    17  C   -0.171320
    18  C    0.157722
    19  C   -0.173229
    20  C   -0.224926
    21  H    0.243573
    22  H    0.224563
    23  H    0.274431
    24  H    0.272139
    25  H    0.223143
    26  N    0.488267
    27  O   -0.463144
    28  O   -0.461007
 Sum of Mulliken charges =  -0.00000

 Dipole moment (field-independent basis, Debye):
    X=             -4.7022    Y=              1.8629    Z=              2.0776  Tot=              5.4678
 Quadrupole moment (field-independent basis, Debye-Ang):
   XX=           -128.1866   YY=           -103.5208   ZZ=           -101.0195
   XY=            -31.1945   XZ=              1.8354   YZ=             -2.2142

 Normal termination of Gaussian 16 at Fri May  7 09:31:41 2021.
