 Gaussian 16, Revision A.03,
 Gaussian 16:  EM64L-G16RevA.03 25-Dec-2016

 -------------
 #p 6-31g* mp2
 -------------

 ------------------------------------------------------
 Input file generated by CHIRIPA (05-May-2021 14:57:25)
 ------------------------------------------------------
 Symbolic Z-matrix:
 Charge =  0 Multiplicity = 1

                         Standard orientation:
 ---------------------------------------------------------------------
 Center     Atomic      Atomic             Coordinates (Angstroms)
 Number     Number       Type             X           Y           Z
 ---------------------------------------------------------------------
      1          6           0        0.760274   -2.534232    0.991466
      2          6           0        1.472058   -1.723935    1.882141
      3          6           0        2.251906   -0.664101    1.409766
      4          6           0        2.297460   -0.442061    0.034298
      5          6           0        1.599697   -1.231704   -0.878326
      6          6           0        0.826249   -2.285969   -0.383501
      7          1           0        0.156955   -3.355373    1.367138
      8          1           0        1.422688   -1.914398    2.950472
      9          1           0        2.813010   -0.021198    2.077041
     10          1           0        1.668578   -1.017172   -1.937878
     11          1           0        0.274523   -2.913621   -1.077543
     12          7           0        3.119662    0.676989   -0.477668
     13          8           0        3.143191    0.851780   -1.694028
     14          8           0        3.725007    1.358121    0.347107
     15          6           0       -3.424907   -1.481200   -0.691816
     16          6           0       -2.337591   -1.081598   -1.475771
     17          6           0       -1.630503    0.084409   -1.167546
     18          6           0       -2.039853    0.830259   -0.063267
     19          6           0       -3.118953    0.458388    0.737074
     20          6           0       -3.811436   -0.711290    0.410161
     21          1           0       -3.968517   -2.388408   -0.938512
     22          1           0       -2.035165   -1.677557   -2.332168
     23          1           0       -0.785017    0.416941   -1.757456
     24          1           0       -3.396803    1.073161    1.584582
     25          1           0       -4.655469   -1.019196    1.020772
     26          7           0       -1.299022    2.066601    0.272929
     27          8           0       -1.679604    2.706225    1.251027
     28          8           0       -0.351804    2.372611   -0.448024
 ---------------------------------------------------------------------

 SCF Done:  E(RHF) =  -868.334429270     A.U. after   16 cycles
 E2 =    -0.2605450539D+01 EUMP2 =    -0.87093987980836D+03

 The electronic state is 1-A.
 Alpha  occ. eigenvalues --  -20.60874 -20.60859 -20.60343 -20.60321 -15.85924
 Alpha  occ. eigenvalues --  -15.85407 -11.31442 -11.31109 -11.28082 -11.28075
 Alpha  occ. eigenvalues --  -11.27906 -11.27743 -11.27606 -11.27475 -11.27163
 Alpha  occ. eigenvalues --  -11.27112 -11.26877 -11.26757  -1.59940  -1.59381
 Alpha  occ. eigenvalues --   -1.39489  -1.38938  -1.19688  -1.19291  -1.09048
 Alpha  occ. eigenvalues --   -1.08619  -1.05178  -1.04731  -0.95847  -0.95409
 Alpha  occ. eigenvalues --   -0.86540  -0.86127  -0.82707  -0.82247  -0.77720
 Alpha  occ. eigenvalues --   -0.77232  -0.72141  -0.71635  -0.71292  -0.70830
 Alpha  occ. eigenvalues --   -0.70642  -0.70397  -0.65343  -0.65234  -0.64948
 Alpha  occ. eigenvalues --   -0.64730  -0.62573  -0.62042  -0.55648  -0.55244
 Alpha  occ. eigenvalues --   -0.53889  -0.53322  -0.52802  -0.52610  -0.48911
 Alpha  occ. eigenvalues --   -0.48880  -0.48409  -0.48360  -0.44865  -0.44276
 Alpha  occ. eigenvalues --   -0.37726  -0.37540  -0.37150  -0.35539
 Alpha virt. eigenvalues --    0.04796   0.05383   0.10449   0.11603   0.16067
 Alpha virt. eigenvalues --    0.17020   0.19796   0.21990   0.25498   0.27010
 Alpha virt. eigenvalues --    0.28201   0.29193   0.29552   0.31420   0.32050

 Mulliken charges:
               1
     1  C   -0.171693
     2  C   -0.218264
     3  C   -0.170925
     4  C    0.168109
     5  C   -0.182159
     6  C   -0.209269
     7  H    0.222435
     8  H    0.223808
     9  H    0.278886
    10  H    0.270625
    11  H    0.214226
    12  N    0.492751
    13  O   -0.461755
    14  O   -0.456164
    15  C   -0.173432
    16  C   -0.222076
    17  C   -0.162059
    18  C    0.157991
    19  C   -0.170743
    20  C   -0.220093
    21  H    0.223901
    22  H    0.217386
    23  H    0.277813
    24  H    0.276289
    25  H    0.223096
    26  N    0.487684
    27  O   -0.460074
    28  O   -0.456295
 Sum of Mulliken charges =   0.00000

 Dipole moment (field-independent basis, Debye):
    X=             -5.3354    Y=             -7.9751    Z=              0.7670  Tot=              9.6258
 Quadrupole moment (field-independent basis, Debye-Ang):
   XX=           -106.4228   YY=           -109.8428   ZZ=            -97.6584
   XY=             -1.0126   XZ=              5.4539   YZ=              0.0581

 Normal termination of Gaussian 16 at Thu May  6 22:51:16 2021.
