 Gaussian 16, Revision A.03,
 Gaussian 16:  EM64L-G16RevA.03 25-Dec-2016

 -------------
 #p 6-31g* mp2
 -------------

 ------------------------------------------------------
 Input file generated by CHIRIPA (05-May-2021 14:55:23)
 ------------------------------------------------------
 Symbolic Z-matrix:
 Charge =  0 Multiplicity = 1

                         Standard orientation:
 ---------------------------------------------------------------------
 Center     Atomic      Atomic             Coordinates (Angstroms)
 Number     Number       Type             X           Y           Z
 ---------------------------------------------------------------------
      1          6           0        1.290025    1.320018    1.479328
      2          6           0        0.868806    0.121588    0.893784
      3          6           0        1.776567   -0.691294    0.208408
      4          6           0        3.103980   -0.273284    0.127570
      5          6           0        3.554243    0.915176    0.700383
      6          6           0        2.629039    1.712295    1.380932
      7          1           0        0.578080    1.945361    2.009869
      8          1           0       -0.170472   -0.185573    0.968609
      9          1           0        1.477466   -1.623988   -0.254235
     10          1           0        4.596757    1.194887    0.609035
     11          1           0        2.958993    2.642497    1.834694
     12          7           0        4.074219   -1.125502   -0.595451
     13          8           0        5.238174   -0.734878   -0.652521
     14          8           0        3.652365   -2.167959   -1.091396
     15          6           0       -3.893824   -0.581043   -0.255753
     16          6           0       -5.130392   -0.924766    0.575354
     17          6           0       -5.368047   -2.431082    0.686369
     18          1           0       -4.004001   -1.011343   -1.260565
     19          1           0       -3.013285   -1.059905    0.194510
     20          1           0       -6.008123   -0.444262    0.124443
     21          1           0       -5.017343   -0.493434    1.578244
     22          1           0       -4.510299   -2.922791    1.156572
     23          1           0       -5.506708   -2.873339   -0.305489
     24          1           0       -6.256953   -2.654254    1.284618
     25          6           0       -3.643001    0.921084   -0.375884
     26          6           0       -2.406434    1.264807   -1.206990
     27          6           0       -2.168778    2.771124   -1.318005
     28          1           0       -4.523540    1.399947   -0.826147
     29          1           0       -3.532824    1.351384    0.628929
     30          1           0       -2.519482    0.833476   -2.209880
     31          1           0       -1.528703    0.784303   -0.756079
     32          1           0       -2.030117    3.213380   -0.326147
     33          1           0       -3.026527    3.262833   -1.788208
     34          1           0       -1.279872    2.994294   -1.916254
 ---------------------------------------------------------------------

 SCF Done:  E(RHF) =  -669.535214786     A.U. after   15 cycles
 E2 =    -0.2092006451D+01 EUMP2 =    -0.67162722123631D+03

 The electronic state is 1-A.
 Alpha  occ. eigenvalues --  -20.60781 -20.60776 -15.85836 -11.31219 -11.27796
 Alpha  occ. eigenvalues --  -11.27793 -11.27547 -11.26807 -11.26797 -11.22306
 Alpha  occ. eigenvalues --  -11.22226 -11.22165 -11.22109 -11.21744 -11.21574
 Alpha  occ. eigenvalues --   -1.59857  -1.39410  -1.19400  -1.09157  -1.08789
 Alpha  occ. eigenvalues --   -1.04809  -1.04182  -0.96631  -0.95619  -0.87645
 Alpha  occ. eigenvalues --   -0.86207  -0.82455  -0.80251  -0.78977  -0.77495
 Alpha  occ. eigenvalues --   -0.72054  -0.71180  -0.70502  -0.65877  -0.65051
 Alpha  occ. eigenvalues --   -0.64778  -0.62196  -0.61544  -0.59989  -0.58235
 Alpha  occ. eigenvalues --   -0.55935  -0.55306  -0.53305  -0.53131  -0.53046
 Alpha  occ. eigenvalues --   -0.52904  -0.50580  -0.48823  -0.48807  -0.48548
 Alpha  occ. eigenvalues --   -0.47290  -0.46490  -0.46441  -0.44811  -0.44455
 Alpha  occ. eigenvalues --   -0.37366  -0.36383
 Alpha virt. eigenvalues --    0.05039   0.11121   0.16463   0.19086   0.22832
 Alpha virt. eigenvalues --    0.23743   0.24651   0.26176   0.27230   0.28404
 Alpha virt. eigenvalues --    0.28945   0.31022   0.31207   0.31497   0.31707

 Mulliken charges:
               1
     1  C   -0.171620
     2  C   -0.218287
     3  C   -0.172417
     4  C    0.158490
     5  C   -0.170501
     6  C   -0.218538
     7  H    0.225994
     8  H    0.226401
     9  H    0.276190
    10  H    0.275833
    11  H    0.223685
    12  N    0.488122
    13  O   -0.460383
    14  O   -0.460186
    15  C   -0.298464
    16  C   -0.299926
    17  C   -0.476060
    18  H    0.153895
    19  H    0.141621
    20  H    0.154411
    21  H    0.150963
    22  H    0.154542
    23  H    0.157205
    24  H    0.162310
    25  C   -0.298781
    26  C   -0.305282
    27  C   -0.474634
    28  H    0.153416
    29  H    0.145193
    30  H    0.156502
    31  H    0.148664
    32  H    0.149256
    33  H    0.158073
    34  H    0.164313
 Sum of Mulliken charges =  -0.00000

 Dipole moment (field-independent basis, Debye):
    X=             -3.5080    Y=              3.0111    Z=              2.4703  Tot=              5.2417
 Quadrupole moment (field-independent basis, Debye-Ang):
   XX=           -112.6922   YY=            -95.6684   ZZ=            -93.8421
   XY=             12.8964   XZ=              9.1912   YZ=              0.5804

 Normal termination of Gaussian 16 at Thu May  6 03:06:00 2021.
