 Gaussian 16, Revision A.03,
 Gaussian 16:  EM64L-G16RevA.03 25-Dec-2016

 -------------
 #p 6-31g* mp2
 -------------

 ------------------------------------------------------
 Input file generated by CHIRIPA (05-May-2021 14:53:12)
 ------------------------------------------------------
 Symbolic Z-matrix:
 Charge =  0 Multiplicity = 1

                         Standard orientation:
 ---------------------------------------------------------------------
 Center     Atomic      Atomic             Coordinates (Angstroms)
 Number     Number       Type             X           Y           Z
 ---------------------------------------------------------------------
      1          6           0       -2.864453    0.728507    0.018929
      2          6           0       -3.378690    1.767033    1.016430
      3          6           0       -2.507114    3.022340    1.064977
      4          1           0       -1.835133    0.451876    0.285236
      5          1           0       -2.817482    1.182285   -0.980709
      6          1           0       -3.425989    1.311018    2.013640
      7          1           0       -4.406973    2.041081    0.747829
      8          1           0       -2.468896    3.503040    0.082089
      9          1           0       -1.482338    2.768829    1.355092
     10          1           0       -2.892885    3.751354    1.784406
     11          6           0       -3.725264   -0.532104   -0.041020
     12          6           0       -3.211028   -1.570630   -1.038521
     13          6           0       -4.082603   -2.825937   -1.087068
     14          1           0       -3.772235   -0.985882    0.958617
     15          1           0       -4.754585   -0.255474   -0.307327
     16          1           0       -2.182744   -1.844679   -0.769921
     17          1           0       -3.163728   -1.114615   -2.035732
     18          1           0       -5.107379   -2.572426   -1.377184
     19          1           0       -4.120821   -3.306637   -0.104181
     20          1           0       -3.696832   -3.554951   -1.806497
     21          6           0        2.679400   -2.287104    1.220668
     22          6           0        3.794302   -1.821395    0.515948
     23          6           0        3.747298   -0.598115   -0.159276
     24          6           0        2.563929    0.136972   -0.108546
     25          6           0        1.436397   -0.300118    0.584933
     26          6           0        1.506075   -1.526321    1.252855
     27          1           0        2.724721   -3.238512    1.742362
     28          1           0        4.706849   -2.410112    0.489225
     29          1           0        4.595656   -0.213835   -0.712479
     30          1           0        0.540715    0.309062    0.593386
     31          1           0        0.638681   -1.885508    1.799350
     32          7           0        2.502166    1.433551   -0.819509
     33          8           0        1.447804    2.062322   -0.759462
     34          8           0        3.509288    1.796487   -1.423348
 ---------------------------------------------------------------------

 SCF Done:  E(RHF) =  -669.535460638     A.U. after   15 cycles
 E2 =    -0.2091832437D+01 EUMP2 =    -0.67162729307542D+03

 The electronic state is 1-A.
 Alpha  occ. eigenvalues --  -20.60770 -20.60763 -15.85819 -11.31196 -11.27772
 Alpha  occ. eigenvalues --  -11.27761 -11.27520 -11.26796 -11.26785 -11.21835
 Alpha  occ. eigenvalues --  -11.21605 -11.21578 -11.21511 -11.21310 -11.20745
 Alpha  occ. eigenvalues --   -1.59842  -1.39395  -1.19375  -1.08767  -1.08570
 Alpha  occ. eigenvalues --   -1.04783  -1.03591  -0.96025  -0.95600  -0.87033
 Alpha  occ. eigenvalues --   -0.86180  -0.82432  -0.79655  -0.78389  -0.77466
 Alpha  occ. eigenvalues --   -0.72037  -0.71164  -0.70493  -0.65254  -0.65026
 Alpha  occ. eigenvalues --   -0.64772  -0.62141  -0.60990  -0.59408  -0.57628
 Alpha  occ. eigenvalues --   -0.55357  -0.55248  -0.53107  -0.52902  -0.52700
 Alpha  occ. eigenvalues --   -0.52410  -0.49966  -0.48799  -0.48792  -0.47950
 Alpha  occ. eigenvalues --   -0.46707  -0.45908  -0.45829  -0.44796  -0.43871
 Alpha  occ. eigenvalues --   -0.37356  -0.36382
 Alpha virt. eigenvalues --    0.05040   0.11255   0.16512   0.19573   0.22996
 Alpha virt. eigenvalues --    0.23657   0.25182   0.27052   0.27473   0.28107
 Alpha virt. eigenvalues --    0.30013   0.30231   0.31549   0.31728   0.31997

 Mulliken charges:
               1
     1  C   -0.300136
     2  C   -0.300730
     3  C   -0.475766
     4  H    0.141119
     5  H    0.157995
     6  H    0.147644
     7  H    0.152843
     8  H    0.162258
     9  H    0.158157
    10  H    0.158825
    11  C   -0.298263
    12  C   -0.299074
    13  C   -0.475629
    14  H    0.145622
    15  H    0.152109
    16  H    0.146494
    17  H    0.156136
    18  H    0.156930
    19  H    0.152792
    20  H    0.160691
    21  C   -0.170520
    22  C   -0.218926
    23  C   -0.169912
    24  C    0.158602
    25  C   -0.181116
    26  C   -0.222475
    27  H    0.225713
    28  H    0.223575
    29  H    0.275729
    30  H    0.289902
    31  H    0.223248
    32  N    0.486802
    33  O   -0.460288
    34  O   -0.460351
 Sum of Mulliken charges =  -0.00000

 Dipole moment (field-independent basis, Debye):
    X=              0.1813    Y=             -4.4465    Z=              2.3946  Tot=              5.0536
 Quadrupole moment (field-independent basis, Debye-Ang):
   XX=            -88.9405   YY=            -97.1073   ZZ=            -95.0990
   XY=            -13.5818   XZ=              5.5188   YZ=              0.4315

 Normal termination of Gaussian 16 at Wed May  5 21:44:09 2021.
