 Gaussian 16, Revision A.03,
 Gaussian 16:  EM64L-G16RevA.03 25-Dec-2016

 -------------
 #p 6-31g* mp2
 -------------

 ------------------------------------------------------
 Input file generated by CHIRIPA (05-May-2021 14:57:25)
 ------------------------------------------------------
 Symbolic Z-matrix:
 Charge =  0 Multiplicity = 1

                         Standard orientation:
 ---------------------------------------------------------------------
 Center     Atomic      Atomic             Coordinates (Angstroms)
 Number     Number       Type             X           Y           Z
 ---------------------------------------------------------------------
      1          6           0       -2.176686    2.296165    0.471130
      2          6           0       -2.096535    1.747277   -0.812933
      3          6           0       -2.630923    0.483159   -1.079357
      4          6           0       -3.241232   -0.207506   -0.033510
      5          6           0       -3.336772    0.312494    1.256358
      6          6           0       -2.795458    1.578287    1.499864
      7          1           0       -1.758870    3.278813    0.669193
      8          1           0       -1.616561    2.302518   -1.613794
      9          1           0       -2.582712    0.034519   -2.064150
     10          1           0       -3.821267   -0.264946    2.034334
     11          1           0       -2.859155    2.002075    2.498058
     12          7           0       -3.810631   -1.546658   -0.303430
     13          8           0       -4.343221   -2.134916    0.635153
     14          8           0       -3.713555   -1.982671   -1.448466
     15          6           0        5.443207   -0.994259    0.353253
     16          6           0        4.490829   -1.042798    1.376552
     17          6           0        3.215624   -0.502387    1.185880
     18          6           0        2.925437    0.081643   -0.046188
     19          6           0        3.852733    0.145414   -1.085104
     20          6           0        5.121686   -0.401354   -0.872148
     21          1           0        6.431389   -1.416532    0.510027
     22          1           0        4.737738   -1.502636    2.329248
     23          1           0        2.459282   -0.526366    1.960985
     24          1           0        3.577217    0.610330   -2.023912
     25          1           0        5.859319   -0.362233   -1.668648
     26          7           0        1.578743    0.657116   -0.259839
     27          8           0        1.347896    1.166137   -1.354482
     28          8           0        0.779552    0.588255    0.671391
 ---------------------------------------------------------------------

 SCF Done:  E(RHF) =  -868.338671111     A.U. after   16 cycles
 E2 =    -0.2600881727D+01 EUMP2 =    -0.87093955283772D+03

 The electronic state is 1-A.
 Alpha  occ. eigenvalues --  -20.61429 -20.61411 -20.59562 -20.59553 -15.86449
 Alpha  occ. eigenvalues --  -15.84596 -11.31612 -11.29548 -11.28162 -11.28149
 Alpha  occ. eigenvalues --  -11.27857 -11.27125 -11.27113 -11.26123 -11.25978
 Alpha  occ. eigenvalues --  -11.25690 -11.25091 -11.24843  -1.60488  -1.58644
 Alpha  occ. eigenvalues --   -1.40048  -1.38210  -1.19765  -1.17643  -1.09200
 Alpha  occ. eigenvalues --   -1.07123  -1.05137  -1.03003  -0.96069  -0.94049
 Alpha  occ. eigenvalues --   -0.86545  -0.84445  -0.82909  -0.80915  -0.77979
 Alpha  occ. eigenvalues --   -0.76010  -0.72684  -0.71795  -0.70871  -0.70836
 Alpha  occ. eigenvalues --   -0.69957  -0.68829  -0.65422  -0.65140  -0.63329
 Alpha  occ. eigenvalues --   -0.63049  -0.62487  -0.60406  -0.55654  -0.53569
 Alpha  occ. eigenvalues --   -0.53476  -0.53228  -0.51567  -0.51152  -0.49431
 Alpha  occ. eigenvalues --   -0.49147  -0.47606  -0.47547  -0.45501  -0.43710
 Alpha  occ. eigenvalues --   -0.37732  -0.36729  -0.35488  -0.34502
 Alpha virt. eigenvalues --    0.04523   0.06523   0.10929   0.13112   0.16073
 Alpha virt. eigenvalues --    0.18155   0.21091   0.23009   0.27009   0.27963
 Alpha virt. eigenvalues --    0.28922   0.29795   0.30671   0.32146   0.32520

 Mulliken charges:
               1
     1  C   -0.157280
     2  C   -0.196575
     3  C   -0.173783
     4  C    0.158488
     5  C   -0.173224
     6  C   -0.216017
     7  H    0.219073
     8  H    0.226357
     9  H    0.270003
    10  H    0.267981
    11  H    0.214988
    12  N    0.487894
    13  O   -0.466459
    14  O   -0.465056
    15  C   -0.169931
    16  C   -0.218373
    17  C   -0.170329
    18  C    0.158513
    19  C   -0.170480
    20  C   -0.218410
    21  H    0.227306
    22  H    0.225100
    23  H    0.275940
    24  H    0.274902
    25  H    0.224716
    26  N    0.488998
    27  O   -0.467773
    28  O   -0.456569
 Sum of Mulliken charges =  -0.00000

 Dipole moment (field-independent basis, Debye):
    X=              7.2978    Y=              2.8415    Z=              1.6685  Tot=              8.0072
 Quadrupole moment (field-independent basis, Debye-Ang):
   XX=            -91.7281   YY=           -108.3657   ZZ=            -96.5001
   XY=            -21.6324   XZ=             -3.7476   YZ=             -2.2387

 Normal termination of Gaussian 16 at Wed May  5 19:32:03 2021.
