 Gaussian 16, Revision A.03,
 Gaussian 16:  EM64L-G16RevA.03 25-Dec-2016

 -------------
 #p 6-31g* mp2
 -------------

 ------------------------------------------------------
 Input file generated by CHIRIPA (05-May-2021 14:51:10)
 ------------------------------------------------------
 Symbolic Z-matrix:
 Charge =  0 Multiplicity = 1

                         Standard orientation:
 ---------------------------------------------------------------------
 Center     Atomic      Atomic             Coordinates (Angstroms)
 Number     Number       Type             X           Y           Z
 ---------------------------------------------------------------------
      1          6           0        3.108711    0.617409   -0.006617
      2          6           0        3.344673   -0.524478    0.982524
      3          6           0        4.759723   -1.097355    0.897440
      4          1           0        3.298704    0.255758   -1.026448
      5          1           0        3.840226    1.414981    0.183543
      6          1           0        2.612044   -1.319061    0.791456
      7          1           0        3.153911   -0.160118    2.000104
      8          1           0        5.502739   -0.321691    1.109274
      9          1           0        4.957793   -1.487220   -0.106241
     10          1           0        4.906601   -1.912331    1.613052
     11          6           0        1.698614    1.200519    0.066436
     12          6           0        1.462652    2.342407   -0.922705
     13          6           0        0.047602    2.915284   -0.837621
     14          1           0        0.967099    0.402948   -0.123724
     15          1           0        1.508621    1.562171    1.086267
     16          1           0        1.653414    1.978046   -1.940285
     17          1           0        2.195282    3.136990   -0.731637
     18          1           0       -0.150467    3.305148    0.166060
     19          1           0       -0.695413    2.139620   -1.049455
     20          1           0       -0.099276    3.730260   -1.553233
     21          6           0       -1.662560   -1.059765   -0.136949
     22          6           0       -1.408951   -2.413873   -0.800319
     23          6           0        0.078395   -2.701205   -1.007770
     24          1           0       -1.217103   -0.267276   -0.753774
     25          1           0       -1.144029   -1.030840    0.831392
     26          1           0       -1.928945   -2.440754   -1.766497
     27          1           0       -1.855230   -3.203214   -0.181940
     28          1           0        0.607996   -2.701542   -0.049582
     29          1           0        0.533863   -1.934750   -1.643143
     30          1           0        0.236815   -3.674153   -1.483305
     31          6           0       -3.144765   -0.758163    0.077129
     32          6           0       -3.398374    0.595944    0.740500
     33          6           0       -4.885721    0.883276    0.947952
     34          1           0       -3.663297   -0.787089   -0.891211
     35          1           0       -3.590223   -1.550653    0.693955
     36          1           0       -2.952095    1.385286    0.122122
     37          1           0       -2.878381    0.622825    1.706678
     38          1           0       -5.341188    0.116822    1.583323
     39          1           0       -5.415322    0.883615   -0.010236
     40          1           0       -5.044140    1.856225    1.423487
 ---------------------------------------------------------------------

 SCF Done:  E(RHF) =  -470.731766348     A.U. after   11 cycles
 E2 =    -0.1585795329D+01 EUMP2 =    -0.47231756167769D+03

 The electronic state is 1-A.
 Alpha  occ. eigenvalues --  -11.21687 -11.21577 -11.21553 -11.21510 -11.21444
 Alpha  occ. eigenvalues --  -11.21381 -11.21290 -11.21193 -11.21179 -11.21058
 Alpha  occ. eigenvalues --  -11.21049 -11.21008  -1.08510  -1.08323  -1.03582
 Alpha  occ. eigenvalues --   -1.03472  -0.96038  -0.95917  -0.87070  -0.86924
 Alpha  occ. eigenvalues --   -0.79665  -0.79555  -0.78532  -0.77925  -0.65216
 Alpha  occ. eigenvalues --   -0.64912  -0.61023  -0.60849  -0.59417  -0.59293
 Alpha  occ. eigenvalues --   -0.57640  -0.57527  -0.55399  -0.55149  -0.52728
 Alpha  occ. eigenvalues --   -0.52622  -0.52549  -0.52287  -0.50020  -0.49846
 Alpha  occ. eigenvalues --   -0.48070  -0.47914  -0.46864  -0.46630  -0.46297
 Alpha  occ. eigenvalues --   -0.45683  -0.45646  -0.44720  -0.43827  -0.43703
 Alpha virt. eigenvalues --    0.20683   0.21942   0.23575   0.24375   0.25454
 Alpha virt. eigenvalues --    0.26125   0.26667   0.27660   0.28583   0.30134
 Alpha virt. eigenvalues --    0.30622   0.31382   0.31617   0.32132   0.32348

 Mulliken charges:
               1
     1  C   -0.296846
     2  C   -0.305259
     3  C   -0.475300
     4  H    0.148856
     5  H    0.148877
     6  H    0.157317
     7  H    0.151120
     8  H    0.154925
     9  H    0.155293
    10  H    0.159688
    11  C   -0.309466
    12  C   -0.299380
    13  C   -0.482036
    14  H    0.163519
    15  H    0.148384
    16  H    0.150553
    17  H    0.151817
    18  H    0.155966
    19  H    0.160085
    20  H    0.159916
    21  C   -0.306778
    22  C   -0.298931
    23  C   -0.481363
    24  H    0.155563
    25  H    0.151449
    26  H    0.152011
    27  H    0.152424
    28  H    0.159308
    29  H    0.155488
    30  H    0.161212
    31  C   -0.297201
    32  C   -0.303819
    33  C   -0.475600
    34  H    0.149110
    35  H    0.149694
    36  H    0.156890
    37  H    0.152014
    38  H    0.155000
    39  H    0.155032
    40  H    0.160469
 Sum of Mulliken charges =  -0.00000

 Dipole moment (field-independent basis, Debye):
    X=             -0.0617    Y=             -0.0446    Z=              0.0026  Tot=              0.0762
 Quadrupole moment (field-independent basis, Debye-Ang):
   XX=            -86.9574   YY=            -84.5473   ZZ=            -83.5149
   XY=              1.0022   XZ=              0.4024   YZ=              0.0614

 Normal termination of Gaussian 16 at Thu May  6 06:58:49 2021.
