 Gaussian 16, Revision A.03,
 Gaussian 16:  EM64L-G16RevA.03 25-Dec-2016

 -------------
 #p 6-31g* mp2
 -------------

 ------------------------------------------------------
 Input file generated by CHIRIPA (05-May-2021 14:53:14)
 ------------------------------------------------------
 Symbolic Z-matrix:
 Charge =  0 Multiplicity = 1

                         Standard orientation:
 ---------------------------------------------------------------------
 Center     Atomic      Atomic             Coordinates (Angstroms)
 Number     Number       Type             X           Y           Z
 ---------------------------------------------------------------------
      1          6           0       -3.482068   -0.366890    0.349846
      2          6           0       -3.080852   -1.837719    0.232915
      3          6           0       -1.624863   -2.086502    0.627883
      4          1           0       -2.820062    0.238689   -0.284162
      5          1           0       -3.318876   -0.030558    1.383115
      6          1           0       -3.246056   -2.171558   -0.799498
      7          1           0       -3.744013   -2.439889    0.867126
      8          1           0       -1.449151   -1.780430    1.664245
      9          1           0       -0.948364   -1.510574   -0.011849
     10          1           0       -1.359345   -3.144368    0.536896
     11          6           0       -4.934813   -0.102262   -0.041602
     12          6           0       -5.336030    1.368567    0.075329
     13          6           0       -6.792018    1.617349   -0.319639
     14          1           0       -5.098005   -0.438594   -1.074871
     15          1           0       -5.596820   -0.707841    0.592406
     16          1           0       -4.672869    1.970737   -0.558883
     17          1           0       -5.170826    1.702405    1.107742
     18          1           0       -7.468517    1.041421    0.320093
     19          1           0       -6.967730    1.311277   -1.356001
     20          1           0       -7.057537    2.675216   -0.228652
     21          6           0        3.884339    2.608119    0.240408
     22          6           0        2.643516    2.266524   -0.307489
     23          6           0        2.302352    0.926229   -0.511850
     24          6           0        3.230178   -0.051164   -0.155290
     25          6           0        4.474326    0.257357    0.392612
     26          6           0        4.794180    1.604215    0.588098
     27          1           0        4.141086    3.651842    0.395713
     28          1           0        1.934949    3.044057   -0.578448
     29          1           0        1.348707    0.633700   -0.934234
     30          1           0        5.159876   -0.539968    0.652827
     31          1           0        5.758549    1.866560    1.013789
     32          7           0        2.880282   -1.473548   -0.366939
     33          8           0        3.715247   -2.315853   -0.044460
     34          8           0        1.777696   -1.719175   -0.851302
 ---------------------------------------------------------------------

 SCF Done:  E(RHF) =  -669.535838992     A.U. after   15 cycles
 E2 =    -0.2090979064D+01 EUMP2 =    -0.67162681805618D+03

 The electronic state is 1-A.
 Alpha  occ. eigenvalues --  -20.60858 -20.60849 -15.85890 -11.31238 -11.27811
 Alpha  occ. eigenvalues --  -11.27801 -11.27546 -11.26820 -11.26810 -11.21510
 Alpha  occ. eigenvalues --  -11.21165 -11.21071 -11.20999 -11.20966 -11.20048
 Alpha  occ. eigenvalues --   -1.59916  -1.39473  -1.19410  -1.08808  -1.08117
 Alpha  occ. eigenvalues --   -1.04811  -1.03121  -0.95656  -0.95535  -0.86556
 Alpha  occ. eigenvalues --   -0.86211  -0.82482  -0.79205  -0.77926  -0.77526
 Alpha  occ. eigenvalues --   -0.72118  -0.71230  -0.70521  -0.65068  -0.64817
 Alpha  occ. eigenvalues --   -0.64751  -0.62162  -0.60515  -0.58960  -0.57158
 Alpha  occ. eigenvalues --   -0.55315  -0.54828  -0.53140  -0.52906  -0.52198
 Alpha  occ. eigenvalues --   -0.51977  -0.49514  -0.48873  -0.48855  -0.47508
 Alpha  occ. eigenvalues --   -0.46265  -0.45479  -0.45391  -0.44793  -0.43378
 Alpha  occ. eigenvalues --   -0.37388  -0.36413
 Alpha virt. eigenvalues --    0.04980   0.11235   0.16458   0.21091   0.23090
 Alpha virt. eigenvalues --    0.24435   0.26264   0.27279   0.27633   0.27991
 Alpha virt. eigenvalues --    0.28964   0.30458   0.31607   0.32063   0.32485

 Mulliken charges:
               1
     1  C   -0.296468
     2  C   -0.300638
     3  C   -0.478554
     4  H    0.144016
     5  H    0.147616
     6  H    0.152159
     7  H    0.149480
     8  H    0.148017
     9  H    0.167938
    10  H    0.166039
    11  C   -0.297820
    12  C   -0.298930
    13  C   -0.475451
    14  H    0.149779
    15  H    0.149985
    16  H    0.149159
    17  H    0.150914
    18  H    0.155602
    19  H    0.155331
    20  H    0.158843
    21  C   -0.170673
    22  C   -0.218636
    23  C   -0.170529
    24  C    0.158423
    25  C   -0.170904
    26  C   -0.218551
    27  H    0.225805
    28  H    0.223764
    29  H    0.275567
    30  H    0.275741
    31  H    0.223630
    32  N    0.490301
    33  O   -0.459542
    34  O   -0.461413
 Sum of Mulliken charges =  -0.00000

 Dipole moment (field-independent basis, Debye):
    X=              1.4203    Y=              4.9321    Z=              0.7110  Tot=              5.1816
 Quadrupole moment (field-independent basis, Debye-Ang):
   XX=            -84.4143   YY=            -95.3912   ZZ=            -94.3293
   XY=             15.4626   XZ=              3.7697   YZ=             -1.3752

 Normal termination of Gaussian 16 at Thu May  6 04:12:19 2021.
