 Gaussian 16, Revision A.03,
 Gaussian 16:  EM64L-G16RevA.03 25-Dec-2016

 -------------
 #p 6-31g* mp2
 -------------

 ------------------------------------------------------
 Input file generated by CHIRIPA (05-May-2021 14:55:20)
 ------------------------------------------------------
 Symbolic Z-matrix:
 Charge =  0 Multiplicity = 1

                         Standard orientation:
 ---------------------------------------------------------------------
 Center     Atomic      Atomic             Coordinates (Angstroms)
 Number     Number       Type             X           Y           Z
 ---------------------------------------------------------------------
      1          6           0        0.760484   -1.897729    1.249629
      2          6           0        0.443386   -1.393255   -0.015865
      3          6           0        1.363527   -0.609955   -0.718952
      4          6           0        2.597009   -0.349591   -0.123954
      5          6           0        2.942428   -0.837839    1.135248
      6          6           0        2.006795   -1.618903    1.820141
      7          1           0        0.039679   -2.505347    1.788737
      8          1           0       -0.523753   -1.608182   -0.461391
      9          1           0        1.144059   -0.206726   -1.700103
     10          1           0        3.914560   -0.606594    1.553463
     11          1           0        2.255785   -2.009355    2.802788
     12          7           0        3.579321    0.478470   -0.858650
     13          8           0        4.659234    0.693503   -0.312585
     14          8           0        3.250745    0.896791   -1.966658
     15          6           0       -2.914256    1.104067    0.560554
     16          6           0       -2.063478    2.275552    0.068842
     17          6           0       -1.665886    3.230864    1.194496
     18          1           0       -3.817896    1.494694    1.048192
     19          1           0       -2.356885    0.553003    1.330659
     20          1           0       -2.621733    2.823424   -0.701095
     21          1           0       -1.161851    1.882086   -0.417851
     22          1           0       -1.087030    2.704313    1.960177
     23          1           0       -2.555207    3.650998    1.675325
     24          1           0       -1.058191    4.060861    0.820769
     25          6           0       -3.319630    0.140261   -0.553213
     26          6           0       -4.170410   -1.031225   -0.061501
     27          6           0       -4.568001   -1.986537   -1.187154
     28          1           0       -3.877002    0.691324   -1.323319
     29          1           0       -2.415991   -0.250368   -1.040851
     30          1           0       -5.072036   -0.637759    0.425192
     31          1           0       -3.612154   -1.579096    0.708436
     32          1           0       -3.678680   -2.406671   -1.667984
     33          1           0       -5.146858   -1.459985   -1.952837
     34          1           0       -5.175696   -2.816535   -0.813428
 ---------------------------------------------------------------------

 SCF Done:  E(RHF) =  -669.535542161     A.U. after   15 cycles
 E2 =    -0.2092525958D+01 EUMP2 =    -0.67162806811885D+03

 The electronic state is 1-A.
 Alpha  occ. eigenvalues --  -20.60807 -20.60801 -15.85861 -11.31256 -11.27831
 Alpha  occ. eigenvalues --  -11.27822 -11.27571 -11.26845 -11.26833 -11.22450
 Alpha  occ. eigenvalues --  -11.22195 -11.21973 -11.21913 -11.21864 -11.21289
 Alpha  occ. eigenvalues --   -1.59882  -1.39434  -1.19431  -1.09092  -1.08815
 Alpha  occ. eigenvalues --   -1.04838  -1.04104  -0.96554  -0.95649  -0.87566
 Alpha  occ. eigenvalues --   -0.86233  -0.82484  -0.80189  -0.78883  -0.77524
 Alpha  occ. eigenvalues --   -0.72079  -0.71205  -0.70533  -0.65869  -0.65082
 Alpha  occ. eigenvalues --   -0.64753  -0.62175  -0.61499  -0.59931  -0.58151
 Alpha  occ. eigenvalues --   -0.55867  -0.55326  -0.53225  -0.53148  -0.53020
 Alpha  occ. eigenvalues --   -0.52873  -0.50499  -0.48843  -0.48832  -0.48488
 Alpha  occ. eigenvalues --   -0.47249  -0.46407  -0.46331  -0.44833  -0.44374
 Alpha  occ. eigenvalues --   -0.37404  -0.36421
 Alpha virt. eigenvalues --    0.04980   0.11132   0.16369   0.18796   0.23161
 Alpha virt. eigenvalues --    0.23471   0.25044   0.25933   0.27371   0.28472
 Alpha virt. eigenvalues --    0.29519   0.29934   0.31129   0.31488   0.31778

 Mulliken charges:
               1
     1  C   -0.172602
     2  C   -0.220860
     3  C   -0.172915
     4  C    0.158578
     5  C   -0.170798
     6  C   -0.218360
     7  H    0.226155
     8  H    0.229784
     9  H    0.276025
    10  H    0.275973
    11  H    0.223813
    12  N    0.488134
    13  O   -0.460221
    14  O   -0.460112
    15  C   -0.298264
    16  C   -0.300586
    17  C   -0.476347
    18  H    0.151856
    19  H    0.147268
    20  H    0.153521
    21  H    0.152235
    22  H    0.155448
    23  H    0.154883
    24  H    0.164475
    25  C   -0.300328
    26  C   -0.300393
    27  C   -0.475391
    28  H    0.154881
    29  H    0.140262
    30  H    0.156686
    31  H    0.144967
    32  H    0.150213
    33  H    0.159440
    34  H    0.162579
 Sum of Mulliken charges =  -0.00000

 Dipole moment (field-independent basis, Debye):
    X=             -3.5256    Y=             -2.8243    Z=              2.6086  Tot=              5.2165
 Quadrupole moment (field-independent basis, Debye-Ang):
   XX=           -109.8382   YY=            -93.5262   ZZ=            -93.2873
   XY=             -7.6580   XZ=             10.0376   YZ=             -1.6739

 Normal termination of Gaussian 16 at Thu May  6 09:18:11 2021.
