 Gaussian 16, Revision A.03,
 Gaussian 16:  EM64L-G16RevA.03 25-Dec-2016

 -------------
 #p 6-31g* mp2
 -------------

 ------------------------------------------------------
 Input file generated by CHIRIPA (05-May-2021 14:51:09)
 ------------------------------------------------------
 Symbolic Z-matrix:
 Charge =  0 Multiplicity = 1

                         Standard orientation:
 ---------------------------------------------------------------------
 Center     Atomic      Atomic             Coordinates (Angstroms)
 Number     Number       Type             X           Y           Z
 ---------------------------------------------------------------------
      1          6           0       -3.945091    0.393675   -0.258121
      2          6           0       -3.164450    1.312262    0.682509
      3          6           0       -1.969347    1.978950    0.000563
      4          1           0       -3.268879   -0.377332   -0.652114
      5          1           0       -4.292907    0.975820   -1.122717
      6          1           0       -2.819391    0.728861    1.545755
      7          1           0       -3.842644    2.081057    1.074457
      8          1           0       -2.299491    2.584736   -0.849513
      9          1           0       -1.270424    1.224857   -0.375538
     10          1           0       -1.425538    2.631137    0.691058
     11          6           0       -5.142810   -0.280123    0.409107
     12          6           0       -5.923450   -1.198710   -0.531523
     13          6           0       -7.118553   -1.865399    0.150423
     14          1           0       -4.794993   -0.862268    1.273703
     15          1           0       -5.819022    0.490884    0.803100
     16          1           0       -5.245256   -1.967505   -0.923471
     17          1           0       -6.268509   -0.615310   -1.394769
     18          1           0       -7.817476   -1.111306    0.526524
     19          1           0       -6.788409   -2.471184    1.000499
     20          1           0       -7.662363   -2.517585   -0.540072
     21          6           0        3.845482   -0.042681   -0.384323
     22          6           0        3.016841    1.168407    0.045334
     23          6           0        1.621995    1.182509   -0.580765
     24          1           0        3.933468   -0.048915   -1.479387
     25          1           0        3.309482   -0.961410   -0.108579
     26          1           0        3.554889    2.084576   -0.229899
     27          1           0        2.930979    1.171864    1.139514
     28          1           0        1.062842    0.285355   -0.296048
     29          1           0        1.690297    1.203253   -1.673242
     30          1           0        1.046842    2.056728   -0.260140
     31          6           0        5.242418   -0.070871    0.233337
     32          6           0        6.071059   -1.281958   -0.196319
     33          6           0        7.465905   -1.296059    0.429779
     34          1           0        5.778419    0.847858   -0.042408
     35          1           0        5.154432   -0.064637    1.328401
     36          1           0        6.156921   -1.285415   -1.290500
     37          1           0        5.533011   -2.198128    0.078912
     38          1           0        7.397604   -1.316805    1.522255
     39          1           0        8.025059   -0.398906    0.145061
     40          1           0        8.041058   -2.170280    0.109153
 ---------------------------------------------------------------------

 SCF Done:  E(RHF) =  -470.732240428     A.U. after   11 cycles
 E2 =    -0.1582725230D+01 EUMP2 =    -0.47231496565820D+03

 The electronic state is 1-A.
 Alpha  occ. eigenvalues --  -11.21593 -11.21580 -11.21557 -11.21528 -11.21387
 Alpha  occ. eigenvalues --  -11.21370 -11.21327 -11.21309 -11.21065 -11.21055
 Alpha  occ. eigenvalues --  -11.20978 -11.20907  -1.08413  -1.08385  -1.03535
 Alpha  occ. eigenvalues --   -1.03452  -0.96042  -0.95852  -0.87127  -0.86811
 Alpha  occ. eigenvalues --   -0.79693  -0.79435  -0.78237  -0.78188  -0.65059
 Alpha  occ. eigenvalues --   -0.65006  -0.60998  -0.60813  -0.59450  -0.59196
 Alpha  occ. eigenvalues --   -0.57596  -0.57511  -0.55420  -0.55083  -0.52959
 Alpha  occ. eigenvalues --   -0.52551  -0.52304  -0.52196  -0.50054  -0.49674
 Alpha  occ. eigenvalues --   -0.47932  -0.47811  -0.46695  -0.46476  -0.45793
 Alpha  occ. eigenvalues --   -0.45725  -0.45698  -0.45635  -0.43875  -0.43555
 Alpha virt. eigenvalues --    0.22520   0.22998   0.23728   0.24805   0.26335
 Alpha virt. eigenvalues --    0.26746   0.27042   0.27272   0.27657   0.29160
 Alpha virt. eigenvalues --    0.29261   0.31041   0.31598   0.31799   0.32302

 Mulliken charges:
               1
     1  C   -0.298382
     2  C   -0.299842
     3  C   -0.480776
     4  H    0.149452
     5  H    0.149493
     6  H    0.151247
     7  H    0.151244
     8  H    0.154201
     9  H    0.165474
    10  H    0.158163
    11  C   -0.298208
    12  C   -0.299602
    13  C   -0.475672
    14  H    0.149321
    15  H    0.149614
    16  H    0.151854
    17  H    0.151914
    18  H    0.155152
    19  H    0.155097
    20  H    0.160176
    21  C   -0.298494
    22  C   -0.300171
    23  C   -0.478922
    24  H    0.149550
    25  H    0.149206
    26  H    0.151711
    27  H    0.151647
    28  H    0.153211
    29  H    0.154745
    30  H    0.167774
    31  C   -0.298212
    32  C   -0.299587
    33  C   -0.475684
    34  H    0.149517
    35  H    0.149547
    36  H    0.151913
    37  H    0.151806
    38  H    0.155141
    39  H    0.155184
    40  H    0.160199
 Sum of Mulliken charges =  -0.00000

 Dipole moment (field-independent basis, Debye):
    X=              0.0146    Y=              0.0122    Z=             -0.0162  Tot=              0.0250
 Quadrupole moment (field-independent basis, Debye-Ang):
   XX=            -86.4751   YY=            -84.2386   ZZ=            -84.3623
   XY=             -0.5579   XZ=             -0.1669   YZ=             -0.4326

 Normal termination of Gaussian 16 at Thu May  6 02:08:49 2021.
