 Gaussian 16, Revision A.03,
 Gaussian 16:  EM64L-G16RevA.03 25-Dec-2016

 -------------
 #p 6-31g* mp2
 -------------

 ------------------------------------------------------
 Input file generated by CHIRIPA (05-May-2021 14:53:11)
 ------------------------------------------------------
 Symbolic Z-matrix:
 Charge =  0 Multiplicity = 1

                         Standard orientation:
 ---------------------------------------------------------------------
 Center     Atomic      Atomic             Coordinates (Angstroms)
 Number     Number       Type             X           Y           Z
 ---------------------------------------------------------------------
      1          6           0       -4.084220   -0.177761   -0.110121
      2          6           0       -3.857047   -1.621709   -0.558886
      3          6           0       -5.162895   -2.366129   -0.838873
      4          1           0       -4.710202   -0.175268    0.792700
      5          1           0       -4.651975    0.354851   -0.885604
      6          1           0       -3.288693   -2.151059    0.216600
      7          1           0       -3.231374   -1.620773   -1.460633
      8          1           0       -5.731329   -1.863425   -1.628033
      9          1           0       -5.788973   -2.396724    0.058730
     10          1           0       -4.977184   -3.396357   -1.158251
     11          6           0       -2.788146    0.579490    0.173589
     12          6           0       -3.015320    2.023438    0.622355
     13          6           0       -1.709471    2.767858    0.902342
     14          1           0       -2.220392    0.046878    0.949073
     15          1           0       -2.162164    0.576997   -0.729231
     16          1           0       -3.640992    2.022503    1.524102
     17          1           0       -3.583674    2.552788   -0.153131
     18          1           0       -1.083394    2.798453    0.004739
     19          1           0       -1.141038    2.265155    1.691502
     20          1           0       -1.895182    3.798086    1.221719
     21          6           0        3.024518   -2.469862    0.924233
     22          6           0        3.670239   -2.096913   -0.259185
     23          6           0        3.489183   -0.818012   -0.794142
     24          6           0        2.651648    0.066681   -0.116541
     25          6           0        1.994417   -0.275187    1.064333
     26          6           0        2.190140   -1.559414    1.581056
     27          1           0        3.170863   -3.465411    1.332718
     28          1           0        4.318803   -2.801907   -0.771427
     29          1           0        3.976827   -0.503072   -1.708710
     30          1           0        1.353960    0.449424    1.552361
     31          1           0        1.687380   -1.846303    2.500280
     32          7           0        2.452209    1.423415   -0.673225
     33          8           0        1.709221    2.184393   -0.057174
     34          8           0        3.042654    1.700155   -1.715063
 ---------------------------------------------------------------------

 SCF Done:  E(RHF) =  -669.535770508     A.U. after   15 cycles
 E2 =    -0.2091443161D+01 EUMP2 =    -0.67162721366850D+03

 The electronic state is 1-A.
 Alpha  occ. eigenvalues --  -20.60841 -20.60834 -15.85874 -11.31215 -11.27787
 Alpha  occ. eigenvalues --  -11.27777 -11.27529 -11.26798 -11.26788 -11.21554
 Alpha  occ. eigenvalues --  -11.21221 -11.21127 -11.21060 -11.21052 -11.20140
 Alpha  occ. eigenvalues --   -1.59909  -1.39462  -1.19388  -1.08790  -1.08176
 Alpha  occ. eigenvalues --   -1.04788  -1.03191  -0.95663  -0.95580  -0.86623
 Alpha  occ. eigenvalues --   -0.86187  -0.82463  -0.79271  -0.77990  -0.77494
 Alpha  occ. eigenvalues --   -0.72100  -0.71226  -0.70498  -0.65045  -0.64824
 Alpha  occ. eigenvalues --   -0.64783  -0.62137  -0.60589  -0.59036  -0.57223
 Alpha  occ. eigenvalues --   -0.55294  -0.54895  -0.53118  -0.52883  -0.52297
 Alpha  occ. eigenvalues --   -0.52020  -0.49563  -0.48863  -0.48851  -0.47558
 Alpha  occ. eigenvalues --   -0.46326  -0.45536  -0.45458  -0.44771  -0.43466
 Alpha  occ. eigenvalues --   -0.37369  -0.36388
 Alpha virt. eigenvalues --    0.04993   0.11255   0.16466   0.20834   0.23027
 Alpha virt. eigenvalues --    0.24057   0.26063   0.27251   0.27638   0.27891
 Alpha virt. eigenvalues --    0.29224   0.30683   0.31525   0.32036   0.32470

 Mulliken charges:
               1
     1  C   -0.297891
     2  C   -0.298906
     3  C   -0.475453
     4  H    0.148425
     5  H    0.150723
     6  H    0.148205
     7  H    0.152451
     8  H    0.156142
     9  H    0.154623
    10  H    0.158779
    11  C   -0.296230
    12  C   -0.301072
    13  C   -0.476540
    14  H    0.141218
    15  H    0.152355
    16  H    0.147596
    17  H    0.151796
    18  H    0.177317
    19  H    0.145952
    20  H    0.158099
    21  C   -0.170452
    22  C   -0.218694
    23  C   -0.170665
    24  C    0.157439
    25  C   -0.171330
    26  C   -0.219069
    27  H    0.225706
    28  H    0.223504
    29  H    0.275559
    30  H    0.278337
    31  H    0.223514
    32  N    0.489273
    33  O   -0.460572
    34  O   -0.460138
 Sum of Mulliken charges =  -0.00000

 Dipole moment (field-independent basis, Debye):
    X=              0.8416    Y=             -4.6799    Z=              1.8564  Tot=              5.1045
 Quadrupole moment (field-independent basis, Debye-Ang):
   XX=            -90.8907   YY=            -95.9251   ZZ=            -91.9152
   XY=            -14.2717   XZ=              2.4800   YZ=              0.9333

 Normal termination of Gaussian 16 at Wed May  5 18:30:19 2021.
