 Gaussian 16, Revision A.03,
 Gaussian 16:  EM64L-G16RevA.03 25-Dec-2016

 -------------
 #p 6-31g* mp2
 -------------

 ------------------------------------------------------
 Input file generated by CHIRIPA (05-May-2021 14:57:27)
 ------------------------------------------------------
 Symbolic Z-matrix:
 Charge =  0 Multiplicity = 1

                         Standard orientation:
 ---------------------------------------------------------------------
 Center     Atomic      Atomic             Coordinates (Angstroms)
 Number     Number       Type             X           Y           Z
 ---------------------------------------------------------------------
      1          6           0        1.153414    0.867931    1.521634
      2          6           0        2.371494    1.551664    1.594510
      3          6           0        3.497654    1.069729    0.920677
      4          6           0        3.369479   -0.104175    0.179860
      5          6           0        2.169712   -0.808011    0.087866
      6          6           0        1.056581   -0.307652    0.769870
      7          1           0        0.283647    1.249466    2.048257
      8          1           0        2.449628    2.464882    2.177582
      9          1           0        4.452860    1.579097    0.959990
     10          1           0        2.122717   -1.715777   -0.501345
     11          1           0        0.111884   -0.840740    0.711480
     12          7           0        4.554798   -0.624130   -0.537821
     13          8           0        4.415794   -1.660515   -1.183748
     14          8           0        5.600410    0.014559   -0.440823
     15          6           0       -2.256402    2.143865   -1.301360
     16          6           0       -1.612775    0.924313   -1.535798
     17          6           0       -2.112372   -0.259573   -0.985011
     18          6           0       -3.262846   -0.186995   -0.201155
     19          6           0       -3.926649    1.012685    0.050689
     20          6           0       -3.409251    2.184087   -0.510260
     21          1           0       -1.861389    3.058687   -1.733172
     22          1           0       -0.717284    0.890070   -2.149775
     23          1           0       -1.633988   -1.217288   -1.150385
     24          1           0       -4.817504    1.015144    0.666960
     25          1           0       -3.911184    3.129784   -0.326503
     26          7           0       -3.801169   -1.433714    0.387317
     27          8           0       -4.816271   -1.343029    1.074325
     28          8           0       -3.197811   -2.477970    0.150410
 ---------------------------------------------------------------------

 SCF Done:  E(RHF) =  -868.337028563     A.U. after   16 cycles
 E2 =    -0.2601833563D+01 EUMP2 =    -0.87093886212635D+03

 The electronic state is 1-A.
 Alpha  occ. eigenvalues --  -20.61624 -20.61606 -20.61040 -20.61034 -15.86667
 Alpha  occ. eigenvalues --  -15.86093 -11.32105 -11.31497 -11.28644 -11.28588
 Alpha  occ. eigenvalues --  -11.28289 -11.28054 -11.28042 -11.27757 -11.27622
 Alpha  occ. eigenvalues --  -11.27596 -11.27078 -11.26996  -1.60692  -1.60116
 Alpha  occ. eigenvalues --   -1.40244  -1.39668  -1.20253  -1.19662  -1.09611
 Alpha  occ. eigenvalues --   -1.09040  -1.05656  -1.05059  -0.96446  -0.95870
 Alpha  occ. eigenvalues --   -0.87029  -0.86452  -0.83264  -0.82702  -0.78337
 Alpha  occ. eigenvalues --   -0.77748  -0.72869  -0.72307  -0.72030  -0.71445
 Alpha  occ. eigenvalues --   -0.71318  -0.70738  -0.65875  -0.65631  -0.65300
 Alpha  occ. eigenvalues --   -0.65049  -0.63013  -0.62363  -0.56084  -0.55529
 Alpha  occ. eigenvalues --   -0.54123  -0.53727  -0.53335  -0.53029  -0.49641
 Alpha  occ. eigenvalues --   -0.49627  -0.49068  -0.49063  -0.45628  -0.45065
 Alpha  occ. eigenvalues --   -0.38251  -0.37852  -0.37227  -0.36409
 Alpha virt. eigenvalues --    0.04151   0.04773   0.10248   0.10967   0.15657
 Alpha virt. eigenvalues --    0.16329   0.20231   0.21487   0.25595   0.27082
 Alpha virt. eigenvalues --    0.27908   0.28430   0.29988   0.30831   0.32104

 Mulliken charges:
               1
     1  C   -0.172175
     2  C   -0.219660
     3  C   -0.171821
     4  C    0.158759
     5  C   -0.177493
     6  C   -0.221138
     7  H    0.227770
     8  H    0.223387
     9  H    0.275930
    10  H    0.275889
    11  H    0.229888
    12  N    0.487868
    13  O   -0.459781
    14  O   -0.459946
    15  C   -0.173656
    16  C   -0.212364
    17  C   -0.184364
    18  C    0.158192
    19  C   -0.172929
    20  C   -0.218876
    21  H    0.229197
    22  H    0.229891
    23  H    0.273838
    24  H    0.277610
    25  H    0.226137
    26  N    0.488126
    27  O   -0.456699
    28  O   -0.461580
 Sum of Mulliken charges =  -0.00000

 Dipole moment (field-independent basis, Debye):
    X=             -2.4179    Y=              6.3441    Z=              0.4272  Tot=              6.8027
 Quadrupole moment (field-independent basis, Debye-Ang):
   XX=           -141.6009   YY=           -103.0826   ZZ=           -102.6997
   XY=             -8.1864   XZ=             13.5613   YZ=              2.2001

 Normal termination of Gaussian 16 at Fri May  7 08:11:20 2021.
