 Gaussian 16, Revision A.03,
 Gaussian 16:  EM64L-G16RevA.03 25-Dec-2016

 -------------
 #p 6-31g* mp2
 -------------

 ------------------------------------------------------
 Input file generated by CHIRIPA (05-May-2021 14:55:25)
 ------------------------------------------------------
 Symbolic Z-matrix:
 Charge =  0 Multiplicity = 1

                         Standard orientation:
 ---------------------------------------------------------------------
 Center     Atomic      Atomic             Coordinates (Angstroms)
 Number     Number       Type             X           Y           Z
 ---------------------------------------------------------------------
      1          6           0       -1.156371    2.348783   -1.336843
      2          6           0       -1.998193    1.350910   -1.838944
      3          6           0       -2.498495    0.353762   -0.996363
      4          6           0       -2.134942    0.385000    0.349052
      5          6           0       -1.298194    1.365837    0.879243
      6          6           0       -0.809669    2.353054    0.018258
      7          1           0       -0.772298    3.119534   -1.998528
      8          1           0       -2.269122    1.345097   -2.890899
      9          1           0       -3.151954   -0.430554   -1.358659
     10          1           0       -1.045784    1.345336    1.932469
     11          1           0       -0.156082    3.126779    0.410965
     12          7           0       -2.658356   -0.665379    1.250796
     13          8           0       -2.323151   -0.615658    2.432237
     14          8           0       -3.393902   -1.518498    0.759067
     15          6           0        3.164613   -0.623154    0.273551
     16          6           0        3.931192    0.692740    0.136568
     17          6           0        5.012734    0.860732    1.204201
     18          1           0        2.707528   -0.671701    1.271380
     19          1           0        3.873642   -1.460449    0.213469
     20          1           0        3.220755    1.527258    0.195504
     21          1           0        4.386346    0.738245   -0.861120
     22          1           0        5.743682    0.047952    1.143328
     23          1           0        4.571467    0.841448    2.205956
     24          1           0        5.548276    1.808070    1.087566
     25          6           0        2.080000   -0.805621   -0.786662
     26          6           0        1.313421   -2.121515   -0.649679
     27          6           0        0.231880   -2.289506   -1.717311
     28          1           0        1.370971    0.031673   -0.726579
     29          1           0        2.537085   -0.757074   -1.784490
     30          1           0        0.858268   -2.167020    0.348009
     31          1           0        2.023859   -2.956034   -0.708615
     32          1           0        0.673146   -2.270223   -2.719067
     33          1           0       -0.499068   -1.476727   -1.656439
     34          1           0       -0.303663   -3.236846   -1.600677
 ---------------------------------------------------------------------

 SCF Done:  E(RHF) =  -669.535116849     A.U. after   15 cycles
 E2 =    -0.2094512614D+01 EUMP2 =    -0.67162962946296D+03

 The electronic state is 1-A.
 Alpha  occ. eigenvalues --  -20.60872 -20.60862 -15.85927 -11.31331 -11.27932
 Alpha  occ. eigenvalues --  -11.27890 -11.27665 -11.26949 -11.26914 -11.21852
 Alpha  occ. eigenvalues --  -11.21466 -11.21448 -11.21317 -11.21283 -11.20860
 Alpha  occ. eigenvalues --   -1.59945  -1.39496  -1.19536  -1.08904  -1.08469
 Alpha  occ. eigenvalues --   -1.04945  -1.03568  -0.96015  -0.95729  -0.87037
 Alpha  occ. eigenvalues --   -0.86321  -0.82559  -0.79648  -0.78273  -0.77599
 Alpha  occ. eigenvalues --   -0.72142  -0.71277  -0.70619  -0.65174  -0.65120
 Alpha  occ. eigenvalues --   -0.64920  -0.62277  -0.61002  -0.59383  -0.57624
 Alpha  occ. eigenvalues --   -0.55434  -0.55336  -0.53316  -0.53013  -0.52699
 Alpha  occ. eigenvalues --   -0.52426  -0.49986  -0.48905  -0.48894  -0.47944
 Alpha  occ. eigenvalues --   -0.46688  -0.45797  -0.45669  -0.44883  -0.43808
 Alpha  occ. eigenvalues --   -0.37483  -0.36462
 Alpha virt. eigenvalues --    0.04915   0.11057   0.16384   0.21097   0.22752
 Alpha virt. eigenvalues --    0.24078   0.26307   0.26983   0.27497   0.28061
 Alpha virt. eigenvalues --    0.28339   0.30507   0.31564   0.31755   0.32027

 Mulliken charges:
               1
     1  C   -0.170017
     2  C   -0.215599
     3  C   -0.177060
     4  C    0.163589
     5  C   -0.171400
     6  C   -0.218836
     7  H    0.227015
     8  H    0.225087
     9  H    0.277537
    10  H    0.276300
    11  H    0.224700
    12  N    0.488187
    13  O   -0.460582
    14  O   -0.459556
    15  C   -0.298457
    16  C   -0.298048
    17  C   -0.475721
    18  H    0.151090
    19  H    0.150743
    20  H    0.144682
    21  H    0.151496
    22  H    0.157064
    23  H    0.155659
    24  H    0.158827
    25  C   -0.303366
    26  C   -0.300102
    27  C   -0.482997
    28  H    0.152412
    29  H    0.146556
    30  H    0.155605
    31  H    0.152275
    32  H    0.150877
    33  H    0.157227
    34  H    0.164813
 Sum of Mulliken charges =  -0.00000

 Dipole moment (field-independent basis, Debye):
    X=              1.6993    Y=              3.7299    Z=             -3.1411  Tot=              5.1639
 Quadrupole moment (field-independent basis, Debye-Ang):
   XX=           -102.2698   YY=            -91.3379   ZZ=            -94.5178
   XY=             -6.7512   XZ=              8.8701   YZ=              1.7287

 Normal termination of Gaussian 16 at Thu May  6 03:13:15 2021.
