 Gaussian 16, Revision A.03,
 Gaussian 16:  EM64L-G16RevA.03 25-Dec-2016

 -------------
 #p 6-31g* mp2
 -------------

 ------------------------------------------------------
 Input file generated by CHIRIPA (05-May-2021 14:51:12)
 ------------------------------------------------------
 Symbolic Z-matrix:
 Charge =  0 Multiplicity = 1

                         Standard orientation:
 ---------------------------------------------------------------------
 Center     Atomic      Atomic             Coordinates (Angstroms)
 Number     Number       Type             X           Y           Z
 ---------------------------------------------------------------------
      1          6           0       -3.130012   -0.070170   -0.426910
      2          6           0       -2.404559   -1.287105   -1.002040
      3          6           0       -3.363879   -2.391165   -1.447630
      4          1           0       -3.746869   -0.387727    0.424906
      5          1           0       -3.821614    0.326802   -1.182883
      6          1           0       -1.713520   -1.680831   -0.245693
      7          1           0       -1.789209   -0.966582   -1.852466
      8          1           0       -4.045367   -2.020701   -2.220244
      9          1           0       -3.969248   -2.739008   -0.604342
     10          1           0       -2.824144   -3.251508   -1.855498
     11          6           0       -2.184405    1.042104    0.022978
     12          6           0       -2.909858    2.259039    0.598107
     13          6           0       -1.950538    3.363099    1.043698
     14          1           0       -1.492803    0.645131    0.778950
     15          1           0       -1.567548    1.359661   -0.828838
     16          1           0       -3.525208    1.938516    1.448534
     17          1           0       -3.600897    2.652765   -0.158240
     18          1           0       -1.345169    3.710942    0.200409
     19          1           0       -1.269050    2.992635    1.816312
     20          1           0       -2.490272    4.223442    1.451565
     21          6           0        2.543715   -0.989156    0.765306
     22          6           0        1.136339   -1.586864    0.770046
     23          6           0        0.924658   -2.591729    1.902843
     24          1           0        3.279485   -1.800510    0.679899
     25          1           0        2.729618   -0.498993    1.731004
     26          1           0        0.952637   -2.074557   -0.195886
     27          1           0        0.403826   -0.773979    0.855258
     28          1           0        1.081048   -2.114281    2.875564
     29          1           0        1.632976   -3.422248    1.818447
     30          1           0       -0.088010   -3.006612    1.887456
     31          6           0        2.770702    0.017223   -0.361373
     32          6           0        4.178078    0.614929   -0.366113
     33          6           0        4.389759    1.619796   -1.498911
     34          1           0        2.584799   -0.472942   -1.327073
     35          1           0        2.034932    0.828575   -0.275966
     36          1           0        4.910590   -0.197955   -0.451326
     37          1           0        4.361781    1.102623    0.599819
     38          1           0        3.681441    2.450315   -1.414515
     39          1           0        4.233369    1.142347   -2.471631
     40          1           0        5.402427    2.034678   -1.483524
 ---------------------------------------------------------------------

 SCF Done:  E(RHF) =  -470.732505590     A.U. after   11 cycles
 E2 =    -0.1584241746D+01 EUMP2 =    -0.47231674733642D+03

 The electronic state is 1-A.
 Alpha  occ. eigenvalues --  -11.21628 -11.21582 -11.21535 -11.21510 -11.21413
 Alpha  occ. eigenvalues --  -11.21377 -11.21346 -11.21317 -11.21116 -11.21103
 Alpha  occ. eigenvalues --  -11.21059 -11.21040  -1.08465  -1.08381  -1.03559
 Alpha  occ. eigenvalues --   -1.03492  -0.95986  -0.95976  -0.87000  -0.86989
 Alpha  occ. eigenvalues --   -0.79705  -0.79519  -0.78444  -0.78007  -0.65165
 Alpha  occ. eigenvalues --   -0.64963  -0.60950  -0.60916  -0.59450  -0.59251
 Alpha  occ. eigenvalues --   -0.57628  -0.57556  -0.55311  -0.55231  -0.52701
 Alpha  occ. eigenvalues --   -0.52649  -0.52421  -0.52391  -0.49972  -0.49879
 Alpha  occ. eigenvalues --   -0.48101  -0.47831  -0.46759  -0.46598  -0.46169
 Alpha  occ. eigenvalues --   -0.45748  -0.45659  -0.45053  -0.43791  -0.43751
 Alpha virt. eigenvalues --    0.21245   0.23024   0.23598   0.24289   0.25702
 Alpha virt. eigenvalues --    0.26304   0.26699   0.27599   0.28065   0.29814
 Alpha virt. eigenvalues --    0.30426   0.31209   0.31642   0.31933   0.32081

 Mulliken charges:
               1
     1  C   -0.297983
     2  C   -0.307031
     3  C   -0.475427
     4  H    0.149123
     5  H    0.149408
     6  H    0.162480
     7  H    0.151502
     8  H    0.154887
     9  H    0.154692
    10  H    0.159829
    11  C   -0.304323
    12  C   -0.298970
    13  C   -0.475754
    14  H    0.154261
    15  H    0.150041
    16  H    0.151978
    17  H    0.152230
    18  H    0.155088
    19  H    0.154499
    20  H    0.160578
    21  C   -0.297234
    22  C   -0.309325
    23  C   -0.477688
    24  H    0.149336
    25  H    0.148942
    26  H    0.153434
    27  H    0.160501
    28  H    0.154987
    29  H    0.155752
    30  H    0.160222
    31  C   -0.298805
    32  C   -0.299604
    33  C   -0.475691
    34  H    0.149345
    35  H    0.150550
    36  H    0.151849
    37  H    0.151904
    38  H    0.155191
    39  H    0.155022
    40  H    0.160205
 Sum of Mulliken charges =  -0.00000

 Dipole moment (field-independent basis, Debye):
    X=             -0.0011    Y=              0.0065    Z=             -0.0026  Tot=              0.0071
 Quadrupole moment (field-independent basis, Debye-Ang):
   XX=            -85.2501   YY=            -85.4365   ZZ=            -84.3006
   XY=             -1.0320   XZ=             -0.1797   YZ=              0.3271

 Normal termination of Gaussian 16 at Wed May  5 19:56:04 2021.
