 Gaussian 16, Revision A.03,
 Gaussian 16:  EM64L-G16RevA.03 25-Dec-2016

 -------------
 #p 6-31g* mp2
 -------------

 ------------------------------------------------------
 Input file generated by CHIRIPA (05-May-2021 14:55:19)
 ------------------------------------------------------
 Symbolic Z-matrix:
 Charge =  0 Multiplicity = 1

                         Standard orientation:
 ---------------------------------------------------------------------
 Center     Atomic      Atomic             Coordinates (Angstroms)
 Number     Number       Type             X           Y           Z
 ---------------------------------------------------------------------
      1          6           0       -1.533515    2.119823    0.693273
      2          6           0       -2.560683    2.085083   -0.255537
      3          6           0       -3.191973    0.879191   -0.574672
      4          6           0       -2.768984   -0.278162    0.077175
      5          6           0       -1.748576   -0.275954    1.026939
      6          6           0       -1.131448    0.941271    1.330359
      7          1           0       -1.048615    3.060990    0.935081
      8          1           0       -2.875005    2.998801   -0.751888
      9          1           0       -3.989806    0.823703   -1.305289
     10          1           0       -1.457075   -1.203233    1.505061
     11          1           0       -0.334012    0.965254    2.067628
     12          7           0       -3.429806   -1.560784   -0.252361
     13          8           0       -3.038721   -2.566535    0.335988
     14          8           0       -4.326330   -1.536066   -1.092759
     15          6           0        3.341430    0.753408   -0.533346
     16          6           0        2.432363    1.752237    0.183537
     17          6           0        2.315433    3.083698   -0.558982
     18          1           0        4.339447    1.196579   -0.653796
     19          1           0        2.953607    0.576665   -1.546140
     20          1           0        2.821009    1.925988    1.195161
     21          1           0        1.436448    1.306563    0.302465
     22          1           0        1.906285    2.930342   -1.562815
     23          1           0        3.298712    3.553287   -0.665047
     24          1           0        1.660992    3.782784   -0.029035
     25          6           0        3.468355   -0.582477    0.196742
     26          6           0        4.377422   -1.581306   -0.520142
     27          6           0        4.494352   -2.912767    0.222377
     28          1           0        3.856179   -0.405734    1.209535
     29          1           0        2.470339   -1.025648    0.317192
     30          1           0        5.373337   -1.135631   -0.639070
     31          1           0        3.988776   -1.755057   -1.531766
     32          1           0        3.511074   -3.382356    0.328443
     33          1           0        4.903501   -2.759411    1.226210
     34          1           0        5.148793   -3.611853   -0.307570
 ---------------------------------------------------------------------

 SCF Done:  E(RHF) =  -669.534922526     A.U. after   15 cycles
 E2 =    -0.2092860766D+01 EUMP2 =    -0.67162778329210D+03

 The electronic state is 1-A.
 Alpha  occ. eigenvalues --  -20.60813 -20.60808 -15.85867 -11.31249 -11.27813
 Alpha  occ. eigenvalues --  -11.27809 -11.27545 -11.26826 -11.26800 -11.22211
 Alpha  occ. eigenvalues --  -11.21884 -11.21863 -11.21858 -11.21782 -11.21251
 Alpha  occ. eigenvalues --   -1.59888  -1.39441  -1.19427  -1.08916  -1.08797
 Alpha  occ. eigenvalues --   -1.04834  -1.04001  -0.96453  -0.95642  -0.87470
 Alpha  occ. eigenvalues --   -0.86228  -0.82474  -0.80095  -0.78712  -0.77516
 Alpha  occ. eigenvalues --   -0.72084  -0.71212  -0.70520  -0.65550  -0.65071
 Alpha  occ. eigenvalues --   -0.64817  -0.62186  -0.61382  -0.59863  -0.58073
 Alpha  occ. eigenvalues --   -0.55726  -0.55316  -0.53240  -0.53104  -0.52950
 Alpha  occ. eigenvalues --   -0.52832  -0.50374  -0.48854  -0.48839  -0.48384
 Alpha  occ. eigenvalues --   -0.47101  -0.46244  -0.46147  -0.44843  -0.44256
 Alpha  occ. eigenvalues --   -0.37351  -0.36388
 Alpha virt. eigenvalues --    0.04992   0.11109   0.16417   0.20256   0.22702
 Alpha virt. eigenvalues --    0.23828   0.25903   0.26302   0.26342   0.28434
 Alpha virt. eigenvalues --    0.28758   0.30173   0.31011   0.31650   0.32563

 Mulliken charges:
               1
     1  C   -0.169572
     2  C   -0.218810
     3  C   -0.170849
     4  C    0.158562
     5  C   -0.173346
     6  C   -0.219930
     7  H    0.228052
     8  H    0.223983
     9  H    0.275839
    10  H    0.275936
    11  H    0.227399
    12  N    0.488070
    13  O   -0.460313
    14  O   -0.460224
    15  C   -0.297151
    16  C   -0.311582
    17  C   -0.474443
    18  H    0.150680
    19  H    0.152302
    20  H    0.148103
    21  H    0.158726
    22  H    0.158512
    23  H    0.158791
    24  H    0.150048
    25  C   -0.298999
    26  C   -0.300038
    27  C   -0.476457
    28  H    0.148069
    29  H    0.148596
    30  H    0.152279
    31  H    0.154086
    32  H    0.157224
    33  H    0.154436
    34  H    0.162020
 Sum of Mulliken charges =  -0.00000

 Dipole moment (field-independent basis, Debye):
    X=              2.3423    Y=              4.4528    Z=              1.0941  Tot=              5.1488
 Quadrupole moment (field-independent basis, Debye-Ang):
   XX=           -105.5978   YY=            -97.6625   ZZ=            -92.7721
   XY=            -14.6683   XZ=             -0.7065   YZ=             -1.2138

 Normal termination of Gaussian 16 at Thu May  6 20:36:03 2021.
