 Gaussian 16, Revision A.03,
 Gaussian 16:  EM64L-G16RevA.03 25-Dec-2016

 -------------
 #p 6-31g* mp2
 -------------

 ------------------------------------------------------
 Input file generated by CHIRIPA (05-May-2021 14:55:23)
 ------------------------------------------------------
 Symbolic Z-matrix:
 Charge =  0 Multiplicity = 1

                         Standard orientation:
 ---------------------------------------------------------------------
 Center     Atomic      Atomic             Coordinates (Angstroms)
 Number     Number       Type             X           Y           Z
 ---------------------------------------------------------------------
      1          6           0       -1.989692   -2.044568    1.614714
      2          6           0       -3.193827   -2.131256    0.908268
      3          6           0       -3.564020   -1.125890    0.010079
      4          6           0       -2.702319   -0.043060   -0.157973
      5          6           0       -1.496022    0.071928    0.531169
      6          6           0       -1.146120   -0.945191    1.424245
      7          1           0       -1.709998   -2.830126    2.310463
      8          1           0       -3.850919   -2.983889    1.054180
      9          1           0       -4.490409   -1.167748   -0.549805
     10          1           0       -0.861690    0.934064    0.364553
     11          1           0       -0.210364   -0.875222    1.971520
     12          7           0       -3.083485    1.027497   -1.106139
     13          8           0       -2.306858    1.971181   -1.236324
     14          8           0       -4.151654    0.902645   -1.701173
     15          6           0        3.468090   -0.475137   -0.058906
     16          6           0        4.358664   -0.887512   -1.231429
     17          6           0        4.528239   -2.403146   -1.340484
     18          1           0        3.897014   -0.865612    0.874099
     19          1           0        2.482722   -0.948083   -0.171893
     20          1           0        5.341614   -0.412823   -1.116992
     21          1           0        3.927673   -0.495848   -2.161731
     22          1           0        3.557686   -2.890389   -1.479124
     23          1           0        4.979660   -2.806893   -0.428449
     24          1           0        5.168453   -2.675732   -2.185281
     25          6           0        3.289024    1.037059    0.063267
     26          6           0        2.398451    1.449435    1.235790
     27          6           0        2.228876    2.965069    1.344844
     28          1           0        4.274393    1.510005    0.176253
     29          1           0        2.860101    1.427534   -0.869739
     30          1           0        2.829441    1.057770    2.166092
     31          1           0        1.415501    0.974745    1.121352
     32          1           0        1.777455    3.368815    0.432809
     33          1           0        3.199429    3.452312    1.483485
     34          1           0        1.588662    3.237654    2.189643
 ---------------------------------------------------------------------

 SCF Done:  E(RHF) =  -669.535403848     A.U. after   15 cycles
 E2 =    -0.2092045047D+01 EUMP2 =    -0.67162744889535D+03

 The electronic state is 1-A.
 Alpha  occ. eigenvalues --  -20.60770 -20.60765 -15.85822 -11.31174 -11.27746
 Alpha  occ. eigenvalues --  -11.27722 -11.27481 -11.26760 -11.26724 -11.22338
 Alpha  occ. eigenvalues --  -11.21927 -11.21861 -11.21803 -11.21452 -11.21371
 Alpha  occ. eigenvalues --   -1.59845  -1.39399  -1.19347  -1.08906  -1.08742
 Alpha  occ. eigenvalues --   -1.04754  -1.03976  -0.96382  -0.95582  -0.87399
 Alpha  occ. eigenvalues --   -0.86145  -0.82424  -0.80072  -0.78738  -0.77455
 Alpha  occ. eigenvalues --   -0.72042  -0.71167  -0.70468  -0.65562  -0.64992
 Alpha  occ. eigenvalues --   -0.64748  -0.62206  -0.61277  -0.59755  -0.58008
 Alpha  occ. eigenvalues --   -0.55655  -0.55245  -0.53096  -0.53066  -0.52835
 Alpha  occ. eigenvalues --   -0.52799  -0.50316  -0.48800  -0.48798  -0.48360
 Alpha  occ. eigenvalues --   -0.47104  -0.46253  -0.46169  -0.44807  -0.44223
 Alpha  occ. eigenvalues --   -0.37327  -0.36348
 Alpha virt. eigenvalues --    0.05057   0.11298   0.16503   0.19661   0.22787
 Alpha virt. eigenvalues --    0.23715   0.25163   0.26300   0.27419   0.28218
 Alpha virt. eigenvalues --    0.29378   0.30466   0.31236   0.31560   0.32494

 Mulliken charges:
               1
     1  C   -0.170740
     2  C   -0.218750
     3  C   -0.170815
     4  C    0.160243
     5  C   -0.177870
     6  C   -0.221931
     7  H    0.225778
     8  H    0.223459
     9  H    0.275509
    10  H    0.280229
    11  H    0.227174
    12  N    0.488571
    13  O   -0.461047
    14  O   -0.460371
    15  C   -0.299626
    16  C   -0.300157
    17  C   -0.476136
    18  H    0.147881
    19  H    0.146948
    20  H    0.153212
    21  H    0.155298
    22  H    0.155041
    23  H    0.154168
    24  H    0.162184
    25  C   -0.298781
    26  C   -0.306491
    27  C   -0.477890
    28  H    0.152597
    29  H    0.155635
    30  H    0.151790
    31  H    0.142476
    32  H    0.163579
    33  H    0.158191
    34  H    0.160643
 Sum of Mulliken charges =  -0.00000

 Dipole moment (field-independent basis, Debye):
    X=              1.4762    Y=             -3.6846    Z=              3.2669  Tot=              5.1408
 Quadrupole moment (field-independent basis, Debye-Ang):
   XX=            -97.5306   YY=            -94.4979   ZZ=            -95.9882
   XY=             13.2439   XZ=             -7.9499   YZ=              0.7777

 Normal termination of Gaussian 16 at Thu May  6 12:38:38 2021.
