 Gaussian 16, Revision A.03,
 Gaussian 16:  EM64L-G16RevA.03 25-Dec-2016

 -------------
 #p 6-31g* mp2
 -------------

 ------------------------------------------------------
 Input file generated by CHIRIPA (05-May-2021 14:51:09)
 ------------------------------------------------------
 Symbolic Z-matrix:
 Charge =  0 Multiplicity = 1

                         Standard orientation:
 ---------------------------------------------------------------------
 Center     Atomic      Atomic             Coordinates (Angstroms)
 Number     Number       Type             X           Y           Z
 ---------------------------------------------------------------------
      1          6           0        3.224603   -0.729460    0.478588
      2          6           0        1.904242   -1.295830   -0.044724
      3          6           0        1.426033   -2.511319    0.750071
      4          1           0        3.991683   -1.515272    0.446481
      5          1           0        3.103955   -0.453419    1.535300
      6          1           0        2.026946   -1.569437   -1.100517
      7          1           0        1.140263   -0.508524   -0.011547
      8          1           0        1.275731   -2.248772    1.802250
      9          1           0        2.167452   -3.315714    0.707092
     10          1           0        0.480620   -2.900079    0.359022
     11          6           0        3.715647    0.486028   -0.305755
     12          6           0        5.036008    1.052399    0.217557
     13          6           0        5.514216    2.267887   -0.577237
     14          1           0        3.836295    0.209987   -1.362467
     15          1           0        2.948566    1.271841   -0.273648
     16          1           0        5.799986    0.265092    0.184380
     17          1           0        4.913303    1.326005    1.273351
     18          1           0        4.772797    3.072282   -0.534258
     19          1           0        5.664518    2.005341   -1.629416
     20          1           0        6.459630    2.656647   -0.186188
     21          6           0       -3.387807    0.829998    0.187430
     22          6           0       -4.580655    1.738437   -0.112299
     23          6           0       -4.401089    3.152081    0.441921
     24          1           0       -3.235128    0.782600    1.274347
     25          1           0       -2.478676    1.278362   -0.236653
     26          1           0       -5.487485    1.287806    0.311027
     27          1           0       -4.730629    1.783525   -1.198619
     28          1           0       -3.512756    3.624936    0.010789
     29          1           0       -4.273914    3.126400    1.529013
     30          1           0       -5.265354    3.784538    0.216303
     31          6           0       -3.552443   -0.586566   -0.360263
     32          6           0       -2.359595   -1.495005   -0.060535
     33          6           0       -2.539161   -2.908650   -0.614754
     34          1           0       -4.461573   -1.034930    0.063819
     35          1           0       -3.705121   -0.539168   -1.447181
     36          1           0       -2.209620   -1.540093    1.025785
     37          1           0       -1.452763   -1.044374   -0.483861
     38          1           0       -2.666336   -2.882968   -1.701846
     39          1           0       -3.427493   -3.381504   -0.183623
     40          1           0       -1.674895   -3.541106   -0.389137
 ---------------------------------------------------------------------

 SCF Done:  E(RHF) =  -470.732910875     A.U. after   11 cycles
 E2 =    -0.1583343652D+01 EUMP2 =    -0.47231625452740D+03

 The electronic state is 1-A.
 Alpha  occ. eigenvalues --  -11.21615 -11.21598 -11.21587 -11.21580 -11.21418
 Alpha  occ. eigenvalues --  -11.21397 -11.21358 -11.21336 -11.21090 -11.21086
 Alpha  occ. eigenvalues --  -11.21070 -11.21003  -1.08454  -1.08408  -1.03587
 Alpha  occ. eigenvalues --   -1.03474  -0.96048  -0.95916  -0.87040  -0.86956
 Alpha  occ. eigenvalues --   -0.79630  -0.79558  -0.78288  -0.78203  -0.65094
 Alpha  occ. eigenvalues --   -0.65029  -0.60982  -0.60881  -0.59778  -0.59072
 Alpha  occ. eigenvalues --   -0.57856  -0.57255  -0.55278  -0.55244  -0.52919
 Alpha  occ. eigenvalues --   -0.52571  -0.52455  -0.52164  -0.49948  -0.49889
 Alpha  occ. eigenvalues --   -0.48026  -0.47803  -0.46745  -0.46521  -0.45886
 Alpha  occ. eigenvalues --   -0.45760  -0.45732  -0.45559  -0.43871  -0.43685
 Alpha virt. eigenvalues --    0.21264   0.23105   0.23329   0.25059   0.25630
 Alpha virt. eigenvalues --    0.26713   0.26802   0.27194   0.28081   0.29085
 Alpha virt. eigenvalues --    0.30254   0.30733   0.31441   0.31755   0.32355

 Mulliken charges:
               1
     1  C   -0.298341
     2  C   -0.301350
     3  C   -0.483054
     4  H    0.149652
     5  H    0.149610
     6  H    0.151373
     7  H    0.153891
     8  H    0.154947
     9  H    0.154529
    10  H    0.168755
    11  C   -0.298264
    12  C   -0.299621
    13  C   -0.475702
    14  H    0.149387
    15  H    0.149464
    16  H    0.151963
    17  H    0.151979
    18  H    0.155135
    19  H    0.155127
    20  H    0.160266
    21  C   -0.298264
    22  C   -0.299646
    23  C   -0.475722
    24  H    0.149572
    25  H    0.149076
    26  H    0.152035
    27  H    0.152037
    28  H    0.155107
    29  H    0.155130
    30  H    0.160344
    31  C   -0.298195
    32  C   -0.304284
    33  C   -0.480526
    34  H    0.149567
    35  H    0.149648
    36  H    0.152625
    37  H    0.157398
    38  H    0.155469
    39  H    0.155743
    40  H    0.163140
 Sum of Mulliken charges =  -0.00000

 Dipole moment (field-independent basis, Debye):
    X=             -0.0203    Y=             -0.0022    Z=             -0.0007  Tot=              0.0205
 Quadrupole moment (field-independent basis, Debye-Ang):
   XX=            -84.6104   YY=            -86.2587   ZZ=            -83.9468
   XY=             -0.5648   XZ=             -0.4997   YZ=              0.2118

 Normal termination of Gaussian 16 at Wed May  5 22:59:44 2021.
