 Gaussian 16, Revision A.03,
 Gaussian 16:  EM64L-G16RevA.03 25-Dec-2016

 -------------
 #p 6-31g* mp2
 -------------

 ------------------------------------------------------
 Input file generated by CHIRIPA (05-May-2021 14:53:17)
 ------------------------------------------------------
 Symbolic Z-matrix:
 Charge =  0 Multiplicity = 1

                         Standard orientation:
 ---------------------------------------------------------------------
 Center     Atomic      Atomic             Coordinates (Angstroms)
 Number     Number       Type             X           Y           Z
 ---------------------------------------------------------------------
      1          6           0        3.305404   -0.091140    0.704626
      2          6           0        2.641273   -1.459488    0.861271
      3          6           0        1.315155   -1.389674    1.619116
      4          1           0        3.472378    0.344335    1.699325
      5          1           0        2.616810    0.584872    0.179040
      6          1           0        3.331457   -2.133120    1.385182
      7          1           0        2.476035   -1.891841   -0.133909
      8          1           0        0.606362   -0.739491    1.096167
      9          1           0        1.466645   -0.982141    2.623889
     10          1           0        0.857645   -2.378836    1.719637
     11          6           0        4.632062   -0.144570   -0.050921
     12          6           0        5.296193    1.223778   -0.207566
     13          6           0        6.622312    1.153964   -0.965411
     14          1           0        5.320657   -0.820582    0.474666
     15          1           0        4.465089   -0.580046   -1.045620
     16          1           0        5.461431    1.656130    0.787615
     17          1           0        4.606009    1.897410   -0.731476
     18          1           0        6.470822    0.746431   -1.970184
     19          1           0        7.331104    0.503781   -0.442462
     20          1           0        7.079822    2.143125   -1.065932
     21          6           0       -4.221253    2.236728    0.459110
     22          6           0       -4.940430    1.037019    0.460285
     23          6           0       -4.329686   -0.157295    0.066387
     24          6           0       -2.992230   -0.115263   -0.324426
     25          6           0       -2.249075    1.064088   -0.336354
     26          6           0       -2.880235    2.246418    0.061496
     27          1           0       -4.703624    3.159844    0.766635
     28          1           0       -5.982010    1.026500    0.768584
     29          1           0       -4.862960   -1.100143    0.057803
     30          1           0       -1.212109    1.043020   -0.648887
     31          1           0       -2.319249    3.176652    0.059588
     32          7           0       -2.334856   -1.373285   -0.743519
     33          8           0       -1.155430   -1.309615   -1.083431
     34          8           0       -3.011478   -2.399172   -0.724158
 ---------------------------------------------------------------------

 SCF Done:  E(RHF) =  -669.536018444     A.U. after   15 cycles
 E2 =    -0.2091404447D+01 EUMP2 =    -0.67162742289171D+03

 The electronic state is 1-A.
 Alpha  occ. eigenvalues --  -20.60910 -20.60899 -15.85930 -11.31267 -11.27836
 Alpha  occ. eigenvalues --  -11.27823 -11.27565 -11.26842 -11.26832 -11.21344
 Alpha  occ. eigenvalues --  -11.20984 -11.20902 -11.20845 -11.20797 -11.20164
 Alpha  occ. eigenvalues --   -1.59961  -1.39520  -1.19434  -1.08835  -1.07951
 Alpha  occ. eigenvalues --   -1.04834  -1.02992  -0.95682  -0.95446  -0.86477
 Alpha  occ. eigenvalues --   -0.86234  -0.82512  -0.79087  -0.77765  -0.77560
 Alpha  occ. eigenvalues --   -0.72162  -0.71274  -0.70545  -0.65094  -0.64839
 Alpha  occ. eigenvalues --   -0.64574  -0.62186  -0.60371  -0.58846  -0.57057
 Alpha  occ. eigenvalues --   -0.55337  -0.54735  -0.53160  -0.52928  -0.52133
 Alpha  occ. eigenvalues --   -0.51895  -0.49441  -0.48915  -0.48897  -0.47401
 Alpha  occ. eigenvalues --   -0.46148  -0.45339  -0.45231  -0.44770  -0.43267
 Alpha  occ. eigenvalues --   -0.37410  -0.36432
 Alpha virt. eigenvalues --    0.04941   0.11169   0.16423   0.21045   0.23204
 Alpha virt. eigenvalues --    0.24472   0.26346   0.27445   0.27795   0.28268
 Alpha virt. eigenvalues --    0.28884   0.30535   0.31570   0.32253   0.32476

 Mulliken charges:
               1
     1  C   -0.296729
     2  C   -0.299953
     3  C   -0.475302
     4  H    0.146191
     5  H    0.144748
     6  H    0.148556
     7  H    0.161815
     8  H    0.158452
     9  H    0.145705
    10  H    0.164528
    11  C   -0.298305
    12  C   -0.298887
    13  C   -0.475464
    14  H    0.149219
    15  H    0.151836
    16  H    0.150373
    17  H    0.149516
    18  H    0.155745
    19  H    0.155218
    20  H    0.158514
    21  C   -0.170636
    22  C   -0.218406
    23  C   -0.170832
    24  C    0.159094
    25  C   -0.171504
    26  C   -0.218417
    27  H    0.225939
    28  H    0.223768
    29  H    0.275790
    30  H    0.275554
    31  H    0.223934
    32  N    0.488630
    33  O   -0.459590
    34  O   -0.459103
 Sum of Mulliken charges =  -0.00000

 Dipole moment (field-independent basis, Debye):
    X=             -2.5054    Y=              4.3317    Z=              1.3754  Tot=              5.1897
 Quadrupole moment (field-independent basis, Debye-Ang):
   XX=            -78.4264   YY=            -94.8419   ZZ=            -96.2560
   XY=            -11.2075   XZ=             -3.8869   YZ=             -2.0089

 Normal termination of Gaussian 16 at Wed May  5 18:46:04 2021.
