 Gaussian 16, Revision A.03,
 Gaussian 16:  EM64L-G16RevA.03 25-Dec-2016

 -------------
 #p 6-31g* mp2
 -------------

 ------------------------------------------------------
 Input file generated by CHIRIPA (05-May-2021 14:51:12)
 ------------------------------------------------------
 Symbolic Z-matrix:
 Charge =  0 Multiplicity = 1

                         Standard orientation:
 ---------------------------------------------------------------------
 Center     Atomic      Atomic             Coordinates (Angstroms)
 Number     Number       Type             X           Y           Z
 ---------------------------------------------------------------------
      1          6           0        3.041459    0.946318    0.261437
      2          6           0        2.715611    2.318969   -0.328171
      3          6           0        3.092143    3.468542    0.606975
      4          1           0        2.513766    0.830566    1.218039
      5          1           0        4.115367    0.898315    0.489062
      6          1           0        1.642886    2.363876   -0.555900
      7          1           0        3.243989    2.431391   -1.283573
      8          1           0        4.164851    3.452040    0.825209
      9          1           0        2.554650    3.384141    1.557017
     10          1           0        2.850615    4.440563    0.165727
     11          6           0        2.670790   -0.213043   -0.661717
     12          6           0        2.996638   -1.585693   -0.072109
     13          6           0        2.620106   -2.735266   -1.007255
     14          1           0        1.596882   -0.165039   -0.889342
     15          1           0        3.198483   -0.097290   -1.618318
     16          1           0        2.468260   -1.698115    0.883294
     17          1           0        4.069363   -1.630600    0.155620
     18          1           0        3.157599   -2.650866   -1.957297
     19          1           0        1.547398   -2.718765   -1.225489
     20          1           0        2.861634   -3.707287   -0.566007
     21          6           0       -3.365589   -0.122452   -0.313914
     22          6           0       -4.206803    1.055659    0.178427
     23          6           0       -5.221424    1.532854   -0.861104
     24          1           0       -2.840599    0.169192   -1.233846
     25          1           0       -4.032705   -0.952585   -0.584522
     26          1           0       -3.538218    1.882834    0.449333
     27          1           0       -4.729703    0.761239    1.097398
     28          1           0       -5.911703    0.725034   -1.124817
     29          1           0       -4.713449    1.853002   -1.776564
     30          1           0       -5.811968    2.375573   -0.488354
     31          6           0       -2.346660   -0.610824    0.714194
     32          6           0       -1.505445   -1.788934    0.221853
     33          6           0       -0.490825   -2.266130    1.261384
     34          1           0       -1.679545    0.219310    0.984803
     35          1           0       -2.871651   -0.902469    1.634125
     36          1           0       -0.982547   -1.494514   -0.697119
     37          1           0       -2.174031   -2.616109   -0.049053
     38          1           0       -0.998801   -2.586278    2.176844
     39          1           0        0.199453   -1.458310    1.525097
     40          1           0        0.099718   -3.108849    0.888634
 ---------------------------------------------------------------------

 SCF Done:  E(RHF) =  -470.732276207     A.U. after   11 cycles
 E2 =    -0.1584464135D+01 EUMP2 =    -0.47231674034206D+03

 The electronic state is 1-A.
 Alpha  occ. eigenvalues --  -11.21686 -11.21641 -11.21635 -11.21492 -11.21469
 Alpha  occ. eigenvalues --  -11.21420 -11.21405 -11.21353 -11.21099 -11.21097
 Alpha  occ. eigenvalues --  -11.21090 -11.21021  -1.08511  -1.08414  -1.03644
 Alpha  occ. eigenvalues --   -1.03466  -0.96081  -0.95935  -0.87057  -0.86994
 Alpha  occ. eigenvalues --   -0.79709  -0.79539  -0.78332  -0.78213  -0.65361
 Alpha  occ. eigenvalues --   -0.64894  -0.61329  -0.60651  -0.59378  -0.59326
 Alpha  occ. eigenvalues --   -0.57674  -0.57579  -0.55395  -0.55163  -0.52717
 Alpha  occ. eigenvalues --   -0.52643  -0.52473  -0.52389  -0.50091  -0.49824
 Alpha  occ. eigenvalues --   -0.47997  -0.47852  -0.46944  -0.46431  -0.45924
 Alpha  occ. eigenvalues --   -0.45858  -0.45679  -0.45496  -0.43827  -0.43777
 Alpha virt. eigenvalues --    0.19471   0.23191   0.23386   0.25213   0.25542
 Alpha virt. eigenvalues --    0.25971   0.26826   0.27883   0.28434   0.29549
 Alpha virt. eigenvalues --    0.30341   0.31136   0.31631   0.31938   0.32455

 Mulliken charges:
               1
     1  C   -0.298794
     2  C   -0.299489
     3  C   -0.475720
     4  H    0.148972
     5  H    0.150080
     6  H    0.151167
     7  H    0.152200
     8  H    0.155398
     9  H    0.155128
    10  H    0.160294
    11  C   -0.301349
    12  C   -0.302657
    13  C   -0.479477
    14  H    0.150896
    15  H    0.149854
    16  H    0.157786
    17  H    0.151453
    18  H    0.154926
    19  H    0.158701
    20  H    0.159473
    21  C   -0.298399
    22  C   -0.299698
    23  C   -0.475759
    24  H    0.149636
    25  H    0.149806
    26  H    0.151897
    27  H    0.152059
    28  H    0.155278
    29  H    0.155293
    30  H    0.160408
    31  C   -0.298573
    32  C   -0.303423
    33  C   -0.481299
    34  H    0.149148
    35  H    0.150180
    36  H    0.153760
    37  H    0.152654
    38  H    0.155374
    39  H    0.157607
    40  H    0.165206
 Sum of Mulliken charges =  -0.00000

 Dipole moment (field-independent basis, Debye):
    X=             -0.0252    Y=             -0.0200    Z=              0.0161  Tot=              0.0360
 Quadrupole moment (field-independent basis, Debye-Ang):
   XX=            -84.1031   YY=            -85.3982   ZZ=            -85.2182
   XY=              0.6998   XZ=             -1.2449   YZ=             -0.5489

 Normal termination of Gaussian 16 at Wed May  5 16:48:50 2021.
