 Gaussian 16, Revision A.03,
 Gaussian 16:  EM64L-G16RevA.03 25-Dec-2016

 -------------
 #p 6-31g* mp2
 -------------

 ------------------------------------------------------
 Input file generated by CHIRIPA (05-May-2021 14:55:22)
 ------------------------------------------------------
 Symbolic Z-matrix:
 Charge =  0 Multiplicity = 1

                         Standard orientation:
 ---------------------------------------------------------------------
 Center     Atomic      Atomic             Coordinates (Angstroms)
 Number     Number       Type             X           Y           Z
 ---------------------------------------------------------------------
      1          6           0        4.238349    0.484318   -0.854545
      2          6           0        3.499396   -0.426427   -1.616788
      3          6           0        2.366787   -1.046495   -1.080821
      4          6           0        2.000012   -0.731124    0.226583
      5          6           0        2.715599    0.171982    1.011202
      6          6           0        3.844785    0.780094    0.454709
      7          1           0        5.116857    0.961358   -1.278869
      8          1           0        3.802699   -0.658044   -2.633845
      9          1           0        1.776494   -1.755351   -1.648708
     10          1           0        2.388554    0.382712    2.022168
     11          1           0        4.416756    1.486994    1.049005
     12          7           0        0.802781   -1.381234    0.804852
     13          8           0        0.500503   -1.086375    1.959115
     14          8           0        0.189339   -2.173340    0.092887
     15          6           0       -2.988908    0.058715   -0.237137
     16          6           0       -4.493332   -0.200676   -0.323200
     17          6           0       -4.830223   -1.685691   -0.461149
     18          1           0       -2.501329   -0.347584   -1.133872
     19          1           0       -2.577223   -0.492731    0.619495
     20          1           0       -4.902294    0.352199   -1.178592
     21          1           0       -4.977411    0.206458    0.573754
     22          1           0       -4.449367   -2.248473    0.397236
     23          1           0       -4.373824   -2.101904   -1.365067
     24          1           0       -5.910885   -1.848325   -0.521000
     25          6           0       -2.636259    1.538670   -0.098933
     26          6           0       -1.131833    1.798060   -0.012870
     27          6           0       -0.794942    3.283075    0.125078
     28          1           0       -3.047943    2.090114   -0.955566
     29          1           0       -3.123837    1.944969    0.797801
     30          1           0       -0.647755    1.390927   -0.909825
     31          1           0       -0.722872    1.245185    0.842521
     32          1           0       -1.251342    3.699288    1.028996
     33          1           0       -1.175798    3.845858   -0.733307
     34          1           0        0.285720    3.445708    0.184928
 ---------------------------------------------------------------------

 SCF Done:  E(RHF) =  -669.536657617     A.U. after   15 cycles
 E2 =    -0.2093389534D+01 EUMP2 =    -0.67163004715090D+03

 The electronic state is 1-A.
 Alpha  occ. eigenvalues --  -20.61001 -20.60963 -15.85967 -11.31275 -11.27834
 Alpha  occ. eigenvalues --  -11.27830 -11.27566 -11.26842 -11.26833 -11.21024
 Alpha  occ. eigenvalues --  -11.20756 -11.20695 -11.20637 -11.20231 -11.20114
 Alpha  occ. eigenvalues --   -1.60014  -1.39576  -1.19438  -1.08847  -1.07609
 Alpha  occ. eigenvalues --   -1.04834  -1.02806  -0.95695  -0.95242  -0.86264
 Alpha  occ. eigenvalues --   -0.86236  -0.82536  -0.78915  -0.77596  -0.77376
 Alpha  occ. eigenvalues --   -0.72207  -0.71295  -0.70551  -0.65100  -0.64840
 Alpha  occ. eigenvalues --   -0.64231  -0.62184  -0.60205  -0.58651  -0.56856
 Alpha  occ. eigenvalues --   -0.55342  -0.54521  -0.53152  -0.52928  -0.51999
 Alpha  occ. eigenvalues --   -0.51664  -0.49196  -0.48983  -0.48957  -0.47239
 Alpha  occ. eigenvalues --   -0.46031  -0.45072  -0.44882  -0.44539  -0.43018
 Alpha  occ. eigenvalues --   -0.37396  -0.36429
 Alpha virt. eigenvalues --    0.04900   0.11176   0.16381   0.21318   0.23660
 Alpha virt. eigenvalues --    0.24947   0.27170   0.27544   0.27711   0.28540
 Alpha virt. eigenvalues --    0.28674   0.30990   0.31932   0.32148   0.32380

 Mulliken charges:
               1
     1  C   -0.170512
     2  C   -0.218527
     3  C   -0.171450
     4  C    0.161817
     5  C   -0.171562
     6  C   -0.218782
     7  H    0.225947
     8  H    0.223718
     9  H    0.275610
    10  H    0.275722
    11  H    0.223857
    12  N    0.489785
    13  O   -0.460529
    14  O   -0.457126
    15  C   -0.303722
    16  C   -0.299521
    17  C   -0.474894
    18  H    0.149301
    19  H    0.168557
    20  H    0.146777
    21  H    0.149752
    22  H    0.161307
    23  H    0.154688
    24  H    0.155304
    25  C   -0.296434
    26  C   -0.310797
    27  C   -0.474239
    28  H    0.144926
    29  H    0.148776
    30  H    0.146805
    31  H    0.162597
    32  H    0.155533
    33  H    0.153436
    34  H    0.153879
 Sum of Mulliken charges =  -0.00000

 Dipole moment (field-independent basis, Debye):
    X=              4.3650    Y=              2.0578    Z=             -1.9330  Tot=              5.1985
 Quadrupole moment (field-independent basis, Debye-Ang):
   XX=            -79.1112   YY=            -98.9347   ZZ=            -91.2135
   XY=              1.9081   XZ=             -2.9874   YZ=              4.3631

 Normal termination of Gaussian 16 at Thu May  6 10:56:55 2021.
