 Gaussian 16, Revision A.03,
 Gaussian 16:  EM64L-G16RevA.03 25-Dec-2016

 -------------
 #p 6-31g* mp2
 -------------

 ------------------------------------------------------
 Input file generated by CHIRIPA (05-May-2021 14:57:27)
 ------------------------------------------------------
 Symbolic Z-matrix:
 Charge =  0 Multiplicity = 1

                         Standard orientation:
 ---------------------------------------------------------------------
 Center     Atomic      Atomic             Coordinates (Angstroms)
 Number     Number       Type             X           Y           Z
 ---------------------------------------------------------------------
      1          6           0       -5.312942    0.482033    0.543805
      2          6           0       -4.436692    1.415914   -0.018842
      3          6           0       -3.137294    1.044475   -0.376818
      4          6           0       -2.745549   -0.275213   -0.157164
      5          6           0       -3.595282   -1.228731    0.401448
      6          6           0       -4.890186   -0.834987    0.751788
      7          1           0       -6.320600    0.779239    0.818924
      8          1           0       -4.762285    2.439424   -0.181514
      9          1           0       -2.438374    1.747100   -0.814136
     10          1           0       -3.242007   -2.241698    0.551487
     11          1           0       -5.568539   -1.562385    1.188565
     12          7           0       -1.372313   -0.680246   -0.532096
     13          8           0       -1.051422   -1.849071   -0.328348
     14          8           0       -0.642865    0.178785   -1.022615
     15          6           0        3.457186   -2.267423    0.075411
     16          6           0        3.624876   -1.530701    1.252542
     17          6           0        3.358967   -0.158357    1.275212
     18          6           0        2.924956    0.447818    0.097301
     19          6           0        2.748309   -0.258978   -1.091196
     20          6           0        3.020209   -1.630334   -1.090646
     21          1           0        3.666078   -3.333110    0.066819
     22          1           0        3.964113   -2.022831    2.159611
     23          1           0        3.480337    0.436005    2.172664
     24          1           0        2.408814    0.259447   -1.979676
     25          1           0        2.889094   -2.199966   -2.006274
     26          7           0        2.640279    1.900134    0.109010
     27          8           0        2.259035    2.410667   -0.942012
     28          8           0        2.803785    2.500427    1.168987
 ---------------------------------------------------------------------

 SCF Done:  E(RHF) =  -868.339088269     A.U. after   16 cycles
 E2 =    -0.2600119814D+01 EUMP2 =    -0.87093920808323D+03

 The electronic state is 1-A.
 Alpha  occ. eigenvalues --  -20.60958 -20.60928 -20.59537 -20.59487 -15.85970
 Alpha  occ. eigenvalues --  -15.84556 -11.31183 -11.29643 -11.27775 -11.27682
 Alpha  occ. eigenvalues --  -11.27473 -11.26753 -11.26689 -11.26357 -11.26169
 Alpha  occ. eigenvalues --  -11.26056 -11.25328 -11.25166  -1.60013  -1.58584
 Alpha  occ. eigenvalues --   -1.39567  -1.38145  -1.19348  -1.17844  -1.08778
 Alpha  occ. eigenvalues --   -1.07308  -1.04724  -1.03235  -0.95636  -0.94183
 Alpha  occ. eigenvalues --   -0.86132  -0.84663  -0.82466  -0.81042  -0.77524
 Alpha  occ. eigenvalues --   -0.76093  -0.72213  -0.71327  -0.70808  -0.70456
 Alpha  occ. eigenvalues --   -0.69864  -0.69031  -0.65003  -0.64729  -0.63538
 Alpha  occ. eigenvalues --   -0.63296  -0.62066  -0.60614  -0.55248  -0.53828
 Alpha  occ. eigenvalues --   -0.53069  -0.52813  -0.51597  -0.51377  -0.48956
 Alpha  occ. eigenvalues --   -0.48902  -0.47562  -0.47532  -0.45016  -0.43604
 Alpha  occ. eigenvalues --   -0.37332  -0.36321  -0.35818  -0.34744
 Alpha virt. eigenvalues --    0.04982   0.06468   0.11334   0.12888   0.16504
 Alpha virt. eigenvalues --    0.17973   0.21489   0.22753   0.27415   0.28378
 Alpha virt. eigenvalues --    0.28657   0.29643   0.31050   0.32205   0.32664

 Mulliken charges:
               1
     1  C   -0.170298
     2  C   -0.218803
     3  C   -0.170608
     4  C    0.157160
     5  C   -0.171124
     6  C   -0.218852
     7  H    0.225911
     8  H    0.225566
     9  H    0.281918
    10  H    0.273600
    11  H    0.222766
    12  N    0.489052
    13  O   -0.463933
    14  O   -0.460089
    15  C   -0.167730
    16  C   -0.219964
    17  C   -0.173082
    18  C    0.156473
    19  C   -0.146356
    20  C   -0.213643
    21  H    0.220282
    22  H    0.216460
    23  H    0.269294
    24  H    0.276277
    25  H    0.220152
    26  N    0.489262
    27  O   -0.460098
    28  O   -0.469592
 Sum of Mulliken charges =  -0.00000

 Dipole moment (field-independent basis, Debye):
    X=             -4.1726    Y=             -3.6420    Z=              1.0118  Tot=              5.6301
 Quadrupole moment (field-independent basis, Debye-Ang):
   XX=            -74.2497   YY=           -107.0462   ZZ=           -101.0709
   XY=            -16.6414   XZ=             -2.6516   YZ=             -2.6632

 Normal termination of Gaussian 16 at Thu May  6 06:49:26 2021.
