 Gaussian 16, Revision A.03,
 Gaussian 16:  EM64L-G16RevA.03 25-Dec-2016

 -------------
 #p 6-31g* mp2
 -------------

 ------------------------------------------------------
 Input file generated by CHIRIPA (05-May-2021 14:51:09)
 ------------------------------------------------------
 Symbolic Z-matrix:
 Charge =  0 Multiplicity = 1

                         Standard orientation:
 ---------------------------------------------------------------------
 Center     Atomic      Atomic             Coordinates (Angstroms)
 Number     Number       Type             X           Y           Z
 ---------------------------------------------------------------------
      1          6           0       -1.944299    0.538043    0.271310
      2          6           0       -2.968911    1.608356    0.648914
      3          6           0       -2.322527    2.867939    1.226352
      4          1           0       -1.354199    0.274727    1.159788
      5          1           0       -1.238875    0.957262   -0.459462
      6          1           0       -3.673020    1.186816    1.377715
      7          1           0       -3.556768    1.869016   -0.240522
      8          1           0       -1.634208    3.314608    0.501573
      9          1           0       -1.751122    2.628532    2.129004
     10          1           0       -3.073071    3.619833    1.489410
     11          6           0       -2.575176   -0.727192   -0.307397
     12          6           0       -1.550564   -1.797506   -0.685002
     13          6           0       -2.196947   -3.057088   -1.262439
     14          1           0       -3.280600   -1.146411    0.423375
     15          1           0       -3.165275   -0.463877   -1.195875
     16          1           0       -0.962707   -2.058166    0.204435
     17          1           0       -0.846454   -1.375966   -1.413802
     18          1           0       -2.768353   -2.817681   -2.165091
     19          1           0       -2.885266   -3.503757   -0.537661
     20          1           0       -1.446404   -3.808983   -1.525497
     21          6           0        2.615807    0.745863   -0.162151
     22          6           0        1.695721    1.780536   -0.810904
     23          6           0        2.422581    3.078084   -1.165639
     24          1           0        3.061264    1.177913    0.744406
     25          1           0        3.448047    0.526093   -0.845138
     26          1           0        0.864715    1.997259   -0.127475
     27          1           0        1.252254    1.345905   -1.715918
     28          1           0        3.240693    2.882191   -1.866297
     29          1           0        2.850952    3.537246   -0.268829
     30          1           0        1.746174    3.803614   -1.628175
     31          6           0        1.903668   -0.556714    0.198238
     32          6           0        2.823754   -1.591386    0.846991
     33          6           0        2.096893   -2.888934    1.201727
     34          1           0        1.071427   -0.336943    0.881226
     35          1           0        1.458211   -0.988764   -0.708319
     36          1           0        3.267221   -1.156756    1.752004
     37          1           0        3.654760   -1.808111    0.163561
     38          1           0        1.668523   -3.348096    0.304916
     39          1           0        1.278781   -2.693041    1.902384
     40          1           0        2.773301   -3.614464    1.664262
 ---------------------------------------------------------------------

 SCF Done:  E(RHF) =  -470.730652133     A.U. after   11 cycles
 E2 =    -0.1586824749D+01 EUMP2 =    -0.47231747688185D+03

 The electronic state is 1-A.
 Alpha  occ. eigenvalues --  -11.21582 -11.21556 -11.21549 -11.21469 -11.21329
 Alpha  occ. eigenvalues --  -11.21325 -11.21258 -11.21202 -11.21105 -11.21078
 Alpha  occ. eigenvalues --  -11.21058 -11.21016  -1.08490  -1.08283  -1.03564
 Alpha  occ. eigenvalues --   -1.03445  -0.95977  -0.95930  -0.87007  -0.86939
 Alpha  occ. eigenvalues --   -0.79774  -0.79397  -0.78804  -0.77625  -0.65121
 Alpha  occ. eigenvalues --   -0.64945  -0.60939  -0.60879  -0.59507  -0.59161
 Alpha  occ. eigenvalues --   -0.57674  -0.57468  -0.55262  -0.55235  -0.52717
 Alpha  occ. eigenvalues --   -0.52624  -0.52472  -0.52297  -0.49913  -0.49889
 Alpha  occ. eigenvalues --   -0.48306  -0.47634  -0.46904  -0.46624  -0.46537
 Alpha  occ. eigenvalues --   -0.45760  -0.45250  -0.44591  -0.43753  -0.43692
 Alpha virt. eigenvalues --    0.21315   0.22075   0.23328   0.23613   0.25218
 Alpha virt. eigenvalues --    0.25782   0.26276   0.27911   0.28111   0.30555
 Alpha virt. eigenvalues --    0.31034   0.31319   0.31613   0.32123   0.32464

 Mulliken charges:
               1
     1  C   -0.306538
     2  C   -0.298811
     3  C   -0.477799
     4  H    0.149115
     5  H    0.159362
     6  H    0.151543
     7  H    0.151749
     8  H    0.156616
     9  H    0.154369
    10  H    0.160643
    11  C   -0.297637
    12  C   -0.304733
    13  C   -0.475555
    14  H    0.148651
    15  H    0.148848
    16  H    0.158434
    17  H    0.152844
    18  H    0.154564
    19  H    0.154975
    20  H    0.159355
    21  C   -0.297347
    22  C   -0.306986
    23  C   -0.474901
    24  H    0.148902
    25  H    0.148708
    26  H    0.160244
    27  H    0.149920
    28  H    0.154998
    29  H    0.155392
    30  H    0.159397
    31  C   -0.305470
    32  C   -0.298987
    33  C   -0.476934
    34  H    0.155057
    35  H    0.154454
    36  H    0.151228
    37  H    0.151393
    38  H    0.156541
    39  H    0.154183
    40  H    0.160213
 Sum of Mulliken charges =  -0.00000

 Dipole moment (field-independent basis, Debye):
    X=              0.0008    Y=              0.0056    Z=              0.0042  Tot=              0.0071
 Quadrupole moment (field-independent basis, Debye-Ang):
   XX=            -85.2685   YY=            -86.5562   ZZ=            -83.3970
   XY=             -0.8357   XZ=             -0.2849   YZ=             -0.1347

 Normal termination of Gaussian 16 at Thu May  6 02:08:14 2021.
