 Gaussian 16, Revision A.03,
 Gaussian 16:  EM64L-G16RevA.03 25-Dec-2016

 -------------
 #p 6-31g* mp2
 -------------

 ------------------------------------------------------
 Input file generated by CHIRIPA (05-May-2021 14:53:17)
 ------------------------------------------------------
 Symbolic Z-matrix:
 Charge =  0 Multiplicity = 1

                         Standard orientation:
 ---------------------------------------------------------------------
 Center     Atomic      Atomic             Coordinates (Angstroms)
 Number     Number       Type             X           Y           Z
 ---------------------------------------------------------------------
      1          6           0       -2.839171    0.467489   -0.783063
      2          6           0       -2.364196    1.854731   -0.349536
      3          6           0       -1.246517    2.401359   -1.238234
      4          1           0       -1.986750   -0.225451   -0.770518
      5          1           0       -3.187575    0.515610   -1.824069
      6          1           0       -2.018081    1.804308    0.690790
      7          1           0       -3.217886    2.544405   -0.362930
      8          1           0       -1.583915    2.480377   -2.276752
      9          1           0       -0.377293    1.736075   -1.217045
     10          1           0       -0.922125    3.393926   -0.910453
     11          6           0       -3.956313   -0.092384    0.095721
     12          6           0       -4.431288   -1.479625   -0.337807
     13          6           0       -5.548967   -2.026253    0.550891
     14          1           0       -3.607909   -0.140505    1.136727
     15          1           0       -4.808734    0.600557    0.083176
     16          1           0       -3.577598   -2.169300   -0.324413
     17          1           0       -4.777403   -1.429203   -1.378133
     18          1           0       -6.418191   -1.360970    0.529702
     19          1           0       -5.211569   -2.105272    1.589409
     20          1           0       -5.873359   -3.018821    0.223111
     21          6           0        1.442587    1.534649    1.707547
     22          6           0        1.628864    0.226236    2.165670
     23          6           0        2.298873   -0.713622    1.376808
     24          6           0        2.771648   -0.309056    0.129371
     25          6           0        2.601747    0.987045   -0.354929
     26          6           0        1.928766    1.910215    0.450924
     27          1           0        0.920953    2.258271    2.326954
     28          1           0        1.252364   -0.068244    3.141158
     29          1           0        2.456927   -1.733172    1.706889
     30          1           0        2.988382    1.250991   -1.331794
     31          1           0        1.785553    2.925653    0.092563
     32          7           0        3.482530   -1.295207   -0.714757
     33          8           0        3.889486   -0.913787   -1.809993
     34          8           0        3.619301   -2.430899   -0.265164
 ---------------------------------------------------------------------

 SCF Done:  E(RHF) =  -669.534872983     A.U. after   15 cycles
 E2 =    -0.2092757928D+01 EUMP2 =    -0.67162763091023D+03

 The electronic state is 1-A.
 Alpha  occ. eigenvalues --  -20.60821 -20.60815 -15.85874 -11.31273 -11.27809
 Alpha  occ. eigenvalues --  -11.27797 -11.27550 -11.26861 -11.26820 -11.22080
 Alpha  occ. eigenvalues --  -11.21812 -11.21713 -11.21653 -11.21518 -11.21271
 Alpha  occ. eigenvalues --   -1.59895  -1.39448  -1.19439  -1.08837  -1.08744
 Alpha  occ. eigenvalues --   -1.04847  -1.03865  -0.96322  -0.95654  -0.87354
 Alpha  occ. eigenvalues --   -0.86223  -0.82486  -0.79941  -0.78557  -0.77527
 Alpha  occ. eigenvalues --   -0.72090  -0.71219  -0.70526  -0.65396  -0.65082
 Alpha  occ. eigenvalues --   -0.64832  -0.62193  -0.61271  -0.59705  -0.57933
 Alpha  occ. eigenvalues --   -0.55673  -0.55325  -0.53237  -0.53084  -0.52830
 Alpha  occ. eigenvalues --   -0.52685  -0.50222  -0.48851  -0.48844  -0.48251
 Alpha  occ. eigenvalues --   -0.46964  -0.46100  -0.46018  -0.44846  -0.44130
 Alpha  occ. eigenvalues --   -0.37398  -0.36368
 Alpha virt. eigenvalues --    0.04965   0.11190   0.16405   0.20709   0.22685
 Alpha virt. eigenvalues --    0.24063   0.26203   0.26379   0.26987   0.28251
 Alpha virt. eigenvalues --    0.28532   0.29854   0.31153   0.31578   0.31960

 Mulliken charges:
               1
     1  C   -0.299223
     2  C   -0.297791
     3  C   -0.481272
     4  H    0.152823
     5  H    0.151451
     6  H    0.145563
     7  H    0.152368
     8  H    0.157629
     9  H    0.163127
    10  H    0.149981
    11  C   -0.298022
    12  C   -0.300205
    13  C   -0.475748
    14  H    0.146860
    15  H    0.149647
    16  H    0.153483
    17  H    0.153283
    18  H    0.155149
    19  H    0.154034
    20  H    0.161764
    21  C   -0.171557
    22  C   -0.218631
    23  C   -0.171848
    24  C    0.159242
    25  C   -0.173819
    26  C   -0.215202
    27  H    0.226245
    28  H    0.223737
    29  H    0.275722
    30  H    0.276421
    31  H    0.226895
    32  N    0.488040
    33  O   -0.459932
    34  O   -0.460216
 Sum of Mulliken charges =  -0.00000

 Dipole moment (field-independent basis, Debye):
    X=             -2.4862    Y=              3.4062    Z=              2.9472  Tot=              5.1449
 Quadrupole moment (field-independent basis, Debye-Ang):
   XX=           -109.4406   YY=            -95.1673   ZZ=            -91.7284
   XY=             10.5245   XZ=              8.4641   YZ=             -3.1924

 Normal termination of Gaussian 16 at Thu May  6 04:21:32 2021.
