 Gaussian 16, Revision A.03,
 Gaussian 16:  EM64L-G16RevA.03 25-Dec-2016

 -------------
 #p 6-31g* mp2
 -------------

 ------------------------------------------------------
 Input file generated by CHIRIPA (05-May-2021 14:55:19)
 ------------------------------------------------------
 Symbolic Z-matrix:
 Charge =  0 Multiplicity = 1

                         Standard orientation:
 ---------------------------------------------------------------------
 Center     Atomic      Atomic             Coordinates (Angstroms)
 Number     Number       Type             X           Y           Z
 ---------------------------------------------------------------------
      1          6           0       -2.752394    2.310224    0.792052
      2          6           0       -3.423221    1.776193   -0.313083
      3          6           0       -3.188188    0.458807   -0.717806
      4          6           0       -2.271662   -0.299697    0.008790
      5          6           0       -1.587597    0.203843    1.114137
      6          6           0       -1.838334    1.523731    1.500885
      7          1           0       -2.941073    3.334573    1.099469
      8          1           0       -4.133631    2.384673   -0.865456
      9          1           0       -3.693664    0.020205   -1.569593
     10          1           0       -0.885103   -0.427180    1.644920
     11          1           0       -1.315908    1.935828    2.359543
     12          7           0       -2.014531   -1.695679   -0.410157
     13          8           0       -1.202276   -2.343271    0.246733
     14          8           0       -2.630114   -2.115825   -1.387486
     15          6           0        2.833448    0.681242   -0.564714
     16          6           0        3.326981    2.013860   -0.000321
     17          6           0        3.062721    3.188931   -0.942218
     18          1           0        3.322571    0.495811   -1.530798
     19          1           0        1.756161    0.753828   -0.768624
     20          1           0        4.402743    1.938334    0.203759
     21          1           0        2.836770    2.196048    0.964623
     22          1           0        1.990430    3.292773   -1.137180
     23          1           0        3.565300    3.033595   -1.902367
     24          1           0        3.423459    4.131623   -0.519065
     25          6           0        3.090496   -0.503009    0.365450
     26          6           0        2.596963   -1.835627   -0.198943
     27          6           0        2.861223   -3.010698    0.742953
     28          1           0        4.167783   -0.575595    0.569359
     29          1           0        2.601373   -0.317580    1.331534
     30          1           0        3.087174   -2.017815   -1.163888
     31          1           0        1.521201   -1.760102   -0.403023
     32          1           0        2.358644   -2.855362    1.703103
     33          1           0        3.933514   -3.114540    0.937916
     34          1           0        2.500485   -3.953390    0.319800
 ---------------------------------------------------------------------

 SCF Done:  E(RHF) =  -669.536345475     A.U. after   15 cycles
 E2 =    -0.2092003157D+01 EUMP2 =    -0.67162834863144D+03

 The electronic state is 1-A.
 Alpha  occ. eigenvalues --  -20.60996 -20.60991 -15.86012 -11.31337 -11.27903
 Alpha  occ. eigenvalues --  -11.27886 -11.27623 -11.26902 -11.26890 -11.21648
 Alpha  occ. eigenvalues --  -11.21239 -11.21181 -11.21067 -11.20784 -11.20270
 Alpha  occ. eigenvalues --   -1.60049  -1.39606  -1.19501  -1.08903  -1.08162
 Alpha  occ. eigenvalues --   -1.04895  -1.03176  -0.95747  -0.95652  -0.86679
 Alpha  occ. eigenvalues --   -0.86294  -0.82580  -0.79287  -0.77928  -0.77629
 Alpha  occ. eigenvalues --   -0.72237  -0.71360  -0.70603  -0.65158  -0.64908
 Alpha  occ. eigenvalues --   -0.64788  -0.62240  -0.60567  -0.59062  -0.57231
 Alpha  occ. eigenvalues --   -0.55395  -0.54957  -0.53223  -0.52983  -0.52332
 Alpha  occ. eigenvalues --   -0.52079  -0.49631  -0.49008  -0.48992  -0.47595
 Alpha  occ. eigenvalues --   -0.46366  -0.45580  -0.45471  -0.44712  -0.43451
 Alpha  occ. eigenvalues --   -0.37474  -0.36492
 Alpha virt. eigenvalues --    0.04855   0.11118   0.16324   0.20739   0.22877
 Alpha virt. eigenvalues --    0.24317   0.26311   0.27365   0.27841   0.28286
 Alpha virt. eigenvalues --    0.28774   0.30547   0.31599   0.31999   0.32349

 Mulliken charges:
               1
     1  C   -0.170622
     2  C   -0.218441
     3  C   -0.170734
     4  C    0.158201
     5  C   -0.171800
     6  C   -0.218639
     7  H    0.226359
     8  H    0.224112
     9  H    0.276023
    10  H    0.276396
    11  H    0.224229
    12  N    0.487840
    13  O   -0.458770
    14  O   -0.458122
    15  C   -0.298390
    16  C   -0.297885
    17  C   -0.475567
    18  H    0.151122
    19  H    0.147707
    20  H    0.152812
    21  H    0.146104
    22  H    0.153346
    23  H    0.156757
    24  H    0.158445
    25  C   -0.296960
    26  C   -0.307044
    27  C   -0.472087
    28  H    0.148244
    29  H    0.141498
    30  H    0.149293
    31  H    0.167960
    32  H    0.153033
    33  H    0.148984
    34  H    0.166597
 Sum of Mulliken charges =  -0.00000

 Dipole moment (field-independent basis, Debye):
    X=             -1.1146    Y=              4.8050    Z=              1.3984  Tot=              5.1270
 Quadrupole moment (field-independent basis, Debye-Ang):
   XX=            -88.4867   YY=            -99.0129   ZZ=            -92.4721
   XY=            -11.6051   XZ=             -1.2030   YZ=             -0.0967

 Normal termination of Gaussian 16 at Wed May  5 23:43:32 2021.
