 Gaussian 16, Revision A.03,
 Gaussian 16:  EM64L-G16RevA.03 25-Dec-2016

 -------------
 #p 6-31g* mp2
 -------------

 ------------------------------------------------------
 Input file generated by CHIRIPA (05-May-2021 14:53:17)
 ------------------------------------------------------
 Symbolic Z-matrix:
 Charge =  0 Multiplicity = 1

                         Standard orientation:
 ---------------------------------------------------------------------
 Center     Atomic      Atomic             Coordinates (Angstroms)
 Number     Number       Type             X           Y           Z
 ---------------------------------------------------------------------
      1          6           0       -3.369576   -0.016210    0.125019
      2          6           0       -2.340959   -1.133584   -0.052199
      3          6           0       -0.917492   -0.684764    0.279608
      4          1           0       -3.092873    0.833047   -0.514624
      5          1           0       -3.330895    0.347306    1.161241
      6          1           0       -2.382532   -1.495828   -1.087413
      7          1           0       -2.620248   -1.980354    0.587796
      8          1           0       -0.853607   -0.342318    1.317515
      9          1           0       -0.614540    0.144961   -0.367213
     10          1           0       -0.198425   -1.499005    0.146140
     11          6           0       -4.797314   -0.449516   -0.202907
     12          6           0       -5.825931    0.667858   -0.025688
     13          6           0       -7.249398    0.219038   -0.357496
     14          1           0       -4.835995   -0.813032   -1.239128
     15          1           0       -5.074017   -1.298773    0.436736
     16          1           0       -5.546642    1.514628   -0.665684
     17          1           0       -5.784358    1.030102    1.009525
     18          1           0       -7.552350   -0.610687    0.289325
     19          1           0       -7.313283   -0.123408   -1.395402
     20          1           0       -7.968465    1.033279   -0.224027
     21          6           0        2.671140    2.648064    0.151522
     22          6           0        2.170828    1.778728    1.126440
     23          6           0        2.452041    0.410442    1.069335
     24          6           0        3.240371   -0.056493    0.018718
     25          6           0        3.753446    0.784377   -0.967681
     26          6           0        3.459463    2.148993   -0.890589
     27          1           0        2.447726    3.709556    0.203646
     28          1           0        1.558337    2.163510    1.936899
     29          1           0        2.077599   -0.284867    1.810791
     30          1           0        4.361176    0.371277   -1.763565
     31          1           0        3.849362    2.821794   -1.649116
     32          7           0        3.544839   -1.503094   -0.052317
     33          8           0        4.241748   -1.889533   -0.988062
     34          8           0        3.080807   -2.223108    0.829097
 ---------------------------------------------------------------------

 SCF Done:  E(RHF) =  -669.535793311     A.U. after   15 cycles
 E2 =    -0.2091770631D+01 EUMP2 =    -0.67162756394178D+03

 The electronic state is 1-A.
 Alpha  occ. eigenvalues --  -20.60783 -20.60776 -15.85822 -11.31138 -11.27727
 Alpha  occ. eigenvalues --  -11.27706 -11.27472 -11.26732 -11.26716 -11.21718
 Alpha  occ. eigenvalues --  -11.21610 -11.21506 -11.21440 -11.21160 -11.21116
 Alpha  occ. eigenvalues --   -1.59848  -1.39404  -1.19326  -1.08729  -1.08515
 Alpha  occ. eigenvalues --   -1.04726  -1.03600  -0.96065  -0.95565  -0.87088
 Alpha  occ. eigenvalues --   -0.86120  -0.82402  -0.79675  -0.78336  -0.77447
 Alpha  occ. eigenvalues --   -0.72043  -0.71165  -0.70440  -0.65148  -0.64982
 Alpha  occ. eigenvalues --   -0.64730  -0.62080  -0.60999  -0.59412  -0.57663
 Alpha  occ. eigenvalues --   -0.55370  -0.55229  -0.53225  -0.52845  -0.52626
 Alpha  occ. eigenvalues --   -0.52401  -0.50011  -0.48801  -0.48798  -0.47982
 Alpha  occ. eigenvalues --   -0.46703  -0.45876  -0.45802  -0.44824  -0.43841
 Alpha  occ. eigenvalues --   -0.37306  -0.36276
 Alpha virt. eigenvalues --    0.05074   0.11307   0.16542   0.21146   0.22794
 Alpha virt. eigenvalues --    0.24149   0.26188   0.26792   0.27474   0.27947
 Alpha virt. eigenvalues --    0.28786   0.30663   0.31349   0.31759   0.31974

 Mulliken charges:
               1
     1  C   -0.297881
     2  C   -0.300737
     3  C   -0.479484
     4  H    0.147722
     5  H    0.147049
     6  H    0.153821
     7  H    0.154115
     8  H    0.145467
     9  H    0.155046
    10  H    0.170518
    11  C   -0.298331
    12  C   -0.299470
    13  C   -0.475735
    14  H    0.150415
    15  H    0.150703
    16  H    0.150930
    17  H    0.151048
    18  H    0.155799
    19  H    0.155669
    20  H    0.159941
    21  C   -0.171229
    22  C   -0.218728
    23  C   -0.164570
    24  C    0.157226
    25  C   -0.171094
    26  C   -0.218966
    27  H    0.225413
    28  H    0.223394
    29  H    0.276394
    30  H    0.275330
    31  H    0.223110
    32  N    0.488223
    33  O   -0.460179
    34  O   -0.460930
 Sum of Mulliken charges =  -0.00000

 Dipole moment (field-independent basis, Debye):
    X=             -1.0530    Y=              5.0435    Z=              0.2257  Tot=              5.1572
 Quadrupole moment (field-independent basis, Debye-Ang):
   XX=           -102.1596   YY=            -95.7422   ZZ=            -90.6690
   XY=             17.1756   XZ=             -2.0462   YZ=             -0.9482

 Normal termination of Gaussian 16 at Thu May  6 02:47:01 2021.
