 Gaussian 16, Revision A.03,
 Gaussian 16:  EM64L-G16RevA.03 25-Dec-2016

 -------------
 #p 6-31g* mp2
 -------------

 ------------------------------------------------------
 Input file generated by CHIRIPA (05-May-2021 14:51:08)
 ------------------------------------------------------
 Symbolic Z-matrix:
 Charge =  0 Multiplicity = 1

                         Standard orientation:
 ---------------------------------------------------------------------
 Center     Atomic      Atomic             Coordinates (Angstroms)
 Number     Number       Type             X           Y           Z
 ---------------------------------------------------------------------
      1          6           0        3.352098   -0.613892   -0.373496
      2          6           0        4.165106    0.612449    0.042545
      3          6           0        5.304203    0.923842   -0.928683
      4          1           0        4.021324   -1.482086   -0.446433
      5          1           0        2.942562   -0.449510   -1.379803
      6          1           0        4.571840    0.446371    1.048329
      7          1           0        3.493833    1.477783    0.114687
      8          1           0        4.912621    1.115707   -1.932901
      9          1           0        5.996754    0.078434   -0.993953
     10          1           0        5.872314    1.804139   -0.612158
     11          6           0        2.209700   -0.937931    0.587573
     12          6           0        1.396692   -2.164272    0.171532
     13          6           0        0.257594   -2.475665    1.142761
     14          1           0        2.619236   -1.102313    1.593880
     15          1           0        1.540474   -0.069737    0.660511
     16          1           0        2.067965   -3.029606    0.099391
     17          1           0        0.989958   -1.998194   -0.834252
     18          1           0       -0.434956   -1.630257    1.208031
     19          1           0        0.649176   -2.667530    2.146978
     20          1           0       -0.310516   -3.355962    0.826236
     21          6           0       -2.428563    1.414038   -0.335264
     22          6           0       -1.910489    2.267887    0.822547
     23          6           0       -1.208048    3.541092    0.349981
     24          1           0       -1.588371    1.148933   -0.991574
     25          1           0       -3.122020    2.012968   -0.941723
     26          1           0       -1.219279    1.667092    1.427437
     27          1           0       -2.751981    2.530829    1.476281
     28          1           0       -1.892080    4.163722   -0.235708
     29          1           0       -0.350670    3.295077   -0.284829
     30          1           0       -0.845641    4.136464    1.193813
     31          6           0       -3.133235    0.137786    0.121186
     32          6           0       -3.651310   -0.716063   -1.036624
     33          6           0       -4.353750   -1.989269   -0.564058
     34          1           0       -2.439777   -0.461144    0.727647
     35          1           0       -3.973426    0.402890    0.777496
     36          1           0       -2.809817   -0.979006   -1.690359
     37          1           0       -4.342518   -0.115269   -1.641515
     38          1           0       -5.211127   -1.743254    0.070751
     39          1           0       -3.669717   -2.611899    0.021630
     40          1           0       -4.716157   -2.584641   -1.407890
 ---------------------------------------------------------------------

 SCF Done:  E(RHF) =  -470.733406611     A.U. after   11 cycles
 E2 =    -0.1583314598D+01 EUMP2 =    -0.47231672120813D+03

 The electronic state is 1-A.
 Alpha  occ. eigenvalues --  -11.21679 -11.21649 -11.21637 -11.21603 -11.21469
 Alpha  occ. eigenvalues --  -11.21430 -11.21406 -11.21357 -11.21151 -11.21116
 Alpha  occ. eigenvalues --  -11.21096 -11.21052  -1.08496  -1.08450  -1.03590
 Alpha  occ. eigenvalues --   -1.03546  -0.96045  -0.95991  -0.87066  -0.87004
 Alpha  occ. eigenvalues --   -0.79661  -0.79603  -0.78325  -0.78246  -0.65264
 Alpha  occ. eigenvalues --   -0.64969  -0.61030  -0.60903  -0.59408  -0.59360
 Alpha  occ. eigenvalues --   -0.57678  -0.57583  -0.55445  -0.55180  -0.52731
 Alpha  occ. eigenvalues --   -0.52690  -0.52508  -0.52380  -0.50104  -0.49837
 Alpha  occ. eigenvalues --   -0.47987  -0.47920  -0.46779  -0.46621  -0.45961
 Alpha  occ. eigenvalues --   -0.45797  -0.45776  -0.45471  -0.43843  -0.43804
 Alpha virt. eigenvalues --    0.19303   0.22916   0.23708   0.24842   0.25613
 Alpha virt. eigenvalues --    0.26444   0.27370   0.27561   0.27951   0.29449
 Alpha virt. eigenvalues --    0.30873   0.31460   0.31623   0.31743   0.32132

 Mulliken charges:
               1
     1  C   -0.298345
     2  C   -0.299755
     3  C   -0.475749
     4  H    0.149938
     5  H    0.149435
     6  H    0.152084
     7  H    0.152054
     8  H    0.155224
     9  H    0.155234
    10  H    0.160487
    11  C   -0.299472
    12  C   -0.299256
    13  C   -0.483196
    14  H    0.149956
    15  H    0.149905
    16  H    0.152512
    17  H    0.151641
    18  H    0.160992
    19  H    0.155991
    20  H    0.160571
    21  C   -0.298135
    22  C   -0.301012
    23  C   -0.475608
    24  H    0.148899
    25  H    0.149880
    26  H    0.152168
    27  H    0.152493
    28  H    0.155502
    29  H    0.154532
    30  H    0.160609
    31  C   -0.306232
    32  C   -0.299016
    33  C   -0.476471
    34  H    0.157062
    35  H    0.150011
    36  H    0.151625
    37  H    0.151875
    38  H    0.155120
    39  H    0.156375
    40  H    0.160073
 Sum of Mulliken charges =  -0.00000

 Dipole moment (field-independent basis, Debye):
    X=              0.0108    Y=             -0.0074    Z=              0.0141  Tot=              0.0192
 Quadrupole moment (field-independent basis, Debye-Ang):
   XX=            -84.5256   YY=            -85.1721   ZZ=            -84.8975
   XY=             -1.6877   XZ=              0.9237   YZ=              0.0673

 Normal termination of Gaussian 16 at Thu May  6 05:17:37 2021.
