 Gaussian 16, Revision A.03,
 Gaussian 16:  EM64L-G16RevA.03 25-Dec-2016

 -------------
 #p 6-31g* mp2
 -------------

 ------------------------------------------------------
 Input file generated by CHIRIPA (05-May-2021 14:57:23)
 ------------------------------------------------------
 Symbolic Z-matrix:
 Charge =  0 Multiplicity = 1

                         Standard orientation:
 ---------------------------------------------------------------------
 Center     Atomic      Atomic             Coordinates (Angstroms)
 Number     Number       Type             X           Y           Z
 ---------------------------------------------------------------------
      1          6           0        1.393845   -1.281905    0.937121
      2          6           0        2.002509   -1.859330   -0.182088
      3          6           0        3.198878   -1.340727   -0.686371
      4          6           0        3.761575   -0.238959   -0.043901
      5          6           0        3.179341    0.358486    1.072949
      6          6           0        1.983164   -0.176789    1.559969
      7          1           0        0.464551   -1.691244    1.322155
      8          1           0        1.547097   -2.717644   -0.667827
      9          1           0        3.691433   -1.768212   -1.551279
     10          1           0        3.657153    1.213401    1.535803
     11          1           0        1.512705    0.273695    2.429324
     12          7           0        5.028016    0.318887   -0.568626
     13          8           0        5.503630    1.290134    0.015420
     14          8           0        5.521057   -0.225682   -1.554015
     15          6           0       -1.772222    2.073921    0.353856
     16          6           0       -2.790685    2.312303   -0.574815
     17          6           0       -3.782501    1.353675   -0.802586
     18          6           0       -3.724995    0.162390   -0.080906
     19          6           0       -2.723213   -0.104563    0.851007
     20          6           0       -1.741790    0.868374    1.062552
     21          1           0       -1.005793    2.824164    0.524492
     22          1           0       -2.816834    3.247638   -1.126640
     23          1           0       -4.582377    1.512241   -1.515659
     24          1           0       -2.723643   -1.046532    1.385901
     25          1           0       -0.952036    0.680519    1.784386
     26          7           0       -4.769485   -0.860041   -0.313449
     27          8           0       -4.696453   -1.901476    0.335179
     28          8           0       -5.641410   -0.600627   -1.139940
 ---------------------------------------------------------------------

 SCF Done:  E(RHF) =  -868.336281806     A.U. after   16 cycles
 E2 =    -0.2601018926D+01 EUMP2 =    -0.87093730073138D+03

 The electronic state is 1-A.
 Alpha  occ. eigenvalues --  -20.61374 -20.61357 -20.61295 -20.61283 -15.86426
 Alpha  occ. eigenvalues --  -15.86352 -11.31861 -11.31824 -11.28516 -11.28479
 Alpha  occ. eigenvalues --  -11.28380 -11.28377 -11.28239 -11.28152 -11.27580
 Alpha  occ. eigenvalues --  -11.27546 -11.27386 -11.27376  -1.60443  -1.60366
 Alpha  occ. eigenvalues --   -1.39995  -1.39917  -1.20049  -1.20017  -1.09443
 Alpha  occ. eigenvalues --   -1.09378  -1.05493  -1.05432  -0.96234  -0.96223
 Alpha  occ. eigenvalues --   -0.86957  -0.86764  -0.83108  -0.83028  -0.78168
 Alpha  occ. eigenvalues --   -0.78041  -0.72641  -0.72568  -0.71769  -0.71693
 Alpha  occ. eigenvalues --   -0.71200  -0.71092  -0.65839  -0.65692  -0.65632
 Alpha  occ. eigenvalues --   -0.65234  -0.62934  -0.62672  -0.55997  -0.55914
 Alpha  occ. eigenvalues --   -0.53939  -0.53719  -0.53590  -0.53398  -0.49409
 Alpha  occ. eigenvalues --   -0.49392  -0.49333  -0.49314  -0.45387  -0.45298
 Alpha  occ. eigenvalues --   -0.38221  -0.37865  -0.37092  -0.36921
 Alpha virt. eigenvalues --    0.04312   0.04574   0.10218   0.10842   0.15639
 Alpha virt. eigenvalues --    0.16154   0.18304   0.22135   0.24990   0.25372
 Alpha virt. eigenvalues --    0.28005   0.29019   0.30052   0.30906   0.32378

 Mulliken charges:
               1
     1  C   -0.166392
     2  C   -0.218592
     3  C   -0.169474
     4  C    0.158616
     5  C   -0.171225
     6  C   -0.224155
     7  H    0.223059
     8  H    0.228611
     9  H    0.278517
    10  H    0.275970
    11  H    0.216608
    12  N    0.487971
    13  O   -0.460225
    14  O   -0.457956
    15  C   -0.170610
    16  C   -0.217963
    17  C   -0.170099
    18  C    0.159523
    19  C   -0.175539
    20  C   -0.214346
    21  H    0.228050
    22  H    0.226927
    23  H    0.277918
    24  H    0.271017
    25  H    0.215101
    26  N    0.488074
    27  O   -0.461751
    28  O   -0.457632
 Sum of Mulliken charges =  -0.00000

 Dipole moment (field-independent basis, Debye):
    X=             -0.7471    Y=              1.6690    Z=              2.3982  Tot=              3.0158
 Quadrupole moment (field-independent basis, Debye-Ang):
   XX=           -165.3333   YY=            -98.8415   ZZ=           -101.2989
   XY=            -21.2700   XZ=              5.5360   YZ=              0.0522

 Normal termination of Gaussian 16 at Wed May  5 17:50:21 2021.
