 Gaussian 16, Revision A.03,
 Gaussian 16:  EM64L-G16RevA.03 25-Dec-2016

 -------------
 #p 6-31g* mp2
 -------------

 ------------------------------------------------------
 Input file generated by CHIRIPA (05-May-2021 14:53:18)
 ------------------------------------------------------
 Symbolic Z-matrix:
 Charge =  0 Multiplicity = 1

                         Standard orientation:
 ---------------------------------------------------------------------
 Center     Atomic      Atomic             Coordinates (Angstroms)
 Number     Number       Type             X           Y           Z
 ---------------------------------------------------------------------
      1          6           0        3.184000   -0.401548    0.286322
      2          6           0        2.016696   -0.233554   -0.686902
      3          6           0        0.666793   -0.575668   -0.055623
      4          1           0        3.201072   -1.436934    0.653240
      5          1           0        3.015791    0.238250    1.163681
      6          1           0        2.187737   -0.872434   -1.562797
      7          1           0        2.002517    0.801503   -1.051693
      8          1           0        0.470011    0.069836    0.806469
      9          1           0        0.656284   -1.613613    0.292460
     10          1           0       -0.153633   -0.448690   -0.768812
     11          6           0        4.540198   -0.063263   -0.330134
     12          6           0        5.707502   -0.231257    0.643090
     13          6           0        7.057406    0.110858    0.011812
     14          1           0        4.708408   -0.703061   -1.207492
     15          1           0        4.523127    0.972123   -0.697052
     16          1           0        5.721681   -1.266313    1.007881
     17          1           0        5.536462    0.407624    1.518986
     18          1           0        7.067915    1.148802   -0.336272
     19          1           0        7.254187   -0.534646   -0.850280
     20          1           0        7.877831   -0.016121    0.725000
     21          6           0       -2.283744    2.595290   -0.025484
     22          6           0       -2.644651    1.994617    1.185078
     23          6           0       -3.052644    0.657893    1.220560
     24          6           0       -3.088179   -0.051783    0.021232
     25          6           0       -2.734725    0.518549   -1.200685
     26          6           0       -2.329852    1.856640   -1.212410
     27          1           0       -1.968018    3.634220   -0.043819
     28          1           0       -2.609806    2.565833    2.108411
     29          1           0       -3.337452    0.168051    2.143791
     30          1           0       -2.779598   -0.076458   -2.104771
     31          1           0       -2.050133    2.320527   -2.154010
     32          7           0       -3.518451   -1.467637    0.046219
     33          8           0       -3.541199   -2.071257   -1.024183
     34          8           0       -3.824804   -1.946953    1.135733
 ---------------------------------------------------------------------

 SCF Done:  E(RHF) =  -669.534522675     A.U. after   15 cycles
 E2 =    -0.2093066251D+01 EUMP2 =    -0.67162758892570D+03

 The electronic state is 1-A.
 Alpha  occ. eigenvalues --  -20.60760 -20.60755 -15.85814 -11.31181 -11.27790
 Alpha  occ. eigenvalues --  -11.27755 -11.27545 -11.26819 -11.26800 -11.21678
 Alpha  occ. eigenvalues --  -11.21644 -11.21475 -11.21407 -11.21154 -11.20904
 Alpha  occ. eigenvalues --   -1.59834  -1.39388  -1.19392  -1.08775  -1.08486
 Alpha  occ. eigenvalues --   -1.04809  -1.03563  -0.96010  -0.95605  -0.87029
 Alpha  occ. eigenvalues --   -0.86197  -0.82443  -0.79640  -0.78307  -0.77483
 Alpha  occ. eigenvalues --   -0.72036  -0.71156  -0.70505  -0.65120  -0.65046
 Alpha  occ. eigenvalues --   -0.64805  -0.62151  -0.60965  -0.59440  -0.57652
 Alpha  occ. eigenvalues --   -0.55318  -0.55301  -0.53581  -0.52894  -0.52446
 Alpha  occ. eigenvalues --   -0.52180  -0.49914  -0.48796  -0.48788  -0.47957
 Alpha  occ. eigenvalues --   -0.46666  -0.45844  -0.45776  -0.44793  -0.43825
 Alpha  occ. eigenvalues --   -0.37333  -0.36336
 Alpha virt. eigenvalues --    0.05035   0.11189   0.16518   0.21363   0.22811
 Alpha virt. eigenvalues --    0.24306   0.26578   0.27177   0.27443   0.27894
 Alpha virt. eigenvalues --    0.28358   0.30836   0.31350   0.31818   0.31860

 Mulliken charges:
               1
     1  C   -0.298229
     2  C   -0.299129
     3  C   -0.480261
     4  H    0.151880
     5  H    0.147654
     6  H    0.152616
     7  H    0.146653
     8  H    0.152859
     9  H    0.158687
    10  H    0.162807
    11  C   -0.298040
    12  C   -0.299611
    13  C   -0.475659
    14  H    0.150204
    15  H    0.147585
    16  H    0.153090
    17  H    0.151084
    18  H    0.154241
    19  H    0.155663
    20  H    0.160486
    21  C   -0.170696
    22  C   -0.218216
    23  C   -0.170929
    24  C    0.167778
    25  C   -0.179479
    26  C   -0.214226
    27  H    0.225655
    28  H    0.223563
    29  H    0.275887
    30  H    0.275709
    31  H    0.223725
    32  N    0.488059
    33  O   -0.460906
    34  O   -0.460503
 Sum of Mulliken charges =  -0.00000

 Dipole moment (field-independent basis, Debye):
    X=              1.4317    Y=              4.9786    Z=             -0.0670  Tot=              5.1808
 Quadrupole moment (field-independent basis, Debye-Ang):
   XX=           -106.0736   YY=            -94.9277   ZZ=            -89.9011
   XY=            -16.1441   XZ=             -0.1648   YZ=              0.8098

 Normal termination of Gaussian 16 at Thu May  6 04:25:59 2021.
