 Gaussian 16, Revision A.03,
 Gaussian 16:  EM64L-G16RevA.03 25-Dec-2016

 -------------
 #p 6-31g* mp2
 -------------

 ------------------------------------------------------
 Input file generated by CHIRIPA (05-May-2021 14:55:25)
 ------------------------------------------------------
 Symbolic Z-matrix:
 Charge =  0 Multiplicity = 1

                         Standard orientation:
 ---------------------------------------------------------------------
 Center     Atomic      Atomic             Coordinates (Angstroms)
 Number     Number       Type             X           Y           Z
 ---------------------------------------------------------------------
      1          6           0        1.385812   -2.526770   -0.319792
      2          6           0        2.752005   -2.579290   -0.024363
      3          6           0        3.488697   -1.402468    0.139722
      4          6           0        2.824255   -0.184888    0.000772
      5          6           0        1.464245   -0.099740   -0.293189
      6          6           0        0.747418   -1.289344   -0.453027
      7          1           0        0.821247   -3.445918   -0.445608
      8          1           0        3.250417   -3.538876    0.079683
      9          1           0        4.547384   -1.414166    0.368770
     10          1           0        0.995076    0.871732   -0.390861
     11          1           0       -0.313479   -1.245521   -0.682426
     12          7           0        3.593643    1.067726    0.172234
     13          8           0        2.984907    2.127828    0.044712
     14          8           0        4.790857    0.965705    0.430900
     15          6           0       -3.421279    1.239486    0.227392
     16          6           0       -2.292230    1.999767   -0.469175
     17          6           0       -2.242246    3.476078   -0.074460
     18          1           0       -4.380362    1.717766   -0.014172
     19          1           0       -3.294678    1.324973    1.315537
     20          1           0       -2.420144    1.911712   -1.555684
     21          1           0       -1.335741    1.519506   -0.226080
     22          1           0       -2.090986    3.581402    1.004720
     23          1           0       -3.181549    3.975836   -0.332439
     24          1           0       -1.427858    4.000518   -0.583963
     25          6           0       -3.484195   -0.237671   -0.157025
     26          6           0       -4.613244   -0.997952    0.539542
     27          6           0       -4.663228   -2.474262    0.144827
     28          1           0       -3.610796   -0.323157   -1.245170
     29          1           0       -2.525112   -0.715951    0.084539
     30          1           0       -5.569733   -0.517691    0.296447
     31          1           0       -4.485330   -0.909896    1.626051
     32          1           0       -3.723925   -2.974021    0.402805
     33          1           0       -4.814489   -2.579586   -0.934353
     34          1           0       -5.477616   -2.998702    0.654330
 ---------------------------------------------------------------------

 SCF Done:  E(RHF) =  -669.535223703     A.U. after   15 cycles
 E2 =    -0.2092433966D+01 EUMP2 =    -0.67162765766920D+03

 The electronic state is 1-A.
 Alpha  occ. eigenvalues --  -20.60734 -20.60729 -15.85785 -11.31135 -11.27712
 Alpha  occ. eigenvalues --  -11.27680 -11.27445 -11.26726 -11.26666 -11.22327
 Alpha  occ. eigenvalues --  -11.22287 -11.22263 -11.22021 -11.21809 -11.21348
 Alpha  occ. eigenvalues --   -1.59809  -1.39362  -1.19308  -1.09155  -1.08706
 Alpha  occ. eigenvalues --   -1.04711  -1.04161  -0.96591  -0.95544  -0.87601
 Alpha  occ. eigenvalues --   -0.86109  -0.82383  -0.80250  -0.79028  -0.77412
 Alpha  occ. eigenvalues --   -0.72005  -0.71131  -0.70429  -0.65813  -0.64958
 Alpha  occ. eigenvalues --   -0.64722  -0.62097  -0.61515  -0.59959  -0.58215
 Alpha  occ. eigenvalues --   -0.55887  -0.55218  -0.53242  -0.53078  -0.53038
 Alpha  occ. eigenvalues --   -0.52749  -0.50516  -0.48770  -0.48765  -0.48534
 Alpha  occ. eigenvalues --   -0.47279  -0.46517  -0.46423  -0.44771  -0.44430
 Alpha  occ. eigenvalues --   -0.37291  -0.36308
 Alpha virt. eigenvalues --    0.05096   0.11302   0.16537   0.19495   0.22773
 Alpha virt. eigenvalues --    0.23209   0.24738   0.26316   0.26574   0.27829
 Alpha virt. eigenvalues --    0.29460   0.30990   0.31129   0.31416   0.31994

 Mulliken charges:
               1
     1  C   -0.172285
     2  C   -0.218728
     3  C   -0.170706
     4  C    0.160913
     5  C   -0.181798
     6  C   -0.227256
     7  H    0.225774
     8  H    0.223250
     9  H    0.275393
    10  H    0.283168
    11  H    0.233919
    12  N    0.488083
    13  O   -0.460555
    14  O   -0.460626
    15  C   -0.297818
    16  C   -0.305787
    17  C   -0.476460
    18  H    0.153622
    19  H    0.152932
    20  H    0.153276
    21  H    0.145152
    22  H    0.158662
    23  H    0.156480
    24  H    0.167388
    25  C   -0.304852
    26  C   -0.299432
    27  C   -0.475915
    28  H    0.150227
    29  H    0.143939
    30  H    0.155543
    31  H    0.154675
    32  H    0.150347
    33  H    0.155727
    34  H    0.163748
 Sum of Mulliken charges =  -0.00000

 Dipole moment (field-independent basis, Debye):
    X=             -2.9158    Y=             -4.2707    Z=             -0.5698  Tot=              5.2024
 Quadrupole moment (field-independent basis, Debye-Ang):
   XX=           -105.6313   YY=            -92.7044   ZZ=            -94.8779
   XY=            -15.1947   XZ=             -0.5539   YZ=             -0.8048

 Normal termination of Gaussian 16 at Wed May  5 20:50:53 2021.
