 Gaussian 16, Revision A.03,
 Gaussian 16:  EM64L-G16RevA.03 25-Dec-2016

 -------------
 #p 6-31g* mp2
 -------------

 ------------------------------------------------------
 Input file generated by CHIRIPA (05-May-2021 14:57:25)
 ------------------------------------------------------
 Symbolic Z-matrix:
 Charge =  0 Multiplicity = 1

                         Standard orientation:
 ---------------------------------------------------------------------
 Center     Atomic      Atomic             Coordinates (Angstroms)
 Number     Number       Type             X           Y           Z
 ---------------------------------------------------------------------
      1          6           0        2.906024   -2.408140   -0.199546
      2          6           0        1.748640   -1.658586    0.035299
      3          6           0        1.811431   -0.264844    0.125232
      4          6           0        3.053736    0.349414   -0.025288
      5          6           0        4.224614   -0.369761   -0.260072
      6          6           0        4.138145   -1.762474   -0.346224
      7          1           0        2.848050   -3.490433   -0.267940
      8          1           0        0.790398   -2.157334    0.149616
      9          1           0        0.931084    0.339811    0.306335
     10          1           0        5.165499    0.155713   -0.369758
     11          1           0        5.038626   -2.342032   -0.528682
     12          7           0        3.132744    1.824361    0.067919
     13          8           0        4.239321    2.341633   -0.068295
     14          8           0        2.086597    2.435226    0.275423
     15          6           0       -3.718821    2.298560   -0.309529
     16          6           0       -3.860196    1.372982   -1.348681
     17          6           0       -3.487733    0.037910   -1.165912
     18          6           0       -2.975157   -0.338820    0.074504
     19          6           0       -2.822186    0.559771    1.129218
     20          6           0       -3.201180    1.889722    0.923930
     21          1           0       -4.010696    3.333687   -0.460254
     22          1           0       -4.261911    1.687660   -2.307664
     23          1           0       -3.586490   -0.699453   -1.953288
     24          1           0       -2.418653    0.216257    2.073981
     25          1           0       -3.090264    2.606357    1.732742
     26          7           0       -2.577391   -1.749490    0.279913
     27          8           0       -2.128416   -2.056208    1.382174
     28          8           0       -2.722129   -2.521743   -0.665239
 ---------------------------------------------------------------------

 SCF Done:  E(RHF) =  -868.340389747     A.U. after   16 cycles
 E2 =    -0.2598992127D+01 EUMP2 =    -0.87093938187442D+03

 The electronic state is 1-A.
 Alpha  occ. eigenvalues --  -20.61580 -20.61569 -20.60592 -20.60575 -15.86595
 Alpha  occ. eigenvalues --  -15.85630 -11.31624 -11.30787 -11.28127 -11.28121
 Alpha  occ. eigenvalues --  -11.27749 -11.27328 -11.27279 -11.27044 -11.27011
 Alpha  occ. eigenvalues --  -11.26940 -11.26310 -11.26111  -1.60664  -1.59664
 Alpha  occ. eigenvalues --   -1.40215  -1.39224  -1.19742  -1.18911  -1.09193
 Alpha  occ. eigenvalues --   -1.08334  -1.05075  -1.04270  -0.96084  -0.95216
 Alpha  occ. eigenvalues --   -0.86489  -0.85668  -0.82919  -0.82051  -0.78020
 Alpha  occ. eigenvalues --   -0.77137  -0.72799  -0.71996  -0.71857  -0.70982
 Alpha  occ. eigenvalues --   -0.70814  -0.70007  -0.65380  -0.65054  -0.64552
 Alpha  occ. eigenvalues --   -0.64228  -0.62424  -0.61610  -0.55561  -0.54749
 Alpha  occ. eigenvalues --   -0.53437  -0.53149  -0.52625  -0.52322  -0.49586
 Alpha  occ. eigenvalues --   -0.49540  -0.48622  -0.48587  -0.45680  -0.44678
 Alpha  occ. eigenvalues --   -0.37682  -0.36868  -0.36658  -0.35869
 Alpha virt. eigenvalues --    0.04438   0.05370   0.10958   0.11789   0.16031
 Alpha virt. eigenvalues --    0.16937   0.21180   0.21957   0.27049   0.27429
 Alpha virt. eigenvalues --    0.28267   0.28751   0.30887   0.31580   0.32223

 Mulliken charges:
               1
     1  C   -0.171676
     2  C   -0.223058
     3  C   -0.173857
     4  C    0.158137
     5  C   -0.172620
     6  C   -0.218518
     7  H    0.228493
     8  H    0.241003
     9  H    0.270340
    10  H    0.273380
    11  H    0.222017
    12  N    0.488315
    13  O   -0.461478
    14  O   -0.464937
    15  C   -0.168020
    16  C   -0.217695
    17  C   -0.170956
    18  C    0.154279
    19  C   -0.174764
    20  C   -0.215098
    21  H    0.229737
    22  H    0.225691
    23  H    0.275430
    24  H    0.276010
    25  H    0.228678
    26  N    0.485128
    27  O   -0.464447
    28  O   -0.459514
 Sum of Mulliken charges =  -0.00000

 Dipole moment (field-independent basis, Debye):
    X=             -1.9912    Y=             -0.1794    Z=             -1.0782  Tot=              2.2715
 Quadrupole moment (field-independent basis, Debye-Ang):
   XX=            -93.4322   YY=           -112.2586   ZZ=           -101.2240
   XY=            -31.5470   XZ=              1.7811   YZ=              1.8861

 Normal termination of Gaussian 16 at Fri May  7 06:32:06 2021.
