 Gaussian 16, Revision A.03,
 Gaussian 16:  EM64L-G16RevA.03 25-Dec-2016

 -------------
 #p 6-31g* mp2
 -------------

 ------------------------------------------------------
 Input file generated by CHIRIPA (05-May-2021 14:57:24)
 ------------------------------------------------------
 Symbolic Z-matrix:
 Charge =  0 Multiplicity = 1

                         Standard orientation:
 ---------------------------------------------------------------------
 Center     Atomic      Atomic             Coordinates (Angstroms)
 Number     Number       Type             X           Y           Z
 ---------------------------------------------------------------------
      1          6           0        2.810620    2.150871   -1.346057
      2          6           0        4.130562    1.688137   -1.358336
      3          6           0        4.477862    0.514643   -0.682434
      4          6           0        3.475426   -0.174234   -0.001361
      5          6           0        2.151519    0.261208    0.029476
      6          6           0        1.827045    1.437188   -0.653411
      7          1           0        2.549695    3.063435   -1.873827
      8          1           0        4.896498    2.240341   -1.895419
      9          1           0        5.491938    0.133828   -0.675526
     10          1           0        1.409901   -0.310876    0.573664
     11          1           0        0.801145    1.794187   -0.642155
     12          7           0        3.831014   -1.417875    0.717883
     13          8           0        2.929374   -2.006525    1.310482
     14          8           0        5.004632   -1.780443    0.675410
     15          6           0       -2.540976    1.784701    1.637471
     16          6           0       -3.842958    1.862374    1.132169
     17          6           0       -4.338744    0.862230    0.290471
     18          6           0       -3.501494   -0.206243   -0.026812
     19          6           0       -2.199780   -0.311982    0.460680
     20          6           0       -1.724981    0.699683    1.300708
     21          1           0       -2.163989    2.566112    2.290674
     22          1           0       -4.478914    2.703851    1.392017
     23          1           0       -5.342709    0.897345   -0.114795
     24          1           0       -1.589464   -1.163046    0.183872
     25          1           0       -0.713427    0.636739    1.691657
     26          7           0       -4.015251   -1.271149   -0.916996
     27          8           0       -3.257677   -2.202142   -1.181512
     28          8           0       -5.165781   -1.154665   -1.333350
 ---------------------------------------------------------------------

 SCF Done:  E(RHF) =  -868.337144784     A.U. after   16 cycles
 E2 =    -0.2600508537D+01 EUMP2 =    -0.87093765332073D+03

 The electronic state is 1-A.
 Alpha  occ. eigenvalues --  -20.61198 -20.61184 -20.61117 -20.61105 -15.86248
 Alpha  occ. eigenvalues --  -15.86176 -11.31711 -11.31697 -11.28354 -11.28351
 Alpha  occ. eigenvalues --  -11.28304 -11.28202 -11.28110 -11.27953 -11.27429
 Alpha  occ. eigenvalues --  -11.27319 -11.27279 -11.27231  -1.60264  -1.60188
 Alpha  occ. eigenvalues --   -1.39818  -1.39736  -1.19925  -1.19851  -1.09280
 Alpha  occ. eigenvalues --   -1.09218  -1.05391  -1.05251  -0.96079  -0.96054
 Alpha  occ. eigenvalues --   -0.86739  -0.86661  -0.82973  -0.82839  -0.78043
 Alpha  occ. eigenvalues --   -0.77834  -0.72464  -0.72387  -0.71586  -0.71517
 Alpha  occ. eigenvalues --   -0.71031  -0.70945  -0.65584  -0.65531  -0.65348
 Alpha  occ. eigenvalues --   -0.65266  -0.62932  -0.62383  -0.55848  -0.55724
 Alpha  occ. eigenvalues --   -0.53693  -0.53604  -0.53431  -0.53322  -0.49230
 Alpha  occ. eigenvalues --   -0.49215  -0.49162  -0.49132  -0.45206  -0.45103
 Alpha  occ. eigenvalues --   -0.37909  -0.37803  -0.36974  -0.36876
 Alpha virt. eigenvalues --    0.04568   0.04627   0.10606   0.10775   0.15937
 Alpha virt. eigenvalues --    0.16072   0.18812   0.21904   0.24548   0.27241
 Alpha virt. eigenvalues --    0.27691   0.29248   0.30263   0.30950   0.31946

 Mulliken charges:
               1
     1  C   -0.170661
     2  C   -0.217627
     3  C   -0.170140
     4  C    0.161610
     5  C   -0.177683
     6  C   -0.220564
     7  H    0.227305
     8  H    0.225578
     9  H    0.277483
    10  H    0.268320
    11  H    0.225062
    12  N    0.488214
    13  O   -0.461778
    14  O   -0.457566
    15  C   -0.172144
    16  C   -0.218888
    17  C   -0.169473
    18  C    0.158737
    19  C   -0.173246
    20  C   -0.228526
    21  H    0.227692
    22  H    0.225410
    23  H    0.277782
    24  H    0.279644
    25  H    0.224126
    26  N    0.487917
    27  O   -0.457228
    28  O   -0.459353
 Sum of Mulliken charges =  -0.00000

 Dipole moment (field-independent basis, Debye):
    X=              0.5216    Y=              8.1349    Z=              0.5142  Tot=              8.1678
 Quadrupole moment (field-independent basis, Debye-Ang):
   XX=           -116.4162   YY=           -107.6463   ZZ=           -105.8987
   XY=              0.1735   XZ=            -21.5401   YZ=             -0.7234

 Normal termination of Gaussian 16 at Thu May  6 08:14:58 2021.
