 Gaussian 16, Revision A.03,
 Gaussian 16:  EM64L-G16RevA.03 25-Dec-2016

 -------------
 #p 6-31g* mp2
 -------------

 ------------------------------------------------------
 Input file generated by CHIRIPA (05-May-2021 14:53:14)
 ------------------------------------------------------
 Symbolic Z-matrix:
 Charge =  0 Multiplicity = 1

                         Standard orientation:
 ---------------------------------------------------------------------
 Center     Atomic      Atomic             Coordinates (Angstroms)
 Number     Number       Type             X           Y           Z
 ---------------------------------------------------------------------
      1          6           0       -5.654230   -0.000670   -0.072110
      2          6           0       -6.040567   -1.451364   -0.362308
      3          6           0       -7.551099   -1.682499   -0.310686
      4          1           0       -6.036349    0.282795    0.918131
      5          1           0       -6.151684    0.656352   -0.798923
      6          1           0       -5.541435   -2.105574    0.363979
      7          1           0       -5.657318   -1.731468   -1.351893
      8          1           0       -8.062397   -1.053814   -1.046845
      9          1           0       -7.945855   -1.430045    0.678776
     10          1           0       -7.804968   -2.726120   -0.521078
     11          6           0       -4.147413    0.246171   -0.120057
     12          6           0       -3.761076    1.696865    0.170142
     13          6           0       -2.250544    1.928000    0.118519
     14          1           0       -3.649959   -0.410851    0.606756
     15          1           0       -3.765294   -0.037293   -1.110298
     16          1           0       -4.144324    1.976969    1.159726
     17          1           0       -4.260208    2.351075   -0.556145
     18          1           0       -1.855788    1.675546   -0.870943
     19          1           0       -1.739245    1.299315    0.854678
     20          1           0       -1.996675    2.971621    0.328911
     21          6           0        1.608022    0.885170    0.761885
     22          6           0        2.394597    1.535190   -0.194826
     23          6           0        3.626768    1.000733   -0.582974
     24          6           0        4.043460   -0.190745    0.008666
     25          6           0        3.282482   -0.861958    0.964530
     26          6           0        2.053689   -0.309224    1.337493
     27          1           0        0.652155    1.307448    1.057509
     28          1           0        2.051014    2.462908   -0.643530
     29          1           0        4.255743    1.483149   -1.321272
     30          1           0        3.651622   -1.785316    1.394136
     31          1           0        1.444925   -0.816218    2.080735
     32          7           0        5.346115   -0.766225   -0.394212
     33          8           0        5.690730   -1.817131    0.141954
     34          8           0        5.997857   -0.155483   -1.238526
 ---------------------------------------------------------------------

 SCF Done:  E(RHF) =  -669.535523662     A.U. after   15 cycles
 E2 =    -0.2090809717D+01 EUMP2 =    -0.67162633337862D+03

 The electronic state is 1-A.
 Alpha  occ. eigenvalues --  -20.60699 -20.60694 -15.85753 -11.31097 -11.27674
 Alpha  occ. eigenvalues --  -11.27669 -11.27344 -11.26672 -11.26657 -11.22524
 Alpha  occ. eigenvalues --  -11.22348 -11.22133 -11.22089 -11.21958 -11.21473
 Alpha  occ. eigenvalues --   -1.59776  -1.39330  -1.19268  -1.09137  -1.08659
 Alpha  occ. eigenvalues --   -1.04672  -1.04278  -0.96759  -0.95498  -0.87787
 Alpha  occ. eigenvalues --   -0.86067  -0.82339  -0.80359  -0.78907  -0.77392
 Alpha  occ. eigenvalues --   -0.71971  -0.71100  -0.70374  -0.65764  -0.64917
 Alpha  occ. eigenvalues --   -0.64678  -0.62024  -0.61678  -0.60139  -0.58347
 Alpha  occ. eigenvalues --   -0.56116  -0.55157  -0.53442  -0.53158  -0.52974
 Alpha  occ. eigenvalues --   -0.52762  -0.50690  -0.48740  -0.48728  -0.48641
 Alpha  occ. eigenvalues --   -0.47364  -0.46459  -0.46356  -0.44741  -0.44515
 Alpha  occ. eigenvalues --   -0.37231  -0.36284
 Alpha virt. eigenvalues --    0.05142   0.11367   0.16614   0.20490   0.22284
 Alpha virt. eigenvalues --    0.23744   0.25591   0.26157   0.26920   0.27290
 Alpha virt. eigenvalues --    0.28930   0.30326   0.30859   0.31060   0.32013

 Mulliken charges:
               1
     1  C   -0.298932
     2  C   -0.300113
     3  C   -0.476094
     4  H    0.150318
     5  H    0.150943
     6  H    0.151921
     7  H    0.153047
     8  H    0.155977
     9  H    0.155567
    10  H    0.161808
    11  C   -0.298853
    12  C   -0.299526
    13  C   -0.481125
    14  H    0.148219
    15  H    0.151585
    16  H    0.154045
    17  H    0.155681
    18  H    0.159262
    19  H    0.146827
    20  H    0.160675
    21  C   -0.175267
    22  C   -0.221231
    23  C   -0.170898
    24  C    0.158111
    25  C   -0.170777
    26  C   -0.220749
    27  H    0.236539
    28  H    0.223552
    29  H    0.275180
    30  H    0.275181
    31  H    0.222552
    32  N    0.488071
    33  O   -0.460761
    34  O   -0.460736
 Sum of Mulliken charges =  -0.00000

 Dipole moment (field-independent basis, Debye):
    X=             -4.8556    Y=              2.0400    Z=              1.3687  Tot=              5.4416
 Quadrupole moment (field-independent basis, Debye-Ang):
   XX=           -132.8923   YY=            -92.9654   ZZ=            -92.2556
   XY=              9.3702   XZ=              5.3956   YZ=             -3.3444

 Normal termination of Gaussian 16 at Thu May  6 05:50:06 2021.
