 Gaussian 16, Revision A.03,
 Gaussian 16:  EM64L-G16RevA.03 25-Dec-2016

 -------------
 #p 6-31g* mp2
 -------------

 ------------------------------------------------------
 Input file generated by CHIRIPA (05-May-2021 14:57:24)
 ------------------------------------------------------
 Symbolic Z-matrix:
 Charge =  0 Multiplicity = 1

                         Standard orientation:
 ---------------------------------------------------------------------
 Center     Atomic      Atomic             Coordinates (Angstroms)
 Number     Number       Type             X           Y           Z
 ---------------------------------------------------------------------
      1          6           0       -1.775281   -1.811284    0.375975
      2          6           0       -1.822009   -0.545534    0.969452
      3          6           0       -2.925899    0.289855    0.774258
      4          6           0       -3.970136   -0.174540   -0.023988
      5          6           0       -3.953038   -1.430392   -0.628829
      6          6           0       -2.839069   -2.248902   -0.419868
      7          1           0       -0.913838   -2.453678    0.532954
      8          1           0       -0.997304   -0.203049    1.588007
      9          1           0       -2.988066    1.274385    1.221755
     10          1           0       -4.790388   -1.744136   -1.240243
     11          1           0       -2.805504   -3.231415   -0.882022
     12          7           0       -5.144110    0.700914   -0.237919
     13          8           0       -6.051214    0.268427   -0.945558
     14          8           0       -5.134936    1.803005    0.306092
     15          6           0        2.336482    2.383994    0.152776
     16          6           0        3.461078    2.379102   -0.678956
     17          6           0        4.266239    1.240453   -0.777643
     18          6           0        3.915882    0.119173   -0.027130
     19          6           0        2.801795    0.093062    0.810378
     20          6           0        2.011004    1.242970    0.893484
     21          1           0        1.716595    3.272899    0.223387
     22          1           0        3.716261    3.263800   -1.255358
     23          1           0        5.142490    1.209326   -1.413751
     24          1           0        2.572828   -0.804004    1.372755
     25          1           0        1.138216    1.243904    1.540235
     26          7           0        4.760663   -1.092225   -0.123357
     27          8           0        4.430543   -2.067278    0.548154
     28          8           0        5.736927   -1.043727   -0.868470
 ---------------------------------------------------------------------

 SCF Done:  E(RHF) =  -868.336991228     A.U. after   16 cycles
 E2 =    -0.2599569696D+01 EUMP2 =    -0.87093656092338D+03

 The electronic state is 1-A.
 Alpha  occ. eigenvalues --  -20.61386 -20.61365 -20.61174 -20.61160 -15.86436
 Alpha  occ. eigenvalues --  -15.86228 -11.31852 -11.31640 -11.28516 -11.28383
 Alpha  occ. eigenvalues --  -11.28293 -11.28186 -11.28154 -11.27962 -11.27557
 Alpha  occ. eigenvalues --  -11.27376 -11.27364 -11.27172  -1.60453  -1.60245
 Alpha  occ. eigenvalues --   -1.40006  -1.39797  -1.20032  -1.19827  -1.09406
 Alpha  occ. eigenvalues --   -1.09205  -1.05465  -1.05253  -0.96234  -0.96029
 Alpha  occ. eigenvalues --   -0.86860  -0.86642  -0.83086  -0.82872  -0.78145
 Alpha  occ. eigenvalues --   -0.77909  -0.72652  -0.72444  -0.71777  -0.71569
 Alpha  occ. eigenvalues --   -0.71121  -0.70913  -0.65693  -0.65610  -0.65485
 Alpha  occ. eigenvalues --   -0.65185  -0.62894  -0.62533  -0.55922  -0.55719
 Alpha  occ. eigenvalues --   -0.53777  -0.53659  -0.53544  -0.53255  -0.49416
 Alpha  occ. eigenvalues --   -0.49403  -0.49207  -0.49196  -0.45402  -0.45193
 Alpha  occ. eigenvalues --   -0.37988  -0.37790  -0.37084  -0.36822
 Alpha virt. eigenvalues --    0.04427   0.04642   0.10496   0.10865   0.15842
 Alpha virt. eigenvalues --    0.16124   0.18233   0.22057   0.24613   0.26834
 Alpha virt. eigenvalues --    0.28055   0.29095   0.29290   0.31466   0.32260

 Mulliken charges:
               1
     1  C   -0.170426
     2  C   -0.218320
     3  C   -0.171768
     4  C    0.158762
     5  C   -0.169899
     6  C   -0.218398
     7  H    0.229440
     8  H    0.214699
     9  H    0.272950
    10  H    0.277451
    11  H    0.226944
    12  N    0.488163
    13  O   -0.458516
    14  O   -0.461400
    15  C   -0.169794
    16  C   -0.218081
    17  C   -0.169725
    18  C    0.159092
    19  C   -0.172314
    20  C   -0.218266
    21  H    0.229145
    22  H    0.226824
    23  H    0.277868
    24  H    0.270439
    25  H    0.216851
    26  N    0.488196
    27  O   -0.462290
    28  O   -0.457626
 Sum of Mulliken charges =  -0.00000

 Dipole moment (field-independent basis, Debye):
    X=              1.2135    Y=              1.1803    Z=              0.8831  Tot=              1.9093
 Quadrupole moment (field-independent basis, Debye-Ang):
   XX=           -158.3526   YY=            -99.3861   ZZ=           -102.3250
   XY=             31.9983   XZ=             -2.6592   YZ=              0.3987

 Normal termination of Gaussian 16 at Thu May  6 06:40:34 2021.
