 Gaussian 16, Revision A.03,
 Gaussian 16:  EM64L-G16RevA.03 25-Dec-2016

 -------------
 #p 6-31g* mp2
 -------------

 ------------------------------------------------------
 Input file generated by CHIRIPA (05-May-2021 14:53:16)
 ------------------------------------------------------
 Symbolic Z-matrix:
 Charge =  0 Multiplicity = 1

                         Standard orientation:
 ---------------------------------------------------------------------
 Center     Atomic      Atomic             Coordinates (Angstroms)
 Number     Number       Type             X           Y           Z
 ---------------------------------------------------------------------
      1          6           0        3.509063    0.375646    0.142499
      2          6           0        3.335940    1.891179    0.248211
      3          6           0        1.876867    2.307822    0.436116
      4          1           0        2.908418    0.002127   -0.698128
      5          1           0        3.105754   -0.096586    1.048994
      6          1           0        3.740710    2.360512   -0.657605
      7          1           0        3.937218    2.261159    1.088566
      8          1           0        1.464783    1.866558    1.349393
      9          1           0        1.267159    1.966475   -0.406700
     10          1           0        1.776092    3.395179    0.509325
     11          6           0        4.962209   -0.056450   -0.045618
     12          6           0        5.135331   -1.571983   -0.151331
     13          6           0        6.594404   -1.988626   -0.339236
     14          1           0        5.365518    0.415782   -0.952114
     15          1           0        5.562854    0.317069    0.795009
     16          1           0        4.534054   -1.941963   -0.991685
     17          1           0        4.730561   -2.041316    0.754486
     18          1           0        7.204113   -1.647279    0.503580
     19          1           0        7.006488   -1.547362   -1.252512
     20          1           0        6.695179   -3.075983   -0.412444
     21          6           0       -5.517539   -1.340531    0.064138
     22          6           0       -5.475893    0.004394   -0.317917
     23          6           0       -4.257883    0.688059   -0.377930
     24          6           0       -3.095586   -0.007143   -0.047703
     25          6           0       -3.104439   -1.347112    0.336604
     26          6           0       -4.333766   -2.010809    0.389606
     27          1           0       -6.468114   -1.863863    0.108033
     28          1           0       -6.393643    0.527473   -0.571231
     29          1           0       -4.196842    1.729264   -0.670477
     30          1           0       -2.172891   -1.841854    0.583317
     31          1           0       -4.363090   -3.055294    0.686653
     32          7           0       -1.800143    0.706054   -0.107525
     33          8           0       -0.790247    0.071047    0.188305
     34          8           0       -1.819200    1.886560   -0.449109
 ---------------------------------------------------------------------

 SCF Done:  E(RHF) =  -669.535819414     A.U. after   15 cycles
 E2 =    -0.2091780486D+01 EUMP2 =    -0.67162759989954D+03

 The electronic state is 1-A.
 Alpha  occ. eigenvalues --  -20.60989 -20.60970 -15.85999 -11.31322 -11.27881
 Alpha  occ. eigenvalues --  -11.27877 -11.27617 -11.26885 -11.26876 -11.20802
 Alpha  occ. eigenvalues --  -11.20440 -11.20354 -11.20017 -11.19952 -11.18754
 Alpha  occ. eigenvalues --   -1.60032  -1.39588  -1.19487  -1.08892  -1.07226
 Alpha  occ. eigenvalues --   -1.04881  -1.02228  -0.95737  -0.94634  -0.86282
 Alpha  occ. eigenvalues --   -0.85639  -0.82566  -0.78360  -0.77621  -0.76933
 Alpha  occ. eigenvalues --   -0.72201  -0.71345  -0.70594  -0.65140  -0.64884
 Alpha  occ. eigenvalues --   -0.63879  -0.62227  -0.59643  -0.58138  -0.56253
 Alpha  occ. eigenvalues --   -0.55383  -0.53928  -0.53213  -0.52972  -0.51355
 Alpha  occ. eigenvalues --   -0.51131  -0.49060  -0.48963  -0.48480  -0.46504
 Alpha  occ. eigenvalues --   -0.45422  -0.45001  -0.44422  -0.44340  -0.42493
 Alpha  occ. eigenvalues --   -0.37465  -0.36482
 Alpha virt. eigenvalues --    0.04897   0.11174   0.16398   0.21313   0.23936
 Alpha virt. eigenvalues --    0.25671   0.27232   0.27817   0.28185   0.28625
 Alpha virt. eigenvalues --    0.29502   0.30893   0.32428   0.32700   0.32795

 Mulliken charges:
               1
     1  C   -0.295205
     2  C   -0.301855
     3  C   -0.470093
     4  H    0.153247
     5  H    0.149310
     6  H    0.145499
     7  H    0.143792
     8  H    0.154697
     9  H    0.175609
    10  H    0.149006
    11  C   -0.297400
    12  C   -0.298320
    13  C   -0.474878
    14  H    0.146913
    15  H    0.146592
    16  H    0.150926
    17  H    0.150274
    18  H    0.153886
    19  H    0.154073
    20  H    0.157085
    21  C   -0.170553
    22  C   -0.218593
    23  C   -0.170789
    24  C    0.159154
    25  C   -0.170929
    26  C   -0.218575
    27  H    0.226080
    28  H    0.223917
    29  H    0.275960
    30  H    0.275927
    31  H    0.223927
    32  N    0.487789
    33  O   -0.457876
    34  O   -0.458598
 Sum of Mulliken charges =  -0.00000

 Dipole moment (field-independent basis, Debye):
    X=             -5.0507    Y=             -2.5574    Z=              0.1660  Tot=              5.6637
 Quadrupole moment (field-independent basis, Debye-Ang):
   XX=            -68.6242   YY=            -92.2168   ZZ=            -94.2685
   XY=              5.9870   XZ=              0.5237   YZ=             -1.6292

 Normal termination of Gaussian 16 at Thu May  6 20:26:41 2021.
