 Gaussian 16, Revision A.03,
 Gaussian 16:  EM64L-G16RevA.03 25-Dec-2016

 -------------
 #p 6-31g* mp2
 -------------

 ------------------------------------------------------
 Input file generated by CHIRIPA (05-May-2021 14:57:23)
 ------------------------------------------------------
 Symbolic Z-matrix:
 Charge =  0 Multiplicity = 1

                         Standard orientation:
 ---------------------------------------------------------------------
 Center     Atomic      Atomic             Coordinates (Angstroms)
 Number     Number       Type             X           Y           Z
 ---------------------------------------------------------------------
      1          6           0       -6.056493    0.425132   -0.625487
      2          6           0       -5.049490    1.360762   -0.884452
      3          6           0       -3.724078    1.094264   -0.528349
      4          6           0       -3.439930   -0.123408    0.087951
      5          6           0       -4.421038   -1.075830    0.359263
      6          6           0       -5.739611   -0.788039   -0.005549
      7          1           0       -7.083448    0.640425   -0.905500
      8          1           0       -5.292664    2.303755   -1.365778
      9          1           0       -2.924906    1.800746   -0.717095
     10          1           0       -4.147863   -2.007121    0.840398
     11          1           0       -6.519610   -1.516533    0.196796
     12          7           0       -2.040396   -0.416809    0.469551
     13          8           0       -1.816036   -1.496951    1.011393
     14          8           0       -1.194300    0.438922    0.219583
     15          6           0        3.321780    2.522662    0.478392
     16          6           0        2.336919    1.590291    0.820818
     17          6           0        2.519473    0.231598    0.546641
     18          6           0        3.704312   -0.161573   -0.073730
     19          6           0        4.704176    0.743235   -0.427120
     20          6           0        4.500188    2.096908   -0.143388
     21          1           0        3.171642    3.576179    0.695090
     22          1           0        1.420757    1.918069    1.303781
     23          1           0        1.773458   -0.511510    0.800952
     24          1           0        5.606963    0.386260   -0.907707
     25          1           0        5.266766    2.818767   -0.410451
     26          7           0        3.908919   -1.597305   -0.369046
     27          8           0        4.961620   -1.918167   -0.916316
     28          8           0        3.012714   -2.374583   -0.047654
 ---------------------------------------------------------------------

 SCF Done:  E(RHF) =  -868.340203564     A.U. after   16 cycles
 E2 =    -0.2599110158D+01 EUMP2 =    -0.87093931372204D+03

 The electronic state is 1-A.
 Alpha  occ. eigenvalues --  -20.61520 -20.61463 -20.59611 -20.59574 -15.86490
 Alpha  occ. eigenvalues --  -15.84639 -11.31633 -11.29850 -11.28195 -11.28146
 Alpha  occ. eigenvalues --  -11.27875 -11.27149 -11.27117 -11.26536 -11.26246
 Alpha  occ. eigenvalues --  -11.26195 -11.25567 -11.25274  -1.60536  -1.58677
 Alpha  occ. eigenvalues --   -1.40096  -1.38229  -1.19782  -1.18040  -1.09222
 Alpha  occ. eigenvalues --   -1.07495  -1.05151  -1.03382  -0.96095  -0.94334
 Alpha  occ. eigenvalues --   -0.86560  -0.84818  -0.82937  -0.81140  -0.78008
 Alpha  occ. eigenvalues --   -0.76184  -0.72722  -0.71823  -0.70890  -0.70863
 Alpha  occ. eigenvalues --   -0.70001  -0.69178  -0.65440  -0.65154  -0.63686
 Alpha  occ. eigenvalues --   -0.63391  -0.62501  -0.60695  -0.55663  -0.53993
 Alpha  occ. eigenvalues --   -0.53491  -0.53241  -0.51787  -0.51461  -0.49499
 Alpha  occ. eigenvalues --   -0.49452  -0.47631  -0.47601  -0.45542  -0.43667
 Alpha  occ. eigenvalues --   -0.37748  -0.36742  -0.36098  -0.34974
 Alpha virt. eigenvalues --    0.04510   0.06299   0.10916   0.12643   0.16044
 Alpha virt. eigenvalues --    0.17784   0.21059   0.22758   0.26996   0.27875
 Alpha virt. eigenvalues --    0.28794   0.29648   0.30701   0.32032   0.32318

 Mulliken charges:
               1
     1  C   -0.169902
     2  C   -0.218494
     3  C   -0.170591
     4  C    0.158152
     5  C   -0.169842
     6  C   -0.218561
     7  H    0.227237
     8  H    0.224186
     9  H    0.273692
    10  H    0.277931
    11  H    0.225535
    12  N    0.490984
    13  O   -0.453420
    14  O   -0.472459
    15  C   -0.172923
    16  C   -0.219412
    17  C   -0.169602
    18  C    0.155562
    19  C   -0.173050
    20  C   -0.219946
    21  H    0.219448
    22  H    0.231157
    23  H    0.292132
    24  H    0.270877
    25  H    0.217444
    26  N    0.487580
    27  O   -0.466922
    28  O   -0.456793
 Sum of Mulliken charges =  -0.00000

 Dipole moment (field-independent basis, Debye):
    X=             -6.3351    Y=              5.8838    Z=             -0.2007  Tot=              8.6483
 Quadrupole moment (field-independent basis, Debye-Ang):
   XX=            -73.6915   YY=           -103.6818   ZZ=           -105.2453
   XY=             18.2809   XZ=              5.9096   YZ=             -2.8083

 Normal termination of Gaussian 16 at Thu May  6 19:36:50 2021.
