 Gaussian 16, Revision A.03,
 Gaussian 16:  EM64L-G16RevA.03 25-Dec-2016

 -------------
 #p 6-31g* mp2
 -------------

 ------------------------------------------------------
 Input file generated by CHIRIPA (05-May-2021 14:51:09)
 ------------------------------------------------------
 Symbolic Z-matrix:
 Charge =  0 Multiplicity = 1

                         Standard orientation:
 ---------------------------------------------------------------------
 Center     Atomic      Atomic             Coordinates (Angstroms)
 Number     Number       Type             X           Y           Z
 ---------------------------------------------------------------------
      1          6           0        3.856743    0.538183    0.224154
      2          6           0        3.965991    1.937835   -0.381670
      3          6           0        4.692002    2.923484    0.534407
      4          1           0        3.330754    0.602157    1.186541
      5          1           0        4.865363    0.161480    0.443641
      6          1           0        2.957532    2.311226   -0.601228
      7          1           0        4.491612    1.870495   -1.342818
      8          1           0        5.709148    2.576997    0.744079
      9          1           0        4.166352    3.020232    1.489882
     10          1           0        4.758829    3.917723    0.081767
     11          6           0        3.133411   -0.458464   -0.679845
     12          6           0        3.024163   -1.858116   -0.074020
     13          6           0        2.298152   -2.843765   -0.990098
     14          1           0        2.124790   -0.081761   -0.899332
     15          1           0        3.659400   -0.522437   -1.642232
     16          1           0        2.498542   -1.790776    0.887127
     17          1           0        4.032622   -2.231506    0.145537
     18          1           0        2.823802   -2.940512   -1.945573
     19          1           0        1.281006   -2.497278   -1.199769
     20          1           0        2.231325   -3.838004   -0.537457
     21          6           0       -3.865222    0.416709   -0.259977
     22          6           0       -5.346132    0.591718    0.078053
     23          6           0       -6.073064    1.507801   -0.906912
     24          1           0       -3.379734    1.402139   -0.273159
     25          1           0       -3.773946    0.009671   -1.276531
     26          1           0       -5.434621    0.997007    1.094186
     27          1           0       -5.828110   -0.394260    0.090622
     28          1           0       -6.014446    1.104684   -1.923112
     29          1           0       -5.618722    2.503856   -0.913845
     30          1           0       -7.130270    1.618955   -0.646487
     31          6           0       -3.124932   -0.496428    0.715667
     32          6           0       -1.644022   -0.671438    0.377638
     33          6           0       -0.917089   -1.587520    1.362603
     34          1           0       -3.216208   -0.089390    1.732222
     35          1           0       -3.610420   -1.481858    0.728850
     36          1           0       -1.162044    0.314541    0.365070
     37          1           0       -1.555532   -1.076726   -0.638495
     38          1           0       -1.371432   -2.583575    1.369535
     39          1           0       -0.975709   -1.184403    2.378802
     40          1           0        0.140116   -1.698673    1.102179
 ---------------------------------------------------------------------

 SCF Done:  E(RHF) =  -470.733109341     A.U. after   11 cycles
 E2 =    -0.1583220337D+01 EUMP2 =    -0.47231632967772D+03

 The electronic state is 1-A.
 Alpha  occ. eigenvalues --  -11.21662 -11.21621 -11.21610 -11.21604 -11.21436
 Alpha  occ. eigenvalues --  -11.21407 -11.21376 -11.21348 -11.21086 -11.21074
 Alpha  occ. eigenvalues --  -11.21068 -11.21065  -1.08471  -1.08430  -1.03596
 Alpha  occ. eigenvalues --   -1.03507  -0.96040  -0.95951  -0.87026  -0.86997
 Alpha  occ. eigenvalues --   -0.79652  -0.79575  -0.78286  -0.78236  -0.65110
 Alpha  occ. eigenvalues --   -0.65091  -0.61099  -0.60945  -0.59362  -0.59284
 Alpha  occ. eigenvalues --   -0.57608  -0.57582  -0.55351  -0.55211  -0.52693
 Alpha  occ. eigenvalues --   -0.52667  -0.52448  -0.52366  -0.49966  -0.49904
 Alpha  occ. eigenvalues --   -0.47995  -0.47864  -0.46658  -0.46638  -0.45842
 Alpha  occ. eigenvalues --   -0.45784  -0.45740  -0.45689  -0.43813  -0.43755
 Alpha virt. eigenvalues --    0.20244   0.23095   0.23647   0.25248   0.26314
 Alpha virt. eigenvalues --    0.26340   0.26737   0.27714   0.27938   0.29058
 Alpha virt. eigenvalues --    0.30646   0.30828   0.31401   0.31746   0.32232

 Mulliken charges:
               1
     1  C   -0.298303
     2  C   -0.299648
     3  C   -0.475713
     4  H    0.149780
     5  H    0.149569
     6  H    0.151888
     7  H    0.151974
     8  H    0.155222
     9  H    0.155139
    10  H    0.160239
    11  C   -0.299626
    12  C   -0.304440
    13  C   -0.478150
    14  H    0.150799
    15  H    0.149904
    16  H    0.154243
    17  H    0.153060
    18  H    0.155444
    19  H    0.157455
    20  H    0.160673
    21  C   -0.298306
    22  C   -0.299680
    23  C   -0.475730
    24  H    0.149553
    25  H    0.149633
    26  H    0.151952
    27  H    0.152041
    28  H    0.155253
    29  H    0.155180
    30  H    0.160333
    31  C   -0.298456
    32  C   -0.300266
    33  C   -0.485159
    34  H    0.149704
    35  H    0.149985
    36  H    0.151399
    37  H    0.152097
    38  H    0.155668
    39  H    0.154790
    40  H    0.170495
 Sum of Mulliken charges =  -0.00000

 Dipole moment (field-independent basis, Debye):
    X=              0.0019    Y=             -0.0093    Z=             -0.0047  Tot=              0.0106
 Quadrupole moment (field-independent basis, Debye-Ang):
   XX=            -84.5835   YY=            -85.1344   ZZ=            -84.9629
   XY=             -0.0424   XZ=             -0.9445   YZ=              0.5445

 Normal termination of Gaussian 16 at Thu May  6 00:34:23 2021.
