 Gaussian 16, Revision A.03,
 Gaussian 16:  EM64L-G16RevA.03 25-Dec-2016

 -------------
 #p 6-31g* mp2
 -------------

 ------------------------------------------------------
 Input file generated by CHIRIPA (05-May-2021 14:57:21)
 ------------------------------------------------------
 Symbolic Z-matrix:
 Charge =  0 Multiplicity = 1

                         Standard orientation:
 ---------------------------------------------------------------------
 Center     Atomic      Atomic             Coordinates (Angstroms)
 Number     Number       Type             X           Y           Z
 ---------------------------------------------------------------------
      1          6           0        3.374029   -2.083321    0.090722
      2          6           0        3.828725   -1.165354   -0.861701
      3          6           0        3.445536    0.177412   -0.793195
      4          6           0        2.602855    0.569516    0.245763
      5          6           0        2.133080   -0.321176    1.209750
      6          6           0        2.529147   -1.659050    1.121590
      7          1           0        3.676701   -3.124514    0.029871
      8          1           0        4.484955   -1.492018   -1.663386
      9          1           0        3.782767    0.909160   -1.517237
     10          1           0        1.479798    0.034288    1.997333
     11          1           0        2.174475   -2.369744    1.862648
     12          7           0        2.190373    1.988453    0.328691
     13          8           0        1.447226    2.308713    1.253787
     14          8           0        2.618027    2.753487   -0.532977
     15          6           0       -0.528261   -1.592385   -0.674737
     16          6           0       -0.670178   -0.273098   -1.117300
     17          6           0       -1.852864    0.432854   -0.877643
     18          6           0       -2.877973   -0.214162   -0.189303
     19          6           0       -2.766865   -1.527626    0.264302
     20          6           0       -1.575211   -2.214342    0.013439
     21          1           0        0.393960   -2.133313   -0.865262
     22          1           0        0.141232    0.212451   -1.651996
     23          1           0       -1.989456    1.455061   -1.209083
     24          1           0       -3.593255   -1.984997    0.794688
     25          1           0       -1.467798   -3.238828    0.358312
     26          7           0       -4.134776    0.523015    0.070344
     27          8           0       -5.023093   -0.069506    0.678988
     28          8           0       -4.207742    1.679377   -0.339705
 ---------------------------------------------------------------------

 SCF Done:  E(RHF) =  -868.335535981     A.U. after   16 cycles
 E2 =    -0.2604838717D+01 EUMP2 =    -0.87094037469828D+03

 The electronic state is 1-A.
 Alpha  occ. eigenvalues --  -20.61627 -20.61590 -20.60546 -20.60519 -15.86657
 Alpha  occ. eigenvalues --  -15.85595 -11.32187 -11.31010 -11.28823 -11.28717
 Alpha  occ. eigenvalues --  -11.28584 -11.27873 -11.27794 -11.27706 -11.27583
 Alpha  occ. eigenvalues --  -11.27369 -11.26712 -11.26579  -1.60688  -1.59611
 Alpha  occ. eigenvalues --   -1.40229  -1.39162  -1.20443  -1.19236  -1.09795
 Alpha  occ. eigenvalues --   -1.08626  -1.05827  -1.04659  -0.96576  -0.95435
 Alpha  occ. eigenvalues --   -0.87208  -0.86062  -0.83380  -0.82270  -0.78395
 Alpha  occ. eigenvalues --   -0.77304  -0.72861  -0.72054  -0.71812  -0.71486
 Alpha  occ. eigenvalues --   -0.70936  -0.70368  -0.66045  -0.65793  -0.64889
 Alpha  occ. eigenvalues --   -0.64698  -0.63129  -0.62009  -0.56312  -0.55422
 Alpha  occ. eigenvalues --   -0.54138  -0.53877  -0.52851  -0.52702  -0.49645
 Alpha  occ. eigenvalues --   -0.49613  -0.48584  -0.48559  -0.45585  -0.44557
 Alpha  occ. eigenvalues --   -0.38546  -0.38081  -0.36539  -0.36153
 Alpha virt. eigenvalues --    0.03982   0.05344   0.09910   0.11507   0.15399
 Alpha virt. eigenvalues --    0.16842   0.20404   0.21604   0.26278   0.27140
 Alpha virt. eigenvalues --    0.27385   0.28583   0.30126   0.30874   0.31750

 Mulliken charges:
               1
     1  C   -0.178665
     2  C   -0.219384
     3  C   -0.177275
     4  C    0.154655
     5  C   -0.162291
     6  C   -0.224590
     7  H    0.228315
     8  H    0.227313
     9  H    0.278638
    10  H    0.281470
    11  H    0.226158
    12  N    0.486722
    13  O   -0.453390
    14  O   -0.459962
    15  C   -0.169638
    16  C   -0.225654
    17  C   -0.165454
    18  C    0.157031
    19  C   -0.170117
    20  C   -0.225491
    21  H    0.226077
    22  H    0.223337
    23  H    0.281201
    24  H    0.274651
    25  H    0.217913
    26  N    0.488257
    27  O   -0.462542
    28  O   -0.457285
 Sum of Mulliken charges =  -0.00000

 Dipole moment (field-independent basis, Debye):
    X=              6.0199    Y=             -7.3460    Z=             -1.0862  Tot=              9.5594
 Quadrupole moment (field-independent basis, Debye-Ang):
   XX=           -121.5512   YY=           -106.9965   ZZ=           -100.9320
   XY=             -3.7208   XZ=             -1.8967   YZ=             -3.8568

 Normal termination of Gaussian 16 at Thu May  6 01:43:48 2021.
