 Gaussian 16, Revision A.03,
 Gaussian 16:  EM64L-G16RevA.03 25-Dec-2016

 -------------
 #p 6-31g* mp2
 -------------

 ------------------------------------------------------
 Input file generated by CHIRIPA (05-May-2021 14:53:15)
 ------------------------------------------------------
 Symbolic Z-matrix:
 Charge =  0 Multiplicity = 1

                         Standard orientation:
 ---------------------------------------------------------------------
 Center     Atomic      Atomic             Coordinates (Angstroms)
 Number     Number       Type             X           Y           Z
 ---------------------------------------------------------------------
      1          6           0       -3.527414    0.952741    0.294108
      2          6           0       -2.076565    1.422172    0.406607
      3          6           0       -1.958387    2.863455    0.903124
      4          1           0       -4.071018    1.622258   -0.386470
      5          1           0       -4.012254    1.044222    1.275921
      6          1           0       -1.594210    1.328529   -0.574811
      7          1           0       -1.536303    0.751346    1.086847
      8          1           0       -2.414358    2.968548    1.892895
      9          1           0       -2.472593    3.549010    0.221796
     10          1           0       -0.912778    3.178472    0.976108
     11          6           0       -3.661916   -0.486178   -0.201018
     12          6           0       -5.112766   -0.955608   -0.313517
     13          6           0       -5.230944   -2.396892   -0.810034
     14          1           0       -3.177076   -0.577659   -1.182831
     15          1           0       -3.118312   -1.155695    0.479560
     16          1           0       -5.653027   -0.284783   -0.993757
     17          1           0       -5.595121   -0.861966    0.667900
     18          1           0       -4.716737   -3.082447   -0.128706
     19          1           0       -4.774973   -2.501984   -1.799805
     20          1           0       -6.276553   -2.711909   -0.883018
     21          6           0        3.274246   -2.576592    0.608601
     22          6           0        4.222500   -1.850586   -0.119583
     23          6           0        3.975021   -0.523306   -0.482390
     24          6           0        2.763289    0.049225   -0.098716
     25          6           0        1.798634   -0.647975    0.626986
     26          6           0        2.067468   -1.974031    0.978909
     27          1           0        3.474788   -3.607180    0.886212
     28          1           0        5.160567   -2.315970   -0.408530
     29          1           0        4.691579    0.061808   -1.045954
     30          1           0        0.872671   -0.156949    0.900670
     31          1           0        1.329203   -2.535440    1.544444
     32          7           0        2.489991    1.453709   -0.477042
     33          8           0        1.414730    1.935223   -0.126906
     34          8           0        3.356216    2.046437   -1.116547
 ---------------------------------------------------------------------

 SCF Done:  E(RHF) =  -669.535890968     A.U. after   15 cycles
 E2 =    -0.2092147846D+01 EUMP2 =    -0.67162803881401D+03

 The electronic state is 1-A.
 Alpha  occ. eigenvalues --  -20.60893 -20.60881 -15.85928 -11.31222 -11.27796
 Alpha  occ. eigenvalues --  -11.27759 -11.27533 -11.26798 -11.26782 -11.21522
 Alpha  occ. eigenvalues --  -11.21262 -11.21079 -11.21035 -11.20974 -11.20044
 Alpha  occ. eigenvalues --   -1.59955  -1.39511  -1.19395  -1.08806  -1.08141
 Alpha  occ. eigenvalues --   -1.04788  -1.03132  -0.95683  -0.95535  -0.86593
 Alpha  occ. eigenvalues --   -0.86189  -0.82487  -0.79250  -0.77988  -0.77490
 Alpha  occ. eigenvalues --   -0.72166  -0.71268  -0.70508  -0.65056  -0.64832
 Alpha  occ. eigenvalues --   -0.64748  -0.62145  -0.60543  -0.58955  -0.57118
 Alpha  occ. eigenvalues --   -0.55300  -0.54886  -0.53123  -0.52887  -0.52205
 Alpha  occ. eigenvalues --   -0.51984  -0.49551  -0.48923  -0.48892  -0.47523
 Alpha  occ. eigenvalues --   -0.46315  -0.45502  -0.45419  -0.44864  -0.43374
 Alpha  occ. eigenvalues --   -0.37379  -0.36388
 Alpha virt. eigenvalues --    0.04973   0.11262   0.16463   0.20685   0.23110
 Alpha virt. eigenvalues --    0.24220   0.25796   0.27200   0.27640   0.28416
 Alpha virt. eigenvalues --    0.29191   0.30472   0.31504   0.31914   0.32576

 Mulliken charges:
               1
     1  C   -0.298176
     2  C   -0.296590
     3  C   -0.482366
     4  H    0.150884
     5  H    0.147251
     6  H    0.161353
     7  H    0.137359
     8  H    0.146960
     9  H    0.153034
    10  H    0.184658
    11  C   -0.296908
    12  C   -0.299157
    13  C   -0.475314
    14  H    0.149906
    15  H    0.142199
    16  H    0.153262
    17  H    0.151508
    18  H    0.152347
    19  H    0.155167
    20  H    0.160209
    21  C   -0.170205
    22  C   -0.219136
    23  C   -0.169941
    24  C    0.154945
    25  C   -0.175116
    26  C   -0.221411
    27  H    0.225768
    28  H    0.223513
    29  H    0.275564
    30  H    0.286947
    31  H    0.223871
    32  N    0.494224
    33  O   -0.467329
    34  O   -0.459278
 Sum of Mulliken charges =  -0.00000

 Dipole moment (field-independent basis, Debye):
    X=              1.1387    Y=             -4.7956    Z=              1.2406  Tot=              5.0827
 Quadrupole moment (field-independent basis, Debye-Ang):
   XX=            -86.1891   YY=            -96.5260   ZZ=            -94.0177
   XY=            -13.9524   XZ=              1.4941   YZ=             -0.4288

 Normal termination of Gaussian 16 at Thu May  6 09:01:27 2021.
