 Gaussian 16, Revision A.03,
 Gaussian 16:  EM64L-G16RevA.03 25-Dec-2016

 -------------
 #p 6-31g* mp2
 -------------

 ------------------------------------------------------
 Input file generated by CHIRIPA (05-May-2021 14:53:13)
 ------------------------------------------------------
 Symbolic Z-matrix:
 Charge =  0 Multiplicity = 1

                         Standard orientation:
 ---------------------------------------------------------------------
 Center     Atomic      Atomic             Coordinates (Angstroms)
 Number     Number       Type             X           Y           Z
 ---------------------------------------------------------------------
      1          6           0        3.771705    0.149144   -0.059089
      2          6           0        3.498004   -1.244996    0.506106
      3          6           0        4.737460   -2.140242    0.497332
      4          1           0        4.149595    0.053737   -1.086242
      5          1           0        4.571990    0.623592    0.525580
      6          1           0        2.697519   -1.716133   -0.078589
      7          1           0        3.120541   -1.146250    1.531966
      8          1           0        5.538343   -1.695246    1.096637
      9          1           0        5.112917   -2.268367   -0.523068
     10          1           0        4.519257   -3.132002    0.905571
     11          6           0        2.542205    1.055816   -0.056972
     12          6           0        2.815907    2.449956   -0.622168
     13          6           0        1.576451    3.345203   -0.613393
     14          1           0        1.741921    0.581369   -0.641642
     15          1           0        2.164316    1.151223    0.970180
     16          1           0        3.193370    2.351211   -1.648027
     17          1           0        3.616392    2.921094   -0.037473
     18          1           0        1.200993    3.473328    0.407007
     19          1           0        0.775568    2.900207   -1.212698
     20          1           0        1.794654    4.336963   -1.021633
     21          6           0       -4.232402    1.265399    0.528098
     22          6           0       -2.938906    1.422444    1.036749
     23          6           0       -1.952411    0.466833    0.775625
     24          6           0       -2.295638   -0.638526   -0.001335
     25          6           0       -3.575398   -0.823230   -0.522284
     26          6           0       -4.545967    0.145038   -0.248425
     27          1           0       -4.992549    2.012658    0.735892
     28          1           0       -2.692537    2.291525    1.640112
     29          1           0       -0.943105    0.563496    1.156903
     30          1           0       -3.790962   -1.700180   -1.120540
     31          1           0       -5.549682    0.020465   -0.644760
     32          7           0       -1.259711   -1.656889   -0.284516
     33          8           0       -1.587446   -2.621757   -0.971726
     34          8           0       -0.139631   -1.470932    0.186098
 ---------------------------------------------------------------------

 SCF Done:  E(RHF) =  -669.536131080     A.U. after   15 cycles
 E2 =    -0.2092494800D+01 EUMP2 =    -0.67162862588011D+03

 The electronic state is 1-A.
 Alpha  occ. eigenvalues --  -20.60974 -20.60966 -15.85987 -11.31269 -11.27836
 Alpha  occ. eigenvalues --  -11.27809 -11.27565 -11.26834 -11.26815 -11.21217
 Alpha  occ. eigenvalues --  -11.21033 -11.20645 -11.20495 -11.20212 -11.20032
 Alpha  occ. eigenvalues --   -1.60032  -1.39588  -1.19437  -1.08852  -1.07655
 Alpha  occ. eigenvalues --   -1.04824  -1.02795  -0.95700  -0.95311  -0.86342
 Alpha  occ. eigenvalues --   -0.86226  -0.82538  -0.78880  -0.77699  -0.77254
 Alpha  occ. eigenvalues --   -0.72207  -0.71340  -0.70543  -0.65096  -0.64827
 Alpha  occ. eigenvalues --   -0.64287  -0.62170  -0.60197  -0.58719  -0.56875
 Alpha  occ. eigenvalues --   -0.55335  -0.54629  -0.53161  -0.52916  -0.52036
 Alpha  occ. eigenvalues --   -0.51732  -0.49323  -0.48987  -0.48975  -0.47170
 Alpha  occ. eigenvalues --   -0.45909  -0.45264  -0.44934  -0.44427  -0.43030
 Alpha  occ. eigenvalues --   -0.37418  -0.36421
 Alpha virt. eigenvalues --    0.04898   0.11212   0.16374   0.20891   0.23357
 Alpha virt. eigenvalues --    0.24758   0.26228   0.27570   0.27856   0.28548
 Alpha virt. eigenvalues --    0.29300   0.30995   0.31864   0.32039   0.32516

 Mulliken charges:
               1
     1  C   -0.298470
     2  C   -0.304346
     3  C   -0.475708
     4  H    0.147317
     5  H    0.143841
     6  H    0.178644
     7  H    0.148380
     8  H    0.149123
     9  H    0.152349
    10  H    0.160409
    11  C   -0.300488
    12  C   -0.298844
    13  C   -0.475309
    14  H    0.162904
    15  H    0.141786
    16  H    0.152315
    17  H    0.150094
    18  H    0.147186
    19  H    0.154162
    20  H    0.159492
    21  C   -0.170404
    22  C   -0.218868
    23  C   -0.172177
    24  C    0.156527
    25  C   -0.170458
    26  C   -0.218794
    27  H    0.225989
    28  H    0.224319
    29  H    0.279445
    30  H    0.275577
    31  H    0.223665
    32  N    0.491301
    33  O   -0.459150
    34  O   -0.461810
 Sum of Mulliken charges =  -0.00000

 Dipole moment (field-independent basis, Debye):
    X=             -3.8873    Y=              3.3773    Z=              0.9252  Tot=              5.2320
 Quadrupole moment (field-independent basis, Debye-Ang):
   XX=            -77.7430   YY=            -99.3574   ZZ=            -93.1950
   XY=             -3.6320   XZ=             -0.3868   YZ=              1.4458

 Normal termination of Gaussian 16 at Wed May  5 23:26:11 2021.
