 Gaussian 16, Revision A.03,
 Gaussian 16:  EM64L-G16RevA.03 25-Dec-2016

 -------------
 #p 6-31g* mp2
 -------------

 ------------------------------------------------------
 Input file generated by CHIRIPA (05-May-2021 14:53:15)
 ------------------------------------------------------
 Symbolic Z-matrix:
 Charge =  0 Multiplicity = 1

                         Standard orientation:
 ---------------------------------------------------------------------
 Center     Atomic      Atomic             Coordinates (Angstroms)
 Number     Number       Type             X           Y           Z
 ---------------------------------------------------------------------
      1          6           0       -4.466233   -0.376737    0.215082
      2          6           0       -5.833539   -0.841602   -0.287271
      3          6           0       -6.537071   -1.778418    0.695181
      4          1           0       -3.833783   -1.255111    0.403261
      5          1           0       -4.591623    0.130954    1.181478
      6          1           0       -5.705777   -1.347047   -1.253096
      7          1           0       -6.462743    0.037989   -0.474458
      8          1           0       -6.693638   -1.280390    1.657499
      9          1           0       -5.932371   -2.673296    0.874437
     10          1           0       -7.512640   -2.098514    0.316149
     11          6           0       -3.750544    0.560410   -0.756140
     12          6           0       -2.383238    1.025275   -0.253787
     13          6           0       -1.679706    1.962092   -1.236238
     14          1           0       -3.625154    0.052719   -1.722536
     15          1           0       -4.382994    1.438784   -0.944318
     16          1           0       -1.754034    0.145684   -0.066600
     17          1           0       -2.511000    1.530720    0.712038
     18          1           0       -2.284406    2.856969   -1.415494
     19          1           0       -1.523139    1.464064   -2.198556
     20          1           0       -0.704137    2.282187   -0.857206
     21          6           0        1.834902    1.513045    1.612901
     22          6           0        2.022679    1.766637    0.250201
     23          6           0        2.782503    0.895397   -0.536028
     24          6           0        3.342587   -0.224959    0.075854
     25          6           0        3.173620   -0.504892    1.430984
     26          6           0        2.409959    0.380088    2.197913
     27          1           0        1.243162    2.195183    2.216166
     28          1           0        1.577271    2.645726   -0.206811
     29          1           0        2.943861    1.067653   -1.593245
     30          1           0        3.630156   -1.389435    1.858273
     31          1           0        2.265805    0.180624    3.255966
     32          7           0        4.149010   -1.154576   -0.746275
     33          8           0        4.631864   -2.134667   -0.183329
     34          8           0        4.282960   -0.885514   -1.938038
 ---------------------------------------------------------------------

 SCF Done:  E(RHF) =  -669.535264857     A.U. after   15 cycles
 E2 =    -0.2091491164D+01 EUMP2 =    -0.67162675602106D+03

 The electronic state is 1-A.
 Alpha  occ. eigenvalues --  -20.60782 -20.60777 -15.85837 -11.31211 -11.27784
 Alpha  occ. eigenvalues --  -11.27781 -11.27534 -11.26798 -11.26788 -11.22126
 Alpha  occ. eigenvalues --  -11.21865 -11.21785 -11.21712 -11.21698 -11.21297
 Alpha  occ. eigenvalues --   -1.59858  -1.39411  -1.19390  -1.08819  -1.08777
 Alpha  occ. eigenvalues --   -1.04797  -1.03934  -0.96395  -0.95612  -0.87422
 Alpha  occ. eigenvalues --   -0.86191  -0.82446  -0.80002  -0.78612  -0.77494
 Alpha  occ. eigenvalues --   -0.72055  -0.71181  -0.70490  -0.65437  -0.65041
 Alpha  occ. eigenvalues --   -0.64838  -0.62181  -0.61323  -0.59776  -0.58005
 Alpha  occ. eigenvalues --   -0.55667  -0.55294  -0.53363  -0.53050  -0.52895
 Alpha  occ. eigenvalues --   -0.52600  -0.50321  -0.48816  -0.48808  -0.48313
 Alpha  occ. eigenvalues --   -0.47021  -0.46158  -0.46069  -0.44814  -0.44194
 Alpha  occ. eigenvalues --   -0.37357  -0.36374
 Alpha virt. eigenvalues --    0.05046   0.11140   0.16496   0.20638   0.22622
 Alpha virt. eigenvalues --    0.24042   0.26149   0.26283   0.27094   0.28145
 Alpha virt. eigenvalues --    0.28440   0.30108   0.31039   0.31634   0.32031

 Mulliken charges:
               1
     1  C   -0.298548
     2  C   -0.299995
     3  C   -0.475933
     4  H    0.150771
     5  H    0.148263
     6  H    0.153288
     7  H    0.152023
     8  H    0.154651
     9  H    0.155886
    10  H    0.161292
    11  C   -0.298895
    12  C   -0.299228
    13  C   -0.477832
    14  H    0.151895
    15  H    0.149814
    16  H    0.155798
    17  H    0.147659
    18  H    0.155706
    19  H    0.159248
    20  H    0.151171
    21  C   -0.170905
    22  C   -0.216743
    23  C   -0.171717
    24  C    0.158231
    25  C   -0.170746
    26  C   -0.218664
    27  H    0.226124
    28  H    0.224565
    29  H    0.276102
    30  H    0.275712
    31  H    0.223633
    32  N    0.488086
    33  O   -0.460429
    34  O   -0.460281
 Sum of Mulliken charges =  -0.00000

 Dipole moment (field-independent basis, Debye):
    X=             -2.8962    Y=              3.2066    Z=              2.8891  Tot=              5.1978
 Quadrupole moment (field-independent basis, Debye-Ang):
   XX=           -114.3886   YY=            -95.0716   ZZ=            -91.3942
   XY=             10.4858   XZ=             10.5702   YZ=             -2.2233

 Normal termination of Gaussian 16 at Thu May  6 02:39:47 2021.
