 Gaussian 16, Revision A.03,
 Gaussian 16:  EM64L-G16RevA.03 25-Dec-2016

 -------------
 #p 6-31g* mp2
 -------------

 ------------------------------------------------------
 Input file generated by CHIRIPA (05-May-2021 14:57:22)
 ------------------------------------------------------
 Symbolic Z-matrix:
 Charge =  0 Multiplicity = 1

                         Standard orientation:
 ---------------------------------------------------------------------
 Center     Atomic      Atomic             Coordinates (Angstroms)
 Number     Number       Type             X           Y           Z
 ---------------------------------------------------------------------
      1          6           0       -1.578120    2.409300    0.830136
      2          6           0       -2.476941    2.276068   -0.233297
      3          6           0       -3.073492    1.041964   -0.508366
      4          6           0       -2.747018   -0.042861    0.303951
      5          6           0       -1.855316    0.058071    1.370708
      6          6           0       -1.270717    1.301829    1.627339
      7          1           0       -1.119347    3.371731    1.036654
      8          1           0       -2.717542    3.134426   -0.854084
      9          1           0       -3.772697    0.910752   -1.325259
     10          1           0       -1.635161   -0.815687    1.971954
     11          1           0       -0.573034    1.402356    2.453884
     12          7           0       -3.372233   -1.354462    0.022508
     13          8           0       -3.067987   -2.294911    0.753006
     14          8           0       -4.154684   -1.417210   -0.923257
     15          6           0        0.341031    0.059681   -1.354373
     16          6           0        0.765793   -1.176510   -0.856447
     17          6           0        2.039698   -1.317214   -0.297953
     18          6           0        2.866615   -0.195830   -0.253270
     19          6           0        2.472270    1.049107   -0.741032
     20          6           0        1.194121    1.166593   -1.295180
     21          1           0       -0.650218    0.159965   -1.786536
     22          1           0        0.105402   -2.037867   -0.901095
     23          1           0        2.393996   -2.262505    0.094877
     24          1           0        3.153032    1.889682   -0.682596
     25          1           0        0.866914    2.127865   -1.681105
     26          7           0        4.217488   -0.332498    0.335683
     27          8           0        4.927048    0.670697    0.363288
     28          8           0        4.541162   -1.440224    0.758547
 ---------------------------------------------------------------------

 SCF Done:  E(RHF) =  -868.335567840     A.U. after   16 cycles
 E2 =    -0.2606207087D+01 EUMP2 =    -0.87094177492737D+03

 The electronic state is 1-A.
 Alpha  occ. eigenvalues --  -20.61821 -20.61812 -20.60941 -20.60929 -15.86861
 Alpha  occ. eigenvalues --  -15.85993 -11.32173 -11.31303 -11.28793 -11.28678
 Alpha  occ. eigenvalues --  -11.28455 -11.27929 -11.27846 -11.27810 -11.27622
 Alpha  occ. eigenvalues --  -11.27467 -11.26878 -11.26742  -1.60904  -1.60019
 Alpha  occ. eigenvalues --   -1.40451  -1.39573  -1.20409  -1.19470  -1.09771
 Alpha  occ. eigenvalues --   -1.08863  -1.05759  -1.04877  -0.96608  -0.95712
 Alpha  occ. eigenvalues --   -0.87149  -0.86268  -0.83415  -0.82553  -0.78478
 Alpha  occ. eigenvalues --   -0.77616  -0.73061  -0.72307  -0.72198  -0.71447
 Alpha  occ. eigenvalues --   -0.71351  -0.70577  -0.66003  -0.65715  -0.65115
 Alpha  occ. eigenvalues --   -0.64875  -0.63078  -0.62225  -0.56225  -0.55742
 Alpha  occ. eigenvalues --   -0.54372  -0.53807  -0.52950  -0.52574  -0.49831
 Alpha  occ. eigenvalues --   -0.49823  -0.48968  -0.48960  -0.45850  -0.44992
 Alpha  occ. eigenvalues --   -0.38562  -0.37890  -0.36796  -0.36276
 Alpha virt. eigenvalues --    0.03956   0.04932   0.09931   0.11418   0.15514
 Alpha virt. eigenvalues --    0.16417   0.20411   0.21454   0.26328   0.26787
 Alpha virt. eigenvalues --    0.27836   0.28269   0.30237   0.30673   0.32040

 Mulliken charges:
               1
     1  C   -0.169517
     2  C   -0.222675
     3  C   -0.184760
     4  C    0.154043
     5  C   -0.165987
     6  C   -0.211159
     7  H    0.228774
     8  H    0.225429
     9  H    0.277079
    10  H    0.278196
    11  H    0.229934
    12  N    0.485887
    13  O   -0.458911
    14  O   -0.458829
    15  C   -0.163928
    16  C   -0.226085
    17  C   -0.173392
    18  C    0.156303
    19  C   -0.174974
    20  C   -0.219313
    21  H    0.228756
    22  H    0.231889
    23  H    0.277152
    24  H    0.273033
    25  H    0.216921
    26  N    0.487920
    27  O   -0.462254
    28  O   -0.459532
 Sum of Mulliken charges =  -0.00000

 Dipole moment (field-independent basis, Debye):
    X=             -2.7211    Y=              5.0800    Z=             -0.8652  Tot=              5.8274
 Quadrupole moment (field-independent basis, Debye-Ang):
   XX=           -144.7336   YY=           -100.2882   ZZ=           -100.9236
   XY=            -10.8874   XZ=             -5.0125   YZ=             -0.8398

 Normal termination of Gaussian 16 at Wed May  5 22:36:07 2021.
