 Gaussian 16, Revision A.03,
 Gaussian 16:  EM64L-G16RevA.03 25-Dec-2016

 -------------
 #p 6-31g* mp2
 -------------

 ------------------------------------------------------
 Input file generated by CHIRIPA (05-May-2021 14:57:24)
 ------------------------------------------------------
 Symbolic Z-matrix:
 Charge =  0 Multiplicity = 1

                         Standard orientation:
 ---------------------------------------------------------------------
 Center     Atomic      Atomic             Coordinates (Angstroms)
 Number     Number       Type             X           Y           Z
 ---------------------------------------------------------------------
      1          6           0        2.368848    2.464827   -0.012407
      2          6           0        2.340434    1.859621   -1.273137
      3          6           0        2.610061    0.494843   -1.411804
      4          6           0        2.905730   -0.237960   -0.263384
      5          6           0        2.941786    0.336186    1.006398
      6          6           0        2.668904    1.702521    1.121338
      7          1           0        2.158131    3.525624    0.086097
      8          1           0        2.107711    2.449168   -2.155361
      9          1           0        2.594900    0.000870   -2.375744
     10          1           0        3.176978   -0.277525    1.867480
     11          1           0        2.691687    2.169865    2.101703
     12          7           0        3.192895   -1.683614   -0.397625
     13          8           0        3.450677   -2.307246    0.629638
     14          8           0        3.154755   -2.165713   -1.527565
     15          6           0       -0.699744    0.463079    1.462487
     16          6           0       -1.154164    1.351575    0.482386
     17          6           0       -2.348813    1.104901   -0.200633
     18          6           0       -3.067093   -0.045099    0.123196
     19          6           0       -2.640626   -0.949365    1.094647
     20          6           0       -1.443114   -0.682535    1.764956
     21          1           0        0.229400    0.662531    1.988137
     22          1           0       -0.578921    2.242070    0.245406
     23          1           0       -2.723803    1.775947   -0.963849
     24          1           0       -3.235847   -1.828678    1.308980
     25          1           0       -1.092636   -1.374313    2.525649
     26          7           0       -4.333330   -0.316911   -0.593159
     27          8           0       -4.947738   -1.337134   -0.289377
     28          8           0       -4.687420    0.495413   -1.444855
 ---------------------------------------------------------------------

 SCF Done:  E(RHF) =  -868.335421091     A.U. after   16 cycles
 E2 =    -0.2604136264D+01 EUMP2 =    -0.87093955735487D+03

 The electronic state is 1-A.
 Alpha  occ. eigenvalues --  -20.61625 -20.61598 -20.60773 -20.60760 -15.86676
 Alpha  occ. eigenvalues --  -15.85823 -11.32297 -11.31181 -11.28934 -11.28829
 Alpha  occ. eigenvalues --  -11.28693 -11.28006 -11.27909 -11.27787 -11.27724
 Alpha  occ. eigenvalues --  -11.27393 -11.26762 -11.26717  -1.60682  -1.59845
 Alpha  occ. eigenvalues --   -1.40230  -1.39399  -1.20520  -1.19351  -1.09873
 Alpha  occ. eigenvalues --   -1.08742  -1.05959  -1.04762  -0.96652  -0.95585
 Alpha  occ. eigenvalues --   -0.87327  -0.86159  -0.83482  -0.82420  -0.78466
 Alpha  occ. eigenvalues --   -0.77478  -0.72890  -0.72043  -0.72010  -0.71613
 Alpha  occ. eigenvalues --   -0.71168  -0.70510  -0.66156  -0.65929  -0.65004
 Alpha  occ. eigenvalues --   -0.64813  -0.63263  -0.62139  -0.56441  -0.55529
 Alpha  occ. eigenvalues --   -0.54145  -0.54011  -0.52993  -0.52785  -0.49668
 Alpha  occ. eigenvalues --   -0.49629  -0.48804  -0.48795  -0.45579  -0.44807
 Alpha  occ. eigenvalues --   -0.38520  -0.37620  -0.37206  -0.36330
 Alpha virt. eigenvalues --    0.03999   0.05076   0.09996   0.11276   0.15296
 Alpha virt. eigenvalues --    0.16556   0.19754   0.22046   0.25556   0.26493
 Alpha virt. eigenvalues --    0.28109   0.29131   0.29627   0.31512   0.32195

 Mulliken charges:
               1
     1  C   -0.178841
     2  C   -0.216849
     3  C   -0.166481
     4  C    0.165081
     5  C   -0.176014
     6  C   -0.229583
     7  H    0.228330
     8  H    0.228423
     9  H    0.281150
    10  H    0.277009
    11  H    0.225836
    12  N    0.487985
    13  O   -0.460131
    14  O   -0.454982
    15  C   -0.169438
    16  C   -0.217927
    17  C   -0.172829
    18  C    0.158516
    19  C   -0.170024
    20  C   -0.219598
    21  H    0.222875
    22  H    0.215741
    23  H    0.272846
    24  H    0.276667
    25  H    0.225336
    26  N    0.488171
    27  O   -0.459250
    28  O   -0.462022
 Sum of Mulliken charges =  -0.00000

 Dipole moment (field-independent basis, Debye):
    X=              3.7405    Y=              5.8688    Z=              2.7862  Tot=              7.4965
 Quadrupole moment (field-independent basis, Debye-Ang):
   XX=           -139.0573   YY=           -104.6372   ZZ=            -98.5425
   XY=             12.6024   XZ=             -5.6849   YZ=             -4.5804

 Normal termination of Gaussian 16 at Thu May  6 09:47:33 2021.
