 Gaussian 16, Revision A.03,
 Gaussian 16:  EM64L-G16RevA.03 25-Dec-2016

 -------------
 #p 6-31g* mp2
 -------------

 ------------------------------------------------------
 Input file generated by CHIRIPA (05-May-2021 14:51:11)
 ------------------------------------------------------
 Symbolic Z-matrix:
 Charge =  0 Multiplicity = 1

                         Standard orientation:
 ---------------------------------------------------------------------
 Center     Atomic      Atomic             Coordinates (Angstroms)
 Number     Number       Type             X           Y           Z
 ---------------------------------------------------------------------
      1          6           0        3.969309    0.799063   -0.025448
      2          6           0        2.887086    1.868430   -0.177872
      3          6           0        3.444424    3.289728   -0.093727
      4          1           0        4.479911    0.937817    0.937349
      5          1           0        4.729368    0.942664   -0.805886
      6          1           0        2.128579    1.722008    0.601771
      7          1           0        2.378873    1.726996   -1.140333
      8          1           0        4.186204    3.459870   -0.880757
      9          1           0        3.934488    3.454853    0.871245
     10          1           0        2.653762    4.038254   -0.205181
     11          6           0        3.427665   -0.626995   -0.107351
     12          6           0        4.509888   -1.696362    0.045073
     13          6           0        3.952550   -3.117660   -0.039071
     14          1           0        2.667607   -0.770596    0.673088
     15          1           0        2.917063   -0.765749   -1.070148
     16          1           0        5.018102   -1.554928    1.007534
     17          1           0        5.268395   -1.549939   -0.734570
     18          1           0        3.462487   -3.282785   -1.004044
     19          1           0        3.210771   -3.287802    0.747959
     20          1           0        4.743212   -3.866186    0.072382
     21          6           0       -3.003968   -0.282076   -0.183886
     22          6           0       -1.871056    0.240039    0.700360
     23          6           0       -0.487729   -0.160333    0.186646
     24          1           0       -2.937120   -1.376880   -0.246177
     25          1           0       -2.867118    0.098075   -1.205725
     26          1           0       -2.010771   -0.139859    1.720543
     27          1           0       -1.940724    1.333713    0.760708
     28          1           0       -0.323103    0.231733   -0.822206
     29          1           0       -0.393547   -1.250211    0.143081
     30          1           0        0.307310    0.223303    0.833637
     31          6           0       -4.393006    0.110008    0.316686
     32          6           0       -5.525918   -0.412108   -0.567560
     33          6           0       -6.909246   -0.011736   -0.053847
     34          1           0       -4.529858   -0.270143    1.338523
     35          1           0       -4.459856    1.204812    0.378976
     36          1           0       -5.456250   -1.505780   -0.627909
     37          1           0       -5.386203   -0.032210   -1.587743
     38          1           0       -7.003427    1.078143   -0.010283
     39          1           0       -7.073871   -0.403801    0.955005
     40          1           0       -7.704285   -0.395370   -0.700839
 ---------------------------------------------------------------------

 SCF Done:  E(RHF) =  -470.732404698     A.U. after   11 cycles
 E2 =    -0.1583425653D+01 EUMP2 =    -0.47231583035065D+03

 The electronic state is 1-A.
 Alpha  occ. eigenvalues --  -11.21590 -11.21558 -11.21545 -11.21532 -11.21385
 Alpha  occ. eigenvalues --  -11.21337 -11.21325 -11.21259 -11.21063 -11.21036
 Alpha  occ. eigenvalues --  -11.21032 -11.20965  -1.08418  -1.08364  -1.03513
 Alpha  occ. eigenvalues --   -1.03470  -0.95968  -0.95915  -0.86978  -0.86946
 Alpha  occ. eigenvalues --   -0.79623  -0.79521  -0.78265  -0.78112  -0.65043
 Alpha  occ. eigenvalues --   -0.65022  -0.60917  -0.60878  -0.59431  -0.59208
 Alpha  occ. eigenvalues --   -0.57565  -0.57542  -0.55259  -0.55198  -0.52823
 Alpha  occ. eigenvalues --   -0.52503  -0.52417  -0.52318  -0.49919  -0.49855
 Alpha  occ. eigenvalues --   -0.47960  -0.47799  -0.46604  -0.46566  -0.45831
 Alpha  occ. eigenvalues --   -0.45702  -0.45685  -0.45600  -0.43758  -0.43581
 Alpha virt. eigenvalues --    0.21809   0.23090   0.23966   0.24442   0.25656
 Alpha virt. eigenvalues --    0.26112   0.26786   0.27655   0.27866   0.29572
 Alpha virt. eigenvalues --    0.30394   0.31156   0.31854   0.32039   0.32107

 Mulliken charges:
               1
     1  C   -0.298637
     2  C   -0.301981
     3  C   -0.475424
     4  H    0.148907
     5  H    0.149113
     6  H    0.154987
     7  H    0.152315
     8  H    0.154944
     9  H    0.154833
    10  H    0.159850
    11  C   -0.300813
    12  C   -0.299546
    13  C   -0.475529
    14  H    0.153516
    15  H    0.150448
    16  H    0.151461
    17  H    0.151591
    18  H    0.155163
    19  H    0.154957
    20  H    0.159973
    21  C   -0.298592
    22  C   -0.300484
    23  C   -0.477941
    24  H    0.149613
    25  H    0.149359
    26  H    0.151258
    27  H    0.151629
    28  H    0.155588
    29  H    0.154665
    30  H    0.164949
    31  C   -0.298167
    32  C   -0.299594
    33  C   -0.475678
    34  H    0.149419
    35  H    0.149563
    36  H    0.151919
    37  H    0.151867
    38  H    0.155143
    39  H    0.155148
    40  H    0.160206
 Sum of Mulliken charges =  -0.00000

 Dipole moment (field-independent basis, Debye):
    X=             -0.0018    Y=             -0.0041    Z=             -0.0051  Tot=              0.0068
 Quadrupole moment (field-independent basis, Debye-Ang):
   XX=            -86.2502   YY=            -85.3663   ZZ=            -83.4926
   XY=             -0.0317   XZ=              0.0884   YZ=             -0.5869

 Normal termination of Gaussian 16 at Thu May  6 03:49:36 2021.
