 Gaussian 16, Revision A.03,
 Gaussian 16:  EM64L-G16RevA.03 25-Dec-2016

 -------------
 #p 6-31g* mp2
 -------------

 ------------------------------------------------------
 Input file generated by CHIRIPA (05-May-2021 14:51:14)
 ------------------------------------------------------
 Symbolic Z-matrix:
 Charge =  0 Multiplicity = 1

                         Standard orientation:
 ---------------------------------------------------------------------
 Center     Atomic      Atomic             Coordinates (Angstroms)
 Number     Number       Type             X           Y           Z
 ---------------------------------------------------------------------
      1          6           0        3.405227    0.776309    0.323396
      2          6           0        3.116425    2.029191   -0.504170
      3          6           0        2.140767    2.982231    0.186917
      4          1           0        2.460865    0.252914    0.526332
      5          1           0        3.812610    1.075630    1.299020
      6          1           0        2.711002    1.727545   -1.478469
      7          1           0        4.061606    2.549561   -0.705322
      8          1           0        2.541682    3.311648    1.150946
      9          1           0        1.183404    2.484961    0.373406
     10          1           0        1.948440    3.871037   -0.422094
     11          6           0        4.378944   -0.186190   -0.354245
     12          6           0        4.667747   -1.439071    0.473321
     13          6           0        5.643404   -2.392112   -0.217766
     14          1           0        3.971562   -0.485511   -1.329869
     15          1           0        5.323307    0.337205   -0.557181
     16          1           0        3.722566   -1.959442    0.674473
     17          1           0        5.073170   -1.137426    1.447620
     18          1           0        6.600768   -1.894842   -0.404255
     19          1           0        5.242489   -2.721528   -1.181796
     20          1           0        5.835731   -3.280918    0.391245
     21          6           0       -4.571697   -0.221825    0.356303
     22          6           0       -5.751426   -0.371521   -0.604849
     23          6           0       -7.104223   -0.222490    0.091947
     24          1           0       -4.659451   -0.972019    1.154083
     25          1           0       -4.627614    0.761192    0.844099
     26          1           0       -5.692532   -1.353411   -1.091715
     27          1           0       -5.660750    0.378991   -1.400541
     28          1           0       -7.188473    0.762147    0.563111
     29          1           0       -7.220436   -0.980099    0.873691
     30          1           0       -7.933574   -0.333051   -0.613613
     31          6           0       -3.212475   -0.368294   -0.325454
     32          6           0       -2.032746   -0.218598    0.635698
     33          6           0       -0.679948   -0.367629   -0.061098
     34          1           0       -3.156558   -1.351311   -0.813251
     35          1           0       -3.124720    0.381900   -1.123235
     36          1           0       -2.123422   -0.969110    1.431390
     37          1           0       -2.091639    0.763292    1.122565
     38          1           0       -0.563736    0.389980   -0.842842
     39          1           0       -0.595698   -1.352265   -0.532262
     40          1           0        0.149402   -0.257069    0.644462
 ---------------------------------------------------------------------

 SCF Done:  E(RHF) =  -470.733147153     A.U. after   11 cycles
 E2 =    -0.1582952032D+01 EUMP2 =    -0.47231609918421D+03

 The electronic state is 1-A.
 Alpha  occ. eigenvalues --  -11.21670 -11.21625 -11.21560 -11.21539 -11.21446
 Alpha  occ. eigenvalues --  -11.21384 -11.21334 -11.21267 -11.21168 -11.21088
 Alpha  occ. eigenvalues --  -11.21038 -11.21007  -1.08476  -1.08370  -1.03588
 Alpha  occ. eigenvalues --   -1.03472  -0.96039  -0.95926  -0.87061  -0.86942
 Alpha  occ. eigenvalues --   -0.79662  -0.79529  -0.78287  -0.78185  -0.65116
 Alpha  occ. eigenvalues --   -0.65007  -0.61039  -0.60835  -0.59447  -0.59253
 Alpha  occ. eigenvalues --   -0.57653  -0.57535  -0.55378  -0.55159  -0.52785
 Alpha  occ. eigenvalues --   -0.52619  -0.52471  -0.52332  -0.50001  -0.49840
 Alpha  occ. eigenvalues --   -0.47979  -0.47848  -0.46685  -0.46553  -0.45828
 Alpha  occ. eigenvalues --   -0.45755  -0.45725  -0.45654  -0.43762  -0.43719
 Alpha virt. eigenvalues --    0.20960   0.23009   0.23691   0.24932   0.25954
 Alpha virt. eigenvalues --    0.26543   0.27093   0.27572   0.27717   0.29065
 Alpha virt. eigenvalues --    0.30838   0.31141   0.31770   0.31857   0.32121

 Mulliken charges:
               1
     1  C   -0.306240
     2  C   -0.298640
     3  C   -0.479216
     4  H    0.157745
     5  H    0.148803
     6  H    0.151909
     7  H    0.151608
     8  H    0.154710
     9  H    0.158748
    10  H    0.159631
    11  C   -0.297656
    12  C   -0.299726
    13  C   -0.475662
    14  H    0.149726
    15  H    0.149336
    16  H    0.151877
    17  H    0.151698
    18  H    0.155099
    19  H    0.155190
    20  H    0.160038
    21  C   -0.298317
    22  C   -0.299671
    23  C   -0.475734
    24  H    0.149736
    25  H    0.149750
    26  H    0.151937
    27  H    0.152023
    28  H    0.155279
    29  H    0.155215
    30  H    0.160336
    31  C   -0.298805
    32  C   -0.299646
    33  C   -0.482796
    34  H    0.149585
    35  H    0.149859
    36  H    0.152331
    37  H    0.152547
    38  H    0.156348
    39  H    0.155363
    40  H    0.165685
 Sum of Mulliken charges =  -0.00000

 Dipole moment (field-independent basis, Debye):
    X=             -0.0499    Y=             -0.0185    Z=              0.0002  Tot=              0.0533
 Quadrupole moment (field-independent basis, Debye-Ang):
   XX=            -85.8644   YY=            -84.2397   ZZ=            -84.8318
   XY=              0.9873   XZ=              0.9631   YZ=             -0.2950

 Normal termination of Gaussian 16 at Thu May  6 00:51:16 2021.
