 Gaussian 16, Revision A.03,
 Gaussian 16:  EM64L-G16RevA.03 25-Dec-2016

 -------------
 #p 6-31g* mp2
 -------------

 ------------------------------------------------------
 Input file generated by CHIRIPA (05-May-2021 14:57:23)
 ------------------------------------------------------
 Symbolic Z-matrix:
 Charge =  0 Multiplicity = 1

                         Standard orientation:
 ---------------------------------------------------------------------
 Center     Atomic      Atomic             Coordinates (Angstroms)
 Number     Number       Type             X           Y           Z
 ---------------------------------------------------------------------
      1          6           0        0.567771    2.455924   -0.393105
      2          6           0        1.690693    2.588359    0.430321
      3          6           0        2.640582    1.565326    0.505575
      4          6           0        2.435087    0.418374   -0.259646
      5          6           0        1.326640    0.256692   -1.089401
      6          6           0        0.389643    1.292564   -1.149005
      7          1           0       -0.165118    3.255627   -0.445485
      8          1           0        1.831621    3.490717    1.018482
      9          1           0        3.519040    1.641616    1.134788
     10          1           0        1.213464   -0.654647   -1.663919
     11          1           0       -0.481475    1.186964   -1.789354
     12          7           0        3.433868   -0.671461   -0.188262
     13          8           0        3.229771   -1.671945   -0.872376
     14          8           0        4.401898   -0.504553    0.550452
     15          6           0       -4.161103    0.975636   -0.289971
     16          6           0       -3.406496    1.174056    0.870942
     17          6           0       -2.356648    0.308425    1.191956
     18          6           0       -2.087697   -0.750125    0.325683
     19          6           0       -2.821354   -0.974172   -0.838293
     20          6           0       -3.866642   -0.095957   -1.139386
     21          1           0       -4.974879    1.652967   -0.531605
     22          1           0       -3.632919    2.005426    1.532456
     23          1           0       -1.756419    0.438779    2.084229
     24          1           0       -2.571839   -1.811795   -1.478253
     25          1           0       -4.450998   -0.252490   -2.041644
     26          7           0       -0.978684   -1.673192    0.654981
     27          8           0       -0.761836   -2.598284   -0.124645
     28          8           0       -0.347287   -1.454120    1.686476
 ---------------------------------------------------------------------

 SCF Done:  E(RHF) =  -868.336050732     A.U. after   16 cycles
 E2 =    -0.2605437922D+01 EUMP2 =    -0.87094148865397D+03

 The electronic state is 1-A.
 Alpha  occ. eigenvalues --  -20.61143 -20.61130 -20.59976 -20.59922 -15.86164
 Alpha  occ. eigenvalues --  -15.85015 -11.31737 -11.30655 -11.28376 -11.28326
 Alpha  occ. eigenvalues --  -11.28163 -11.27453 -11.27425 -11.27270 -11.27181
 Alpha  occ. eigenvalues --  -11.27135 -11.26412 -11.26372  -1.60198  -1.59011
 Alpha  occ. eigenvalues --   -1.39748  -1.38560  -1.19984  -1.18870  -1.09326
 Alpha  occ. eigenvalues --   -1.08227  -1.05412  -1.04343  -0.96116  -0.95015
 Alpha  occ. eigenvalues --   -0.86784  -0.85713  -0.82945  -0.81860  -0.77955
 Alpha  occ. eigenvalues --   -0.76837  -0.72388  -0.71607  -0.71236  -0.71060
 Alpha  occ. eigenvalues --   -0.70296  -0.69986  -0.65614  -0.65395  -0.64536
 Alpha  occ. eigenvalues --   -0.64367  -0.62736  -0.61664  -0.55888  -0.54868
 Alpha  occ. eigenvalues --   -0.53906  -0.53482  -0.52563  -0.52337  -0.49159
 Alpha  occ. eigenvalues --   -0.49142  -0.48027  -0.47969  -0.45097  -0.43908
 Alpha  occ. eigenvalues --   -0.38183  -0.37271  -0.36569  -0.35784
 Alpha virt. eigenvalues --    0.04413   0.05832   0.10532   0.11720   0.15964
 Alpha virt. eigenvalues --    0.17168   0.20778   0.21770   0.26670   0.27450
 Alpha virt. eigenvalues --    0.27816   0.28622   0.30433   0.31123   0.31976

 Mulliken charges:
               1
     1  C   -0.173200
     2  C   -0.219499
     3  C   -0.168950
     4  C    0.169558
     5  C   -0.181708
     6  C   -0.222997
     7  H    0.219406
     8  H    0.220040
     9  H    0.275386
    10  H    0.283866
    11  H    0.221985
    12  N    0.489354
    13  O   -0.453721
    14  O   -0.463342
    15  C   -0.173412
    16  C   -0.222814
    17  C   -0.166929
    18  C    0.161555
    19  C   -0.179741
    20  C   -0.221000
    21  H    0.226708
    22  H    0.223604
    23  H    0.277903
    24  H    0.277436
    25  H    0.225340
    26  N    0.487456
    27  O   -0.457288
    28  O   -0.454997
 Sum of Mulliken charges =  -0.00000

 Dipole moment (field-independent basis, Debye):
    X=             -7.3308    Y=              6.7744    Z=             -1.2795  Tot=             10.0633
 Quadrupole moment (field-independent basis, Debye-Ang):
   XX=           -105.0967   YY=           -104.9389   ZZ=           -100.5711
   XY=              5.9370   XZ=              4.3104   YZ=              5.4906

 Normal termination of Gaussian 16 at Thu May  6 17:58:54 2021.
