 Gaussian 16, Revision A.03,
 Gaussian 16:  EM64L-G16RevA.03 25-Dec-2016

 -------------
 #p 6-31g* mp2
 -------------

 ------------------------------------------------------
 Input file generated by CHIRIPA (05-May-2021 14:51:12)
 ------------------------------------------------------
 Symbolic Z-matrix:
 Charge =  0 Multiplicity = 1

                         Standard orientation:
 ---------------------------------------------------------------------
 Center     Atomic      Atomic             Coordinates (Angstroms)
 Number     Number       Type             X           Y           Z
 ---------------------------------------------------------------------
      1          6           0        2.707471    0.402410   -0.356614
      2          6           0        2.563542    1.600590   -1.295568
      3          6           0        1.184634    2.255744   -1.210838
      4          1           0        1.932563   -0.338483   -0.596489
      5          1           0        2.518608    0.729328    0.675302
      6          1           0        2.753980    1.271795   -2.325249
      7          1           0        3.339003    2.338633   -1.053555
      8          1           0        0.988769    2.611054   -0.193984
      9          1           0        0.400422    1.538154   -1.472903
     10          1           0        1.103607    3.109999   -1.890207
     11          6           0        4.080547   -0.263186   -0.429900
     12          6           0        4.224476   -1.461366    0.509054
     13          6           0        5.603384   -2.116519    0.424324
     14          1           0        4.269410   -0.590103   -1.461816
     15          1           0        4.855455    0.477708   -0.190025
     16          1           0        3.449015   -2.199408    0.267041
     17          1           0        4.034038   -1.132570    1.538735
     18          1           0        6.387596   -1.398930    0.686389
     19          1           0        5.799249   -2.471829   -0.592530
     20          1           0        5.684411   -2.970775    1.103694
     21          6           0       -3.004275    0.059279    1.037405
     22          6           0       -1.925284    1.132451    0.888863
     23          6           0       -1.154234    1.379027    2.185965
     24          1           0       -3.703559    0.358675    1.830066
     25          1           0       -2.536474   -0.877456    1.370699
     26          1           0       -2.394792    2.066506    0.554615
     27          1           0       -1.228598    0.830557    0.096332
     28          1           0       -0.659671    0.461377    2.520524
     29          1           0       -1.832492    1.704349    2.981410
     30          1           0       -0.387962    2.149805    2.057174
     31          6           0       -3.783743   -0.198503   -0.250891
     32          6           0       -4.862733   -1.271676   -0.102349
     33          6           0       -5.633784   -1.518251   -1.399452
     34          1           0       -4.251544    0.738231   -0.584186
     35          1           0       -3.084460   -0.497900   -1.043552
     36          1           0       -5.559420   -0.969782    0.690181
     37          1           0       -4.393227   -2.205731    0.231898
     38          1           0       -4.955527   -1.843573   -2.194897
     39          1           0       -6.128346   -0.600602   -1.734010
     40          1           0       -6.400056   -2.289030   -1.270661
 ---------------------------------------------------------------------

 SCF Done:  E(RHF) =  -470.732704594     A.U. after   11 cycles
 E2 =    -0.1583385890D+01 EUMP2 =    -0.47231609048401D+03

 The electronic state is 1-A.
 Alpha  occ. eigenvalues --  -11.21618 -11.21609 -11.21581 -11.21466 -11.21424
 Alpha  occ. eigenvalues --  -11.21365 -11.21364 -11.21295 -11.21084 -11.21059
 Alpha  occ. eigenvalues --  -11.21047 -11.21023  -1.08452  -1.08378  -1.03569
 Alpha  occ. eigenvalues --   -1.03456  -0.96018  -0.95916  -0.87013  -0.86956
 Alpha  occ. eigenvalues --   -0.79683  -0.79482  -0.78297  -0.78153  -0.65087
 Alpha  occ. eigenvalues --   -0.65011  -0.60977  -0.60869  -0.59450  -0.59251
 Alpha  occ. eigenvalues --   -0.57767  -0.57380  -0.55298  -0.55222  -0.52682
 Alpha  occ. eigenvalues --   -0.52675  -0.52416  -0.52336  -0.49985  -0.49846
 Alpha  occ. eigenvalues --   -0.48078  -0.47752  -0.46724  -0.46473  -0.45919
 Alpha  occ. eigenvalues --   -0.45727  -0.45691  -0.45445  -0.43797  -0.43735
 Alpha virt. eigenvalues --    0.21138   0.23169   0.23411   0.24740   0.25523
 Alpha virt. eigenvalues --    0.26476   0.26879   0.27605   0.27987   0.29337
 Alpha virt. eigenvalues --    0.29866   0.31253   0.31651   0.31931   0.32547

 Mulliken charges:
               1
     1  C   -0.298990
     2  C   -0.299917
     3  C   -0.480281
     4  H    0.148721
     5  H    0.150673
     6  H    0.151761
     7  H    0.151854
     8  H    0.158797
     9  H    0.158020
    10  H    0.160197
    11  C   -0.298222
    12  C   -0.299666
    13  C   -0.475717
    14  H    0.149521
    15  H    0.149832
    16  H    0.151676
    17  H    0.152115
    18  H    0.155267
    19  H    0.155175
    20  H    0.160283
    21  C   -0.298074
    22  C   -0.303860
    23  C   -0.477420
    24  H    0.149187
    25  H    0.149068
    26  H    0.151447
    27  H    0.158771
    28  H    0.155258
    29  H    0.154804
    30  H    0.160534
    31  C   -0.297990
    32  C   -0.299565
    33  C   -0.475666
    34  H    0.149628
    35  H    0.148620
    36  H    0.152003
    37  H    0.151795
    38  H    0.154979
    39  H    0.155202
    40  H    0.160178
 Sum of Mulliken charges =  -0.00000

 Dipole moment (field-independent basis, Debye):
    X=              0.0247    Y=              0.0173    Z=             -0.0121  Tot=              0.0325
 Quadrupole moment (field-independent basis, Debye-Ang):
   XX=            -85.6144   YY=            -84.3032   ZZ=            -84.9671
   XY=              0.0685   XZ=             -0.4878   YZ=              0.4270

 Normal termination of Gaussian 16 at Thu May  6 02:18:46 2021.
