 Gaussian 16, Revision A.03,
 Gaussian 16:  EM64L-G16RevA.03 25-Dec-2016

 -------------
 #p 6-31g* mp2
 -------------

 ------------------------------------------------------
 Input file generated by CHIRIPA (05-May-2021 14:53:14)
 ------------------------------------------------------
 Symbolic Z-matrix:
 Charge =  0 Multiplicity = 1

                         Standard orientation:
 ---------------------------------------------------------------------
 Center     Atomic      Atomic             Coordinates (Angstroms)
 Number     Number       Type             X           Y           Z
 ---------------------------------------------------------------------
      1          6           0       -3.108611   -0.564964    0.048870
      2          6           0       -3.310402   -1.205780   -1.324673
      3          6           0       -3.574965   -2.709451   -1.242358
      4          1           0       -2.269345   -1.059086    0.557222
      5          1           0       -3.999301   -0.748265    0.665690
      6          1           0       -2.420164   -1.020138   -1.939188
      7          1           0       -4.149163   -0.709947   -1.829892
      8          1           0       -4.474576   -2.910557   -0.651717
      9          1           0       -2.735754   -3.222510   -0.761634
     10          1           0       -3.716274   -3.147178   -2.235478
     11          6           0       -2.843130    0.938005   -0.016932
     12          6           0       -2.641338    1.578821    1.356610
     13          6           0       -2.376776    3.082492    1.274295
     14          1           0       -1.952440    1.121306   -0.633753
     15          1           0       -3.682396    1.432127   -0.525285
     16          1           0       -1.802578    1.082988    1.861830
     17          1           0       -3.531577    1.393179    1.971126
     18          1           0       -3.215987    3.595551    0.793572
     19          1           0       -1.477165    3.283598    0.683655
     20          1           0       -2.235467    3.520219    2.267415
     21          6           0        2.023398   -2.209438    1.407413
     22          6           0        0.914233   -1.432441    1.057339
     23          6           0        1.069471   -0.286940    0.271034
     24          6           0        2.354047    0.053794   -0.149745
     25          6           0        3.478735   -0.699872    0.182449
     26          6           0        3.299858   -1.841323    0.969623
     27          1           0        1.893623   -3.097717    2.018572
     28          1           0       -0.078267   -1.715917    1.395908
     29          1           0        0.228088    0.332651   -0.014624
     30          1           0        4.455628   -0.391923   -0.170063
     31          1           0        4.163062   -2.442855    1.239961
     32          7           0        2.530903    1.264340   -0.982631
     33          8           0        3.673153    1.543110   -1.340665
     34          8           0        1.523924    1.911474   -1.261642
 ---------------------------------------------------------------------

 SCF Done:  E(RHF) =  -669.535244238     A.U. after   15 cycles
 E2 =    -0.2093429002D+01 EUMP2 =    -0.67162867323980D+03

 The electronic state is 1-A.
 Alpha  occ. eigenvalues --  -20.60828 -20.60821 -15.85874 -11.31206 -11.27781
 Alpha  occ. eigenvalues --  -11.27751 -11.27516 -11.26791 -11.26766 -11.22092
 Alpha  occ. eigenvalues --  -11.22027 -11.21965 -11.21793 -11.21539 -11.21039
 Alpha  occ. eigenvalues --   -1.59897  -1.39452  -1.19382  -1.08929  -1.08781
 Alpha  occ. eigenvalues --   -1.04783  -1.03890  -0.96339  -0.95621  -0.87344
 Alpha  occ. eigenvalues --   -0.86184  -0.82462  -0.79962  -0.78736  -0.77519
 Alpha  occ. eigenvalues --   -0.72096  -0.71216  -0.70517  -0.65681  -0.65017
 Alpha  occ. eigenvalues --   -0.64802  -0.62081  -0.61271  -0.59705  -0.57942
 Alpha  occ. eigenvalues --   -0.55663  -0.55241  -0.53112  -0.52984  -0.52917
 Alpha  occ. eigenvalues --   -0.52729  -0.50248  -0.48855  -0.48847  -0.48257
 Alpha  occ. eigenvalues --   -0.47010  -0.46266  -0.46161  -0.44863  -0.44185
 Alpha  occ. eigenvalues --   -0.37361  -0.36378
 Alpha virt. eigenvalues --    0.04998   0.11252   0.16458   0.18511   0.23045
 Alpha virt. eigenvalues --    0.23515   0.24786   0.25969   0.27537   0.28373
 Alpha virt. eigenvalues --    0.30362   0.31098   0.31521   0.31673   0.31753

 Mulliken charges:
               1
     1  C   -0.302487
     2  C   -0.300241
     3  C   -0.475373
     4  H    0.138413
     5  H    0.152901
     6  H    0.155254
     7  H    0.156180
     8  H    0.155829
     9  H    0.150478
    10  H    0.163549
    11  C   -0.309651
    12  C   -0.300940
    13  C   -0.479202
    14  H    0.157250
    15  H    0.156803
    16  H    0.143882
    17  H    0.152909
    18  H    0.156522
    19  H    0.167545
    20  H    0.160369
    21  C   -0.170439
    22  C   -0.228019
    23  C   -0.179635
    24  C    0.157112
    25  C   -0.169668
    26  C   -0.219051
    27  H    0.226178
    28  H    0.229524
    29  H    0.289551
    30  H    0.275693
    31  H    0.223597
    32  N    0.487435
    33  O   -0.459676
    34  O   -0.462593
 Sum of Mulliken charges =  -0.00000

 Dipole moment (field-independent basis, Debye):
    X=             -0.7211    Y=             -4.1356    Z=              2.8194  Tot=              5.0569
 Quadrupole moment (field-independent basis, Debye-Ang):
   XX=            -91.2080   YY=            -96.5265   ZZ=            -96.4203
   XY=            -11.8356   XZ=              7.1531   YZ=              0.6839

 Normal termination of Gaussian 16 at Thu May  6 17:06:41 2021.
