 Gaussian 16, Revision A.03,
 Gaussian 16:  EM64L-G16RevA.03 25-Dec-2016

 -------------
 #p 6-31g* mp2
 -------------

 ------------------------------------------------------
 Input file generated by CHIRIPA (05-May-2021 14:53:18)
 ------------------------------------------------------
 Symbolic Z-matrix:
 Charge =  0 Multiplicity = 1

                         Standard orientation:
 ---------------------------------------------------------------------
 Center     Atomic      Atomic             Coordinates (Angstroms)
 Number     Number       Type             X           Y           Z
 ---------------------------------------------------------------------
      1          6           0        2.940396    0.892351   -0.041419
      2          6           0        3.392364    2.171384    0.664119
      3          6           0        2.275190    3.208797    0.780260
      4          1           0        2.567913    1.145908   -1.043372
      5          1           0        2.092335    0.459458    0.507026
      6          1           0        4.240208    2.600991    0.115288
      7          1           0        3.763993    1.914730    1.664438
      8          1           0        1.430373    2.803420    1.346436
      9          1           0        1.909294    3.493579   -0.211516
     10          1           0        2.620079    4.115085    1.287758
     11          6           0        4.046196   -0.154366   -0.165178
     12          6           0        3.594227   -1.433399   -0.870716
     13          6           0        4.711402   -2.470812   -0.986857
     14          1           0        4.894256    0.278527   -0.713623
     15          1           0        4.418678   -0.407922    0.836775
     16          1           0        3.222599   -1.176745   -1.871035
     17          1           0        2.746383   -1.863005   -0.321885
     18          1           0        5.077297   -2.755594    0.004919
     19          1           0        5.556218   -2.065434   -1.553033
     20          1           0        4.366512   -3.377099   -1.494355
     21          6           0       -4.428169    0.755581   -1.465124
     22          6           0       -3.067949    0.799022   -1.788289
     23          6           0       -2.117733    0.223937   -0.939222
     24          6           0       -2.564881   -0.389191    0.230147
     25          6           0       -3.913033   -0.448758    0.579757
     26          6           0       -4.845634    0.132927   -0.284214
     27          1           0       -5.159478    1.204885   -2.130488
     28          1           0       -2.740853    1.281913   -2.704732
     29          1           0       -1.058460    0.243197   -1.165023
     30          1           0       -4.208675   -0.937182    1.500331
     31          1           0       -5.901345    0.097685   -0.030685
     32          7           0       -1.568254   -1.001502    1.136905
     33          8           0       -1.987877   -1.535715    2.161195
     34          8           0       -0.386347   -0.935626    0.806162
 ---------------------------------------------------------------------

 SCF Done:  E(RHF) =  -669.536397062     A.U. after   15 cycles
 E2 =    -0.2091299522D+01 EUMP2 =    -0.67162769658398D+03

 The electronic state is 1-A.
 Alpha  occ. eigenvalues --  -20.60966 -20.60949 -15.85998 -11.31279 -11.27845
 Alpha  occ. eigenvalues --  -11.27828 -11.27578 -11.26844 -11.26832 -11.20963
 Alpha  occ. eigenvalues --  -11.20728 -11.20615 -11.20579 -11.20445 -11.20381
 Alpha  occ. eigenvalues --   -1.60023  -1.39580  -1.19447  -1.08860  -1.07641
 Alpha  occ. eigenvalues --   -1.04838  -1.02832  -0.95708  -0.95294  -0.86320
 Alpha  occ. eigenvalues --   -0.86240  -0.82545  -0.78886  -0.77653  -0.77382
 Alpha  occ. eigenvalues --   -0.72224  -0.71335  -0.70556  -0.65108  -0.64842
 Alpha  occ. eigenvalues --   -0.64249  -0.62184  -0.60226  -0.58669  -0.56903
 Alpha  occ. eigenvalues --   -0.55347  -0.54581  -0.53173  -0.52929  -0.52023
 Alpha  occ. eigenvalues --   -0.51732  -0.49247  -0.48980  -0.48972  -0.47219
 Alpha  occ. eigenvalues --   -0.45912  -0.45089  -0.45019  -0.44697  -0.43055
 Alpha  occ. eigenvalues --   -0.37427  -0.36438
 Alpha virt. eigenvalues --    0.04906   0.11216   0.16391   0.21179   0.23553
 Alpha virt. eigenvalues --    0.24906   0.26661   0.27369   0.27605   0.28520
 Alpha virt. eigenvalues --    0.29158   0.31104   0.32018   0.32285   0.32491

 Mulliken charges:
               1
     1  C   -0.310579
     2  C   -0.298257
     3  C   -0.475611
     4  H    0.138555
     5  H    0.178297
     6  H    0.148133
     7  H    0.153151
     8  H    0.158257
     9  H    0.148993
    10  H    0.158039
    11  C   -0.296687
    12  C   -0.303332
    13  C   -0.475208
    14  H    0.144380
    15  H    0.150562
    16  H    0.144888
    17  H    0.167954
    18  H    0.155667
    19  H    0.151548
    20  H    0.158206
    21  C   -0.170464
    22  C   -0.218650
    23  C   -0.170833
    24  C    0.157405
    25  C   -0.170755
    26  C   -0.218661
    27  H    0.225978
    28  H    0.223971
    29  H    0.277368
    30  H    0.275677
    31  H    0.223733
    32  N    0.493949
    33  O   -0.458955
    34  O   -0.466716
 Sum of Mulliken charges =  -0.00000

 Dipole moment (field-independent basis, Debye):
    X=             -3.7593    Y=              2.0265    Z=             -3.0451  Tot=              5.2452
 Quadrupole moment (field-independent basis, Debye-Ang):
   XX=            -75.5305   YY=            -97.9184   ZZ=            -94.0507
   XY=             -2.6972   XZ=              5.3296   YZ=              0.0799

 Normal termination of Gaussian 16 at Thu May  6 04:26:09 2021.
