 Gaussian 16, Revision A.03,
 Gaussian 16:  EM64L-G16RevA.03 25-Dec-2016

 -------------
 #p 6-31g* mp2
 -------------

 ------------------------------------------------------
 Input file generated by CHIRIPA (05-May-2021 14:57:24)
 ------------------------------------------------------
 Symbolic Z-matrix:
 Charge =  0 Multiplicity = 1

                         Standard orientation:
 ---------------------------------------------------------------------
 Center     Atomic      Atomic             Coordinates (Angstroms)
 Number     Number       Type             X           Y           Z
 ---------------------------------------------------------------------
      1          6           0        2.045181    2.529780    0.741321
      2          6           0        1.394438    1.396923    1.241011
      3          6           0        1.782895    0.117297    0.833326
      4          6           0        2.830697    0.006773   -0.079464
      5          6           0        3.498658    1.116264   -0.595358
      6          6           0        3.093366    2.386088   -0.173655
      7          1           0        1.736879    3.520017    1.063465
      8          1           0        0.580083    1.505497    1.951702
      9          1           0        1.296415   -0.776666    1.204250
     10          1           0        4.307067    0.976223   -1.302664
     11          1           0        3.600555    3.264104   -0.563389
     12          7           0        3.250850   -1.342722   -0.518481
     13          8           0        4.176820   -1.413238   -1.323618
     14          8           0        2.646241   -2.304386   -0.049133
     15          6           0       -1.884813   -2.404851    0.936576
     16          6           0       -1.622112   -1.202920    1.602063
     17          6           0       -2.102831    0.008511    1.096209
     18          6           0       -2.846201   -0.018850   -0.082750
     19          6           0       -3.124686   -1.199978   -0.768806
     20          6           0       -2.633941   -2.399553   -0.244652
     21          1           0       -1.507486   -3.341315    1.336644
     22          1           0       -1.040607   -1.204017    2.519612
     23          1           0       -1.914236    0.953464    1.591098
     24          1           0       -3.707288   -1.167075   -1.681446
     25          1           0       -2.839507   -3.331472   -0.763607
     26          7           0       -3.360424    1.257362   -0.627961
     27          8           0       -4.012862    1.206400   -1.668329
     28          8           0       -3.101296    2.284456   -0.004608
 ---------------------------------------------------------------------

 SCF Done:  E(RHF) =  -868.337155285     A.U. after   16 cycles
 E2 =    -0.2601863750D+01 EUMP2 =    -0.87093901903441D+03

 The electronic state is 1-A.
 Alpha  occ. eigenvalues --  -20.61186 -20.61158 -20.61057 -20.61029 -15.86232
 Alpha  occ. eigenvalues --  -15.86098 -11.31587 -11.31353 -11.28309 -11.28115
 Alpha  occ. eigenvalues --  -11.27960 -11.27912 -11.27845 -11.27631 -11.27253
 Alpha  occ. eigenvalues --  -11.27044 -11.26989 -11.26864  -1.60247  -1.60119
 Alpha  occ. eigenvalues --   -1.39804  -1.39678  -1.19775  -1.19530  -1.09136
 Alpha  occ. eigenvalues --   -1.08934  -1.05249  -1.04906  -0.95978  -0.95786
 Alpha  occ. eigenvalues --   -0.86613  -0.86312  -0.82879  -0.82610  -0.77981
 Alpha  occ. eigenvalues --   -0.77645  -0.72454  -0.72325  -0.71567  -0.71437
 Alpha  occ. eigenvalues --   -0.70841  -0.70627  -0.65448  -0.65329  -0.65181
 Alpha  occ. eigenvalues --   -0.64860  -0.62780  -0.62108  -0.55620  -0.55395
 Alpha  occ. eigenvalues --   -0.53579  -0.53436  -0.53127  -0.52906  -0.49215
 Alpha  occ. eigenvalues --   -0.49199  -0.49082  -0.49064  -0.45214  -0.45108
 Alpha  occ. eigenvalues --   -0.37688  -0.37467  -0.37103  -0.36202
 Alpha virt. eigenvalues --    0.04554   0.04954   0.10517   0.11306   0.15974
 Alpha virt. eigenvalues --    0.16468   0.18989   0.22416   0.25101   0.26516
 Alpha virt. eigenvalues --    0.28581   0.29563   0.30696   0.31126   0.32298

 Mulliken charges:
               1
     1  C   -0.168188
     2  C   -0.218372
     3  C   -0.168506
     4  C    0.157474
     5  C   -0.169653
     6  C   -0.218811
     7  H    0.230098
     8  H    0.214862
     9  H    0.270717
    10  H    0.276183
    11  H    0.225476
    12  N    0.488671
    13  O   -0.458859
    14  O   -0.465307
    15  C   -0.164883
    16  C   -0.228005
    17  C   -0.169888
    18  C    0.159302
    19  C   -0.168792
    20  C   -0.217217
    21  H    0.233209
    22  H    0.219421
    23  H    0.268478
    24  H    0.277781
    25  H    0.228173
    26  N    0.488645
    27  O   -0.457640
    28  O   -0.464367
 Sum of Mulliken charges =  -0.00000

 Dipole moment (field-independent basis, Debye):
    X=              0.2388    Y=              0.1630    Z=              3.2345  Tot=              3.2474
 Quadrupole moment (field-independent basis, Debye-Ang):
   XX=           -120.7477   YY=           -102.6538   ZZ=           -101.8518
   XY=             30.1312   XZ=             -1.4969   YZ=              0.7224

 Normal termination of Gaussian 16 at Thu May  6 22:50:23 2021.
