 Gaussian 16, Revision A.03,
 Gaussian 16:  EM64L-G16RevA.03 25-Dec-2016

 -------------
 #p 6-31g* mp2
 -------------

 ------------------------------------------------------
 Input file generated by CHIRIPA (05-May-2021 14:53:14)
 ------------------------------------------------------
 Symbolic Z-matrix:
 Charge =  0 Multiplicity = 1

                         Standard orientation:
 ---------------------------------------------------------------------
 Center     Atomic      Atomic             Coordinates (Angstroms)
 Number     Number       Type             X           Y           Z
 ---------------------------------------------------------------------
      1          6           0        3.116488    1.102636   -0.285144
      2          6           0        3.067169    2.182971    0.795795
      3          6           0        2.785457    3.574538    0.228368
      4          1           0        3.889765    1.363753   -1.020538
      5          1           0        2.160643    1.092061   -0.827033
      6          1           0        4.022318    2.190571    1.336394
      7          1           0        2.294050    1.919154    1.528806
      8          1           0        1.823594    3.589970   -0.294301
      9          1           0        3.561682    3.862929   -0.487806
     10          1           0        2.754524    4.331477    1.018271
     11          6           0        3.397241   -0.293982    0.266549
     12          6           0        3.446560   -1.374317   -0.814390
     13          6           0        3.728272   -2.765884   -0.246963
     14          1           0        4.353086   -0.283407    0.808439
     15          1           0        2.623964   -0.555099    1.001943
     16          1           0        4.219679   -1.110500   -1.547400
     17          1           0        2.491410   -1.381917   -1.354989
     18          1           0        2.952047   -3.054275    0.469211
     19          1           0        4.690134   -2.781316    0.275707
     20          1           0        3.759205   -3.522823   -1.036866
     21          6           0       -0.382944   -1.560651    0.387353
     22          6           0       -0.606793   -0.900844   -0.825523
     23          6           0       -1.800713   -0.208019   -1.047098
     24          6           0       -2.753389   -0.195541   -0.029482
     25          6           0       -2.559822   -0.843170    1.189698
     26          6           0       -1.358453   -1.529763    1.389326
     27          1           0        0.547414   -2.096434    0.550954
     28          1           0        0.149021   -0.923140   -1.605455
     29          1           0       -2.000003    0.311388   -1.976570
     30          1           0       -3.332013   -0.803113    1.948338
     31          1           0       -1.187334   -2.041276    2.332256
     32          7           0       -4.021282    0.534623   -0.252437
     33          8           0       -4.844754    0.530563    0.659986
     34          8           0       -4.167576    1.097161   -1.335390
 ---------------------------------------------------------------------

 SCF Done:  E(RHF) =  -669.534823940     A.U. after   15 cycles
 E2 =    -0.2093580606D+01 EUMP2 =    -0.67162840454560D+03

 The electronic state is 1-A.
 Alpha  occ. eigenvalues --  -20.60787 -20.60781 -15.85841 -11.31219 -11.27793
 Alpha  occ. eigenvalues --  -11.27790 -11.27510 -11.26802 -11.26788 -11.22852
 Alpha  occ. eigenvalues --  -11.22375 -11.22327 -11.22158 -11.22099 -11.21450
 Alpha  occ. eigenvalues --   -1.59862  -1.39415  -1.19396  -1.09349  -1.08777
 Alpha  occ. eigenvalues --   -1.04802  -1.04397  -0.96824  -0.95619  -0.87844
 Alpha  occ. eigenvalues --   -0.86202  -0.82455  -0.80496  -0.79094  -0.77497
 Alpha  occ. eigenvalues --   -0.72059  -0.71185  -0.70562  -0.66094  -0.65036
 Alpha  occ. eigenvalues --   -0.64721  -0.62192  -0.61739  -0.60227  -0.58418
 Alpha  occ. eigenvalues --   -0.56155  -0.55273  -0.53520  -0.53256  -0.53095
 Alpha  occ. eigenvalues --   -0.52904  -0.50797  -0.48839  -0.48814  -0.48768
 Alpha  occ. eigenvalues --   -0.47542  -0.46621  -0.46507  -0.44818  -0.44627
 Alpha  occ. eigenvalues --   -0.37354  -0.36397
 Alpha virt. eigenvalues --    0.05012   0.11148   0.16394   0.18487   0.22939
 Alpha virt. eigenvalues --    0.23293   0.24400   0.25624   0.27123   0.28571
 Alpha virt. eigenvalues --    0.29081   0.29969   0.30931   0.31520   0.31957

 Mulliken charges:
               1
     1  C   -0.299256
     2  C   -0.300389
     3  C   -0.476515
     4  H    0.151600
     5  H    0.148043
     6  H    0.152653
     7  H    0.153839
     8  H    0.157269
     9  H    0.155556
    10  H    0.162797
    11  C   -0.300210
    12  C   -0.306664
    13  C   -0.477521
    14  H    0.154054
    15  H    0.145937
    16  H    0.159543
    17  H    0.143741
    18  H    0.147145
    19  H    0.162066
    20  H    0.164835
    21  C   -0.175520
    22  C   -0.224701
    23  C   -0.171565
    24  C    0.158613
    25  C   -0.170416
    26  C   -0.221210
    27  H    0.234448
    28  H    0.228690
    29  H    0.276029
    30  H    0.275769
    31  H    0.223983
    32  N    0.487919
    33  O   -0.460277
    34  O   -0.460287
 Sum of Mulliken charges =  -0.00000

 Dipole moment (field-independent basis, Debye):
    X=              4.6328    Y=             -2.4917    Z=              0.8024  Tot=              5.3212
 Quadrupole moment (field-independent basis, Debye-Ang):
   XX=           -117.6913   YY=            -94.9765   ZZ=            -90.7888
   XY=              7.0476   XZ=             -4.1639   YZ=             -1.1581

 Normal termination of Gaussian 16 at Wed May  5 18:37:30 2021.
