 Gaussian 16, Revision A.03,
 Gaussian 16:  EM64L-G16RevA.03 25-Dec-2016

 -------------
 #p 6-31g* mp2
 -------------

 ------------------------------------------------------
 Input file generated by CHIRIPA (05-May-2021 14:55:23)
 ------------------------------------------------------
 Symbolic Z-matrix:
 Charge =  0 Multiplicity = 1

                         Standard orientation:
 ---------------------------------------------------------------------
 Center     Atomic      Atomic             Coordinates (Angstroms)
 Number     Number       Type             X           Y           Z
 ---------------------------------------------------------------------
      1          6           0        1.017048    0.445696    0.425739
      2          6           0        1.663969    0.883427   -0.734608
      3          6           0        3.007514    0.569321   -0.959936
      4          6           0        3.676776   -0.187729    0.000404
      5          6           0        3.059910   -0.638483    1.166418
      6          6           0        1.715851   -0.312526    1.370882
      7          1           0       -0.026850    0.694304    0.592675
      8          1           0        1.123764    1.472421   -1.470346
      9          1           0        3.532761    0.895288   -1.849475
     10          1           0        3.624699   -1.224047    1.881642
     11          1           0        1.216003   -0.653827    2.272941
     12          7           0        5.099399   -0.526533   -0.227096
     13          8           0        5.666826   -1.194824    0.634327
     14          8           0        5.620085   -0.117380   -1.262527
     15          6           0       -4.238876    0.809199    0.332754
     16          6           0       -3.104789    1.614394   -0.302456
     17          6           0       -2.781730    2.892704    0.471724
     18          1           0       -5.136994    1.438864    0.394810
     19          1           0       -3.964137    0.553927    1.365590
     20          1           0       -3.380997    1.866886   -1.334237
     21          1           0       -2.209321    0.982677   -0.363181
     22          1           0       -2.480940    2.656231    1.497495
     23          1           0       -3.659274    3.545464    0.520923
     24          1           0       -1.968238    3.452861    0.000222
     25          6           0       -4.573438   -0.471560   -0.429777
     26          6           0       -5.707526   -1.276755    0.205433
     27          6           0       -6.030584   -2.555064   -0.568745
     28          1           0       -4.848177   -0.216287   -1.462612
     29          1           0       -3.675320   -1.101224   -0.491832
     30          1           0       -6.602994   -0.645038    0.266158
     31          1           0       -5.431317   -1.529247    1.237215
     32          1           0       -5.153041   -3.207824   -0.617944
     33          1           0       -6.331374   -2.318592   -1.594518
     34          1           0       -6.844077   -3.115221   -0.097244
 ---------------------------------------------------------------------

 SCF Done:  E(RHF) =  -669.535506508     A.U. after   15 cycles
 E2 =    -0.2091102357D+01 EUMP2 =    -0.67162660886486D+03

 The electronic state is 1-A.
 Alpha  occ. eigenvalues --  -20.60741 -20.60736 -15.85795 -11.31158 -11.27729
 Alpha  occ. eigenvalues --  -11.27724 -11.27440 -11.26742 -11.26729 -11.22829
 Alpha  occ. eigenvalues --  -11.22345 -11.22252 -11.22217 -11.22156 -11.21600
 Alpha  occ. eigenvalues --   -1.59817  -1.39370  -1.19329  -1.09339  -1.08723
 Alpha  occ. eigenvalues --   -1.04734  -1.04428  -0.96848  -0.95559  -0.87860
 Alpha  occ. eigenvalues --   -0.86130  -0.82396  -0.80512  -0.79112  -0.77441
 Alpha  occ. eigenvalues --   -0.72013  -0.71140  -0.70464  -0.65980  -0.64981
 Alpha  occ. eigenvalues --   -0.64738  -0.62084  -0.61838  -0.60244  -0.58455
 Alpha  occ. eigenvalues --   -0.56160  -0.55194  -0.53547  -0.53259  -0.53061
 Alpha  occ. eigenvalues --   -0.52824  -0.50792  -0.48816  -0.48768  -0.48760
 Alpha  occ. eigenvalues --   -0.47559  -0.46650  -0.46559  -0.44776  -0.44663
 Alpha  occ. eigenvalues --   -0.37304  -0.36340
 Alpha virt. eigenvalues --    0.05087   0.11310   0.16553   0.18942   0.22551
 Alpha virt. eigenvalues --    0.23723   0.25504   0.26254   0.26932   0.27418
 Alpha virt. eigenvalues --    0.29145   0.29913   0.30854   0.31212   0.32132

 Mulliken charges:
               1
     1  C   -0.177459
     2  C   -0.220966
     3  C   -0.170879
     4  C    0.158303
     5  C   -0.170672
     6  C   -0.219846
     7  H    0.236124
     8  H    0.223508
     9  H    0.275534
    10  H    0.275409
    11  H    0.223429
    12  N    0.488037
    13  O   -0.460524
    14  O   -0.460498
    15  C   -0.298165
    16  C   -0.305706
    17  C   -0.477600
    18  H    0.153805
    19  H    0.148387
    20  H    0.157131
    21  H    0.142718
    22  H    0.153939
    23  H    0.161851
    24  H    0.159507
    25  C   -0.298892
    26  C   -0.300210
    27  C   -0.476218
    28  H    0.151568
    29  H    0.148612
    30  H    0.153491
    31  H    0.151931
    32  H    0.155739
    33  H    0.156341
    34  H    0.162272
 Sum of Mulliken charges =  -0.00000

 Dipole moment (field-independent basis, Debye):
    X=             -5.2668    Y=              1.2186    Z=              0.7825  Tot=              5.4623
 Quadrupole moment (field-independent basis, Debye-Ang):
   XX=           -130.8895   YY=            -94.9946   ZZ=            -91.0424
   XY=              4.4685   XZ=              3.3619   YZ=             -3.4062

 Normal termination of Gaussian 16 at Wed May  5 19:06:03 2021.
