 Gaussian 16, Revision A.03,
 Gaussian 16:  EM64L-G16RevA.03 25-Dec-2016

 -------------
 #p 6-31g* mp2
 -------------

 ------------------------------------------------------
 Input file generated by CHIRIPA (05-May-2021 14:53:13)
 ------------------------------------------------------
 Symbolic Z-matrix:
 Charge =  0 Multiplicity = 1

                         Standard orientation:
 ---------------------------------------------------------------------
 Center     Atomic      Atomic             Coordinates (Angstroms)
 Number     Number       Type             X           Y           Z
 ---------------------------------------------------------------------
      1          6           0        3.121139    0.919029   -0.508908
      2          6           0        3.310557    2.284280    0.153056
      3          6           0        2.532762    3.396034   -0.551809
      4          1           0        3.437586    0.980788   -1.559142
      5          1           0        2.051074    0.669523   -0.519037
      6          1           0        4.380081    2.530514    0.163177
      7          1           0        2.993801    2.219214    1.201888
      8          1           0        1.460119    3.176872   -0.549507
      9          1           0        2.854275    3.489942   -1.594120
     10          1           0        2.682444    4.363339   -0.062141
     11          6           0        3.892478   -0.202632    0.184373
     12          6           0        3.703061   -1.567883   -0.477591
     13          6           0        4.480855   -2.679636    0.227274
     14          1           0        4.962543    0.046875    0.194502
     15          1           0        3.576031   -0.264391    1.234608
     16          1           0        4.019816   -1.502816   -1.526423
     17          1           0        2.633536   -1.814117   -0.487712
     18          1           0        4.159342   -2.773544    1.269585
     19          1           0        5.553498   -2.460475    0.224972
     20          1           0        4.331173   -3.646942   -0.262394
     21          6           0       -0.373308   -1.028992    0.579445
     22          6           0       -0.824418    0.200488    1.070772
     23          6           0       -2.133562    0.625703    0.826064
     24          6           0       -2.968468   -0.207418    0.083009
     25          6           0       -2.548467   -1.437816   -0.419992
     26          6           0       -1.235252   -1.842784   -0.163059
     27          1           0        0.645248   -1.351445    0.774289
     28          1           0       -0.157229    0.834555    1.647713
     29          1           0       -2.508785    1.572727    1.194538
     30          1           0       -3.236820   -2.048134   -0.991919
     31          1           0       -0.887638   -2.798118   -0.545876
     32          7           0       -4.356555    0.232022   -0.182524
     33          8           0       -5.072466   -0.520323   -0.839855
     34          8           0       -4.702343    1.320478    0.271712
 ---------------------------------------------------------------------

 SCF Done:  E(RHF) =  -669.535283704     A.U. after   15 cycles
 E2 =    -0.2092769764D+01 EUMP2 =    -0.67162805346793D+03

 The electronic state is 1-A.
 Alpha  occ. eigenvalues --  -20.60794 -20.60789 -15.85849 -11.31238 -11.27809
 Alpha  occ. eigenvalues --  -11.27805 -11.27530 -11.26834 -11.26814 -11.22726
 Alpha  occ. eigenvalues --  -11.22418 -11.22409 -11.22226 -11.22034 -11.21706
 Alpha  occ. eigenvalues --   -1.59869  -1.39422  -1.19414  -1.09402  -1.08800
 Alpha  occ. eigenvalues --   -1.04818  -1.04439  -0.96856  -0.95636  -0.87868
 Alpha  occ. eigenvalues --   -0.86213  -0.82468  -0.80511  -0.79187  -0.77507
 Alpha  occ. eigenvalues --   -0.72066  -0.71192  -0.70568  -0.66076  -0.65063
 Alpha  occ. eigenvalues --   -0.64780  -0.62180  -0.61848  -0.60227  -0.58462
 Alpha  occ. eigenvalues --   -0.56157  -0.55320  -0.53532  -0.53274  -0.53132
 Alpha  occ. eigenvalues --   -0.52904  -0.50803  -0.48846  -0.48820  -0.48785
 Alpha  occ. eigenvalues --   -0.47578  -0.46705  -0.46653  -0.44822  -0.44688
 Alpha  occ. eigenvalues --   -0.37357  -0.36416
 Alpha virt. eigenvalues --    0.04987   0.11115   0.16354   0.18495   0.22315
 Alpha virt. eigenvalues --    0.23408   0.25522   0.26229   0.27009   0.27625
 Alpha virt. eigenvalues --    0.29583   0.30157   0.30931   0.31145   0.32959

 Mulliken charges:
               1
     1  C   -0.304831
     2  C   -0.299866
     3  C   -0.476564
     4  H    0.154010
     5  H    0.150268
     6  H    0.155167
     7  H    0.146653
     8  H    0.155057
     9  H    0.158417
    10  H    0.162625
    11  C   -0.300090
    12  C   -0.302671
    13  C   -0.476302
    14  H    0.155025
    15  H    0.144140
    16  H    0.158062
    17  H    0.141941
    18  H    0.153652
    19  H    0.159860
    20  H    0.162203
    21  C   -0.173989
    22  C   -0.220974
    23  C   -0.171016
    24  C    0.158586
    25  C   -0.170573
    26  C   -0.220979
    27  H    0.233971
    28  H    0.224880
    29  H    0.275958
    30  H    0.275938
    31  H    0.223810
    32  N    0.488048
    33  O   -0.460219
    34  O   -0.460199
 Sum of Mulliken charges =  -0.00000

 Dipole moment (field-independent basis, Debye):
    X=              5.0261    Y=             -1.5084    Z=              0.8425  Tot=              5.3147
 Quadrupole moment (field-independent basis, Debye-Ang):
   XX=           -123.0034   YY=            -91.2571   ZZ=            -93.7099
   XY=              5.0858   XZ=             -2.9010   YZ=              2.3717

 Normal termination of Gaussian 16 at Thu May  6 07:22:40 2021.
