 Gaussian 16, Revision A.03,
 Gaussian 16:  EM64L-G16RevA.03 25-Dec-2016

 -------------
 #p 6-31g* mp2
 -------------

 ------------------------------------------------------
 Input file generated by CHIRIPA (05-May-2021 14:51:08)
 ------------------------------------------------------
 Symbolic Z-matrix:
 Charge =  0 Multiplicity = 1

                         Standard orientation:
 ---------------------------------------------------------------------
 Center     Atomic      Atomic             Coordinates (Angstroms)
 Number     Number       Type             X           Y           Z
 ---------------------------------------------------------------------
      1          6           0       -3.576138   -0.437899   -0.572931
      2          6           0       -3.192374   -1.777138    0.057268
      3          6           0       -3.999072   -2.947902   -0.505176
      4          1           0       -4.647797   -0.257690   -0.411636
      5          1           0       -3.429269   -0.496783   -1.660293
      6          1           0       -3.338609   -1.715296    1.143273
      7          1           0       -2.121463   -1.954090   -0.105380
      8          1           0       -3.845195   -3.038110   -1.585354
      9          1           0       -5.069256   -2.797959   -0.329607
     10          1           0       -3.708584   -3.895446   -0.040808
     11          6           0       -2.778325    0.742147   -0.020922
     12          6           0       -3.162089    2.081385   -0.651121
     13          6           0       -2.355391    3.252149   -0.088677
     14          1           0       -2.925194    0.801030    1.066440
     15          1           0       -1.706666    0.561937   -0.182218
     16          1           0       -4.233000    2.258337   -0.488474
     17          1           0       -3.015854    2.019543   -1.737126
     18          1           0       -1.285207    3.102207   -0.264246
     19          1           0       -2.509269    3.342358    0.991501
     20          1           0       -2.645879    4.199693   -0.553045
     21          6           0        3.773486    0.213470   -0.010081
     22          6           0        4.869399   -0.727760   -0.511125
     23          6           0        6.055555    0.018504   -1.122612
     24          1           0        3.425206    0.837495   -0.844491
     25          1           0        4.200691    0.898424    0.735393
     26          1           0        4.439936   -1.411642   -1.254417
     27          1           0        5.214977   -1.349749    0.324533
     28          1           0        6.510626    0.688253   -0.385763
     29          1           0        5.731181    0.626008   -1.973683
     30          1           0        6.827153   -0.673494   -1.474232
     31          6           0        2.580977   -0.517718    0.603934
     32          6           0        1.485065    0.423513    1.104977
     33          6           0        0.298908   -0.322751    1.716466
     34          1           0        2.153772   -1.202671   -0.141539
     35          1           0        2.929259   -1.141742    1.438345
     36          1           0        1.139487    1.045501    0.269321
     37          1           0        1.914528    1.107394    1.848270
     38          1           0        0.623283   -0.930256    2.567536
     39          1           0       -0.156163   -0.992501    0.979615
     40          1           0       -0.472689    0.369246    2.068086
 ---------------------------------------------------------------------

 SCF Done:  E(RHF) =  -470.731655147     A.U. after   11 cycles
 E2 =    -0.1584458291D+01 EUMP2 =    -0.47231611343750D+03

 The electronic state is 1-A.
 Alpha  occ. eigenvalues --  -11.21609 -11.21594 -11.21583 -11.21568 -11.21411
 Alpha  occ. eigenvalues --  -11.21363 -11.21351 -11.21265 -11.21077 -11.21074
 Alpha  occ. eigenvalues --  -11.21060 -11.20912  -1.08462  -1.08379  -1.03528
 Alpha  occ. eigenvalues --   -1.03506  -0.96025  -0.95903  -0.87024  -0.86943
 Alpha  occ. eigenvalues --   -0.79625  -0.79569  -0.78281  -0.78171  -0.65208
 Alpha  occ. eigenvalues --   -0.64926  -0.60944  -0.60907  -0.59442  -0.59250
 Alpha  occ. eigenvalues --   -0.57664  -0.57478  -0.55376  -0.55158  -0.52777
 Alpha  occ. eigenvalues --   -0.52633  -0.52451  -0.52233  -0.49974  -0.49895
 Alpha  occ. eigenvalues --   -0.48037  -0.47762  -0.46786  -0.46522  -0.45863
 Alpha  occ. eigenvalues --   -0.45746  -0.45688  -0.45381  -0.43780  -0.43695
 Alpha virt. eigenvalues --    0.20883   0.23221   0.23388   0.24216   0.25542
 Alpha virt. eigenvalues --    0.26227   0.26843   0.27370   0.28227   0.29700
 Alpha virt. eigenvalues --    0.29835   0.31161   0.31623   0.31893   0.32378

 Mulliken charges:
               1
     1  C   -0.298193
     2  C   -0.302555
     3  C   -0.475357
     4  H    0.149358
     5  H    0.148733
     6  H    0.152843
     7  H    0.154198
     8  H    0.154830
     9  H    0.155206
    10  H    0.160299
    11  C   -0.303238
    12  C   -0.299072
    13  C   -0.476973
    14  H    0.149126
    15  H    0.158736
    16  H    0.151553
    17  H    0.151285
    18  H    0.155815
    19  H    0.154843
    20  H    0.160423
    21  C   -0.298210
    22  C   -0.299635
    23  C   -0.475701
    24  H    0.149312
    25  H    0.149707
    26  H    0.151789
    27  H    0.152018
    28  H    0.155250
    29  H    0.155126
    30  H    0.160266
    31  C   -0.297985
    32  C   -0.302850
    33  C   -0.482053
    34  H    0.148726
    35  H    0.150049
    36  H    0.151787
    37  H    0.152355
    38  H    0.154604
    39  H    0.158976
    40  H    0.164608
 Sum of Mulliken charges =  -0.00000

 Dipole moment (field-independent basis, Debye):
    X=             -0.0110    Y=             -0.0080    Z=              0.0192  Tot=              0.0236
 Quadrupole moment (field-independent basis, Debye-Ang):
   XX=            -85.2972   YY=            -85.9069   ZZ=            -83.7418
   XY=             -0.8873   XZ=              0.1094   YZ=              0.0441

 Normal termination of Gaussian 16 at Thu May  6 05:16:48 2021.
