 Gaussian 16, Revision A.03,
 Gaussian 16:  EM64L-G16RevA.03 25-Dec-2016

 -------------
 #p 6-31g* mp2
 -------------

 ------------------------------------------------------
 Input file generated by CHIRIPA (05-May-2021 14:53:12)
 ------------------------------------------------------
 Symbolic Z-matrix:
 Charge =  0 Multiplicity = 1

                         Standard orientation:
 ---------------------------------------------------------------------
 Center     Atomic      Atomic             Coordinates (Angstroms)
 Number     Number       Type             X           Y           Z
 ---------------------------------------------------------------------
      1          6           0        3.219430    0.794582   -0.291692
      2          6           0        4.208439    1.951691   -0.146969
      3          6           0        3.529432    3.320424   -0.204520
      4          1           0        2.680263    0.898284   -1.243264
      5          1           0        2.465075    0.864451    0.504211
      6          1           0        4.961507    1.878870   -0.942081
      7          1           0        4.745450    1.845116    0.804281
      8          1           0        2.791130    3.418244    0.597941
      9          1           0        3.008414    3.452189   -1.158344
     10          1           0        4.254810    4.133176   -0.099069
     11          6           0        3.883170   -0.580224   -0.236148
     12          6           0        2.894161   -1.737333   -0.380870
     13          6           0        3.573169   -3.106066   -0.323320
     14          1           0        4.637525   -0.650093   -1.032051
     15          1           0        4.422337   -0.683926    0.715425
     16          1           0        2.357150   -1.630758   -1.332120
     17          1           0        2.141094   -1.664512    0.414242
     18          1           0        4.094186   -3.237831    0.630504
     19          1           0        4.311470   -3.203886   -1.125780
     20          1           0        2.847790   -3.918818   -0.428771
     21          6           0       -0.673150   -0.913288    1.329703
     22          6           0       -1.428235   -1.778508    0.531104
     23          6           0       -2.594241   -1.329719   -0.096244
     24          6           0       -2.977599   -0.003535    0.097570
     25          6           0       -2.246627    0.882731    0.887191
     26          6           0       -1.084032    0.412234    1.504889
     27          1           0        0.231306   -1.270350    1.813295
     28          1           0       -1.111545   -2.808438    0.393269
     29          1           0       -3.197630   -1.978167   -0.719827
     30          1           0       -2.587671    1.904023    1.005807
     31          1           0       -0.499596    1.086416    2.124533
     32          7           0       -4.210193    0.483069   -0.561467
     33          8           0       -4.526528    1.655991   -0.374860
     34          8           0       -4.836624   -0.317667   -1.252151
 ---------------------------------------------------------------------

 SCF Done:  E(RHF) =  -669.535185909     A.U. after   15 cycles
 E2 =    -0.2092039908D+01 EUMP2 =    -0.67162722581743D+03

 The electronic state is 1-A.
 Alpha  occ. eigenvalues --  -20.60756 -20.60751 -15.85810 -11.31179 -11.27752
 Alpha  occ. eigenvalues --  -11.27747 -11.27488 -11.26772 -11.26755 -11.22485
 Alpha  occ. eigenvalues --  -11.22182 -11.22133 -11.22052 -11.21884 -11.21587
 Alpha  occ. eigenvalues --   -1.59832  -1.39385  -1.19354  -1.09159  -1.08747
 Alpha  occ. eigenvalues --   -1.04757  -1.04240  -0.96671  -0.95586  -0.87685
 Alpha  occ. eigenvalues --   -0.86155  -0.82421  -0.80312  -0.78961  -0.77458
 Alpha  occ. eigenvalues --   -0.72028  -0.71155  -0.70494  -0.65799  -0.65008
 Alpha  occ. eigenvalues --   -0.64755  -0.62107  -0.61646  -0.60053  -0.58284
 Alpha  occ. eigenvalues --   -0.55960  -0.55291  -0.53372  -0.53094  -0.53071
 Alpha  occ. eigenvalues --   -0.52850  -0.50611  -0.48793  -0.48783  -0.48607
 Alpha  occ. eigenvalues --   -0.47347  -0.46494  -0.46418  -0.44790  -0.44490
 Alpha  occ. eigenvalues --   -0.37292  -0.36356
 Alpha virt. eigenvalues --    0.05044   0.11216   0.16432   0.19698   0.22777
 Alpha virt. eigenvalues --    0.23366   0.25441   0.26507   0.26785   0.27474
 Alpha virt. eigenvalues --    0.29301   0.30153   0.31080   0.31142   0.32218

 Mulliken charges:
               1
     1  C   -0.297157
     2  C   -0.300488
     3  C   -0.475211
     4  H    0.153881
     5  H    0.141843
     6  H    0.154331
     7  H    0.151498
     8  H    0.151585
     9  H    0.157958
    10  H    0.162501
    11  C   -0.299050
    12  C   -0.301495
    13  C   -0.475837
    14  H    0.153100
    15  H    0.149062
    16  H    0.156665
    17  H    0.141752
    18  H    0.155432
    19  H    0.159477
    20  H    0.157999
    21  C   -0.168062
    22  C   -0.218604
    23  C   -0.171113
    24  C    0.158523
    25  C   -0.170904
    26  C   -0.219196
    27  H    0.226316
    28  H    0.223690
    29  H    0.275572
    30  H    0.275671
    31  H    0.223108
    32  N    0.488070
    33  O   -0.460416
    34  O   -0.460502
 Sum of Mulliken charges =  -0.00000

 Dipole moment (field-independent basis, Debye):
    X=              4.4557    Y=             -1.6797    Z=              2.2083  Tot=              5.2490
 Quadrupole moment (field-independent basis, Debye-Ang):
   XX=           -120.9366   YY=            -91.7920   ZZ=            -93.0905
   XY=              6.3124   XZ=             -6.6721   YZ=              1.9491

 Normal termination of Gaussian 16 at Thu May  6 10:27:45 2021.
