 Gaussian 16, Revision A.03,
 Gaussian 16:  EM64L-G16RevA.03 25-Dec-2016

 -------------
 #p 6-31g* mp2
 -------------

 ------------------------------------------------------
 Input file generated by CHIRIPA (05-May-2021 14:57:23)
 ------------------------------------------------------
 Symbolic Z-matrix:
 Charge =  0 Multiplicity = 1

                         Standard orientation:
 ---------------------------------------------------------------------
 Center     Atomic      Atomic             Coordinates (Angstroms)
 Number     Number       Type             X           Y           Z
 ---------------------------------------------------------------------
      1          6           0       -6.400335    0.594562   -0.099182
      2          6           0       -5.457768    1.308984    0.647604
      3          6           0       -4.135438    0.863541    0.734617
      4          6           0       -3.788633   -0.305561    0.059179
      5          6           0       -4.704732   -1.039403   -0.692836
      6          6           0       -6.021477   -0.575289   -0.765843
      7          1           0       -7.425384    0.947844   -0.161336
      8          1           0       -5.749159    2.217833    1.166380
      9          1           0       -3.385437    1.397170    1.305719
     10          1           0       -4.384379   -1.941929   -1.199036
     11          1           0       -6.751360   -1.132158   -1.346544
     12          7           0       -2.391697   -0.787014    0.143883
     13          8           0       -2.111389   -1.819915   -0.460417
     14          8           0       -1.603539   -0.122358    0.812969
     15          6           0        6.104960   -1.176372    0.171313
     16          6           0        4.858463   -1.720739    0.497546
     17          6           0        3.695971   -0.952839    0.381398
     18          6           0        3.817188    0.361808   -0.066153
     19          6           0        5.044672    0.932658   -0.398874
     20          6           0        6.193930    0.146257   -0.275069
     21          1           0        7.002872   -1.780082    0.264514
     22          1           0        4.786354   -2.747621    0.844473
     23          1           0        2.718238   -1.349136    0.627174
     24          1           0        5.084806    1.959348   -0.741971
     25          1           0        7.160642    0.571654   -0.529137
     26          7           0        2.593515    1.184542   -0.193167
     27          8           0        2.727110    2.340179   -0.589770
     28          8           0        1.523976    0.658187    0.106287
 ---------------------------------------------------------------------

 SCF Done:  E(RHF) =  -868.336041085     A.U. after   16 cycles
 E2 =    -0.2599885777D+01 EUMP2 =    -0.87093592686199D+03

 The electronic state is 1-A.
 Alpha  occ. eigenvalues --  -20.59913 -20.59786 -20.59672 -20.59549 -15.84898
 Alpha  occ. eigenvalues --  -15.84652 -11.30505 -11.30282 -11.27131 -11.27074
 Alpha  occ. eigenvalues --  -11.26937 -11.26913 -11.26816 -11.26721 -11.26199
 Alpha  occ. eigenvalues --  -11.26165 -11.26008 -11.25944  -1.58918  -1.58703
 Alpha  occ. eigenvalues --   -1.38465  -1.38237  -1.18706  -1.18494  -1.08060
 Alpha  occ. eigenvalues --   -1.07852  -1.04145  -1.03930  -0.94856  -0.94628
 Alpha  occ. eigenvalues --   -0.85533  -0.85318  -0.81690  -0.81438  -0.76689
 Alpha  occ. eigenvalues --   -0.76447  -0.71202  -0.70759  -0.70236  -0.70047
 Alpha  occ. eigenvalues --   -0.69820  -0.69601  -0.64356  -0.64164  -0.64124
 Alpha  occ. eigenvalues --   -0.63942  -0.61488  -0.61262  -0.54651  -0.54448
 Alpha  occ. eigenvalues --   -0.52463  -0.52258  -0.52243  -0.52024  -0.47944
 Alpha  occ. eigenvalues --   -0.47879  -0.47608  -0.47606  -0.43804  -0.43587
 Alpha  occ. eigenvalues --   -0.36706  -0.36509  -0.35759  -0.35548
 Alpha virt. eigenvalues --    0.05857   0.06075   0.11891   0.12101   0.17296
 Alpha virt. eigenvalues --    0.17508   0.21980   0.22198   0.27874   0.28098
 Alpha virt. eigenvalues --    0.28903   0.29152   0.31508   0.31722   0.33177

 Mulliken charges:
               1
     1  C   -0.171664
     2  C   -0.218707
     3  C   -0.170492
     4  C    0.159108
     5  C   -0.171576
     6  C   -0.218673
     7  H    0.223282
     8  H    0.222211
     9  H    0.278678
    10  H    0.273720
    11  H    0.220927
    12  N    0.487618
    13  O   -0.467842
    14  O   -0.446044
    15  C   -0.171804
    16  C   -0.219242
    17  C   -0.171947
    18  C    0.157481
    19  C   -0.171940
    20  C   -0.219023
    21  H    0.222466
    22  H    0.222307
    23  H    0.284964
    24  H    0.273223
    25  H    0.220092
    26  N    0.486841
    27  O   -0.469652
    28  O   -0.444312
 Sum of Mulliken charges =  -0.00000

 Dipole moment (field-independent basis, Debye):
    X=             -0.7264    Y=             -1.2049    Z=              0.2824  Tot=              1.4350
 Quadrupole moment (field-independent basis, Debye-Ang):
   XX=            -36.9793   YY=           -103.0550   ZZ=           -104.1495
   XY=            -11.7283   XZ=              2.0788   YZ=              1.8218

 Normal termination of Gaussian 16 at Thu May  6 08:10:53 2021.
