 Gaussian 16, Revision A.03,
 Gaussian 16:  EM64L-G16RevA.03 25-Dec-2016

 -------------
 #p 6-31g* mp2
 -------------

 ------------------------------------------------------
 Input file generated by CHIRIPA (05-May-2021 14:57:22)
 ------------------------------------------------------
 Symbolic Z-matrix:
 Charge =  0 Multiplicity = 1

                         Standard orientation:
 ---------------------------------------------------------------------
 Center     Atomic      Atomic             Coordinates (Angstroms)
 Number     Number       Type             X           Y           Z
 ---------------------------------------------------------------------
      1          6           0       -2.242539    2.093061   -0.019359
      2          6           0       -1.949133    0.950486    0.732276
      3          6           0       -2.787500   -0.167167    0.681870
      4          6           0       -3.915941   -0.107569   -0.134439
      5          6           0       -4.235198    1.016157   -0.895100
      6          6           0       -3.382625    2.122198   -0.829221
      7          1           0       -1.585757    2.956770    0.025807
      8          1           0       -1.064416    0.925030    1.362097
      9          1           0       -2.584116   -1.064637    1.253359
     10          1           0       -5.124392    1.011742   -1.513753
     11          1           0       -3.612979    3.008182   -1.414041
     12          7           0       -4.811002   -1.284632   -0.195992
     13          8           0       -5.799025   -1.206976   -0.922915
     14          8           0       -4.507580   -2.262581    0.483850
     15          6           0        5.716081   -0.880481   -1.269272
     16          6           0        5.399568    0.481107   -1.220105
     17          6           0        4.322619    0.932391   -0.451294
     18          6           0        3.580132   -0.009659    0.259019
     19          6           0        3.870496   -1.372800    0.230318
     20          6           0        4.951883   -1.801466   -0.545180
     21          1           0        6.554406   -1.222264   -1.869100
     22          1           0        5.991307    1.198617   -1.781417
     23          1           0        4.055538    1.980702   -0.395332
     24          1           0        3.262200   -2.064221    0.800696
     25          1           0        5.195380   -2.859499   -0.581488
     26          7           0        2.437664    0.456123    1.076465
     27          8           0        1.799087   -0.393942    1.693105
     28          8           0        2.202410    1.662448    1.085059
 ---------------------------------------------------------------------

 SCF Done:  E(RHF) =  -868.341346241     A.U. after   16 cycles
 E2 =    -0.2598512311D+01 EUMP2 =    -0.87093985855274D+03

 The electronic state is 1-A.
 Alpha  occ. eigenvalues --  -20.61892 -20.61866 -20.60018 -20.60009 -15.86870
 Alpha  occ. eigenvalues --  -15.85057 -11.31883 -11.30208 -11.28420 -11.28388
 Alpha  occ. eigenvalues --  -11.28082 -11.27347 -11.27320 -11.26791 -11.26628
 Alpha  occ. eigenvalues --  -11.26349 -11.25784 -11.25416  -1.60928  -1.59096
 Alpha  occ. eigenvalues --   -1.40488  -1.38655  -1.20020  -1.18331  -1.09483
 Alpha  occ. eigenvalues --   -1.07756  -1.05367  -1.03673  -0.96376  -0.94636
 Alpha  occ. eigenvalues --   -0.86782  -0.85071  -0.83221  -0.81459  -0.78307
 Alpha  occ. eigenvalues --   -0.76544  -0.73099  -0.72212  -0.71281  -0.71122
 Alpha  occ. eigenvalues --   -0.70417  -0.69416  -0.65675  -0.65367  -0.63959
 Alpha  occ. eigenvalues --   -0.63614  -0.62717  -0.60998  -0.55882  -0.54155
 Alpha  occ. eigenvalues --   -0.53714  -0.53453  -0.52058  -0.51730  -0.49871
 Alpha  occ. eigenvalues --   -0.49825  -0.48049  -0.48011  -0.45967  -0.44109
 Alpha  occ. eigenvalues --   -0.37976  -0.36951  -0.36308  -0.35286
 Alpha virt. eigenvalues --    0.04180   0.05936   0.10709   0.12362   0.15751
 Alpha virt. eigenvalues --    0.17503   0.20883   0.22698   0.26822   0.27733
 Alpha virt. eigenvalues --    0.28727   0.29415   0.30493   0.31940   0.32341

 Mulliken charges:
               1
     1  C   -0.173527
     2  C   -0.228477
     3  C   -0.174234
     4  C    0.157773
     5  C   -0.173792
     6  C   -0.219211
     7  H    0.228775
     8  H    0.249519
     9  H    0.276017
    10  H    0.271455
    11  H    0.218919
    12  N    0.488068
    13  O   -0.464023
    14  O   -0.462048
    15  C   -0.169389
    16  C   -0.218568
    17  C   -0.170446
    18  C    0.158563
    19  C   -0.169837
    20  C   -0.218495
    21  H    0.228295
    22  H    0.225215
    23  H    0.274725
    24  H    0.277185
    25  H    0.226492
    26  N    0.489649
    27  O   -0.462894
    28  O   -0.465711
 Sum of Mulliken charges =  -0.00000

 Dipole moment (field-independent basis, Debye):
    X=              7.7986    Y=              2.4502    Z=             -2.5891  Tot=              8.5747
 Quadrupole moment (field-independent basis, Debye-Ang):
   XX=           -100.2475   YY=           -100.6362   ZZ=           -105.1176
   XY=            -23.6415   XZ=             -9.5873   YZ=             -4.1688

 Normal termination of Gaussian 16 at Thu May  6 19:32:52 2021.
