 Gaussian 16, Revision A.03,
 Gaussian 16:  EM64L-G16RevA.03 25-Dec-2016

 -------------
 #p 6-31g* mp2
 -------------

 ------------------------------------------------------
 Input file generated by CHIRIPA (05-May-2021 14:57:22)
 ------------------------------------------------------
 Symbolic Z-matrix:
 Charge =  0 Multiplicity = 1

                         Standard orientation:
 ---------------------------------------------------------------------
 Center     Atomic      Atomic             Coordinates (Angstroms)
 Number     Number       Type             X           Y           Z
 ---------------------------------------------------------------------
      1          6           0        2.353010    2.143200   -0.096458
      2          6           0        3.690984    2.115382   -0.503365
      3          6           0        4.409068    0.915842   -0.500869
      4          6           0        3.754998   -0.242287   -0.083472
      5          6           0        2.422988   -0.246898    0.327645
      6          6           0        1.724391    0.964050    0.317019
      7          1           0        1.802754    3.079463   -0.101555
      8          1           0        4.181745    3.029582   -0.824980
      9          1           0        5.445806    0.865781   -0.810848
     10          1           0        1.960828   -1.174482    0.642946
     11          1           0        0.685399    0.982664    0.633556
     12          7           0        4.504887   -1.518225   -0.076526
     13          8           0        3.905809   -2.524807    0.295676
     14          8           0        5.677529   -1.487563   -0.443416
     15          6           0       -1.993758    1.797315    0.838061
     16          6           0       -2.003359    0.542234    1.455475
     17          6           0       -2.906349   -0.443486    1.046191
     18          6           0       -3.789729   -0.138667    0.011777
     19          6           0       -3.804657    1.102308   -0.623083
     20          6           0       -2.892852    2.072861   -0.197422
     21          1           0       -1.288870    2.557155    1.162363
     22          1           0       -1.306258    0.325441    2.259897
     23          1           0       -2.935393   -1.423506    1.506776
     24          1           0       -4.511655    1.288902   -1.422303
     25          1           0       -2.887662    3.046695   -0.678736
     26          7           0       -4.750350   -1.174177   -0.430182
     27          8           0       -5.518399   -0.880712   -1.343756
     28          8           0       -4.717046   -2.259667    0.145352
 ---------------------------------------------------------------------

 SCF Done:  E(RHF) =  -868.335636094     A.U. after   16 cycles
 E2 =    -0.2601879132D+01 EUMP2 =    -0.87093751522515D+03

 The electronic state is 1-A.
 Alpha  occ. eigenvalues --  -20.61391 -20.61384 -20.61119 -20.61114 -15.86452
 Alpha  occ. eigenvalues --  -15.86175 -11.32078 -11.31655 -11.28677 -11.28652
 Alpha  occ. eigenvalues --  -11.28578 -11.28239 -11.28214 -11.28064 -11.27816
 Alpha  occ. eigenvalues --  -11.27750 -11.27281 -11.27235  -1.60459  -1.60191
 Alpha  occ. eigenvalues --   -1.40005  -1.39742  -1.20300  -1.19840  -1.09688
 Alpha  occ. eigenvalues --   -1.09229  -1.05729  -1.05257  -0.96462  -0.96045
 Alpha  occ. eigenvalues --   -0.87159  -0.86654  -0.83267  -0.82873  -0.78250
 Alpha  occ. eigenvalues --   -0.77888  -0.72669  -0.72395  -0.71784  -0.71516
 Alpha  occ. eigenvalues --   -0.71490  -0.70987  -0.66016  -0.65820  -0.65500
 Alpha  occ. eigenvalues --   -0.65185  -0.63070  -0.62578  -0.56309  -0.55830
 Alpha  occ. eigenvalues --   -0.54179  -0.53821  -0.53581  -0.53203  -0.49447
 Alpha  occ. eigenvalues --   -0.49403  -0.49160  -0.49140  -0.45352  -0.45122
 Alpha  occ. eigenvalues --   -0.38321  -0.37846  -0.37311  -0.36850
 Alpha virt. eigenvalues --    0.04245   0.04644   0.10125   0.10764   0.15593
 Alpha virt. eigenvalues --    0.16088   0.19026   0.22055   0.25351   0.25831
 Alpha virt. eigenvalues --    0.27858   0.29231   0.30180   0.30997   0.32289

 Mulliken charges:
               1
     1  C   -0.174650
     2  C   -0.217637
     3  C   -0.170795
     4  C    0.159843
     5  C   -0.174325
     6  C   -0.223598
     7  H    0.219500
     8  H    0.224332
     9  H    0.277212
    10  H    0.275798
    11  H    0.227692
    12  N    0.487959
    13  O   -0.459131
    14  O   -0.459043
    15  C   -0.177211
    16  C   -0.225407
    17  C   -0.169563
    18  C    0.160024
    19  C   -0.169057
    20  C   -0.217454
    21  H    0.222089
    22  H    0.225242
    23  H    0.280211
    24  H    0.279242
    25  H    0.225373
    26  N    0.487923
    27  O   -0.457686
    28  O   -0.456885
 Sum of Mulliken charges =  -0.00000

 Dipole moment (field-independent basis, Debye):
    X=              0.4836    Y=              7.9754    Z=              1.4194  Tot=              8.1152
 Quadrupole moment (field-independent basis, Debye-Ang):
   XX=           -145.3707   YY=           -105.7975   ZZ=           -103.0520
   XY=              4.1688   XZ=             -5.8779   YZ=             -4.2113

 Normal termination of Gaussian 16 at Thu May  6 09:43:06 2021.
