 Gaussian 16, Revision A.03,
 Gaussian 16:  EM64L-G16RevA.03 25-Dec-2016

 -------------
 #p 6-31g* mp2
 -------------

 ------------------------------------------------------
 Input file generated by CHIRIPA (05-May-2021 14:51:08)
 ------------------------------------------------------
 Symbolic Z-matrix:
 Charge =  0 Multiplicity = 1

                         Standard orientation:
 ---------------------------------------------------------------------
 Center     Atomic      Atomic             Coordinates (Angstroms)
 Number     Number       Type             X           Y           Z
 ---------------------------------------------------------------------
      1          6           0        3.192752    0.873218   -0.060465
      2          6           0        4.451507    1.679016    0.262351
      3          6           0        4.172794    3.174483    0.416264
      4          1           0        2.743905    1.261073   -0.985154
      5          1           0        2.451833    1.029001    0.735880
      6          1           0        5.190352    1.520665   -0.533670
      7          1           0        4.897516    1.289072    1.186275
      8          1           0        3.454614    3.351432    1.223424
      9          1           0        3.749114    3.584341   -0.506294
     10          1           0        5.086294    3.731471    0.646794
     11          6           0        3.455224   -0.623523   -0.217315
     12          6           0        2.196469   -1.429321   -0.540131
     13          6           0        2.475182   -2.924789   -0.694044
     14          1           0        4.196143   -0.779306   -1.013660
     15          1           0        3.904071   -1.011379    0.707374
     16          1           0        1.750460   -1.039378   -1.464055
     17          1           0        1.457624   -1.270970    0.255890
     18          1           0        2.898862   -3.334646    0.228513
     19          1           0        3.193362   -3.101738   -1.501204
     20          1           0        1.561682   -3.481776   -0.924575
     21          6           0       -4.030625    0.162059    0.096674
     22          6           0       -4.068031    1.613851   -0.381744
     23          6           0       -5.488608    2.173736   -0.461011
     24          1           0       -4.632806   -0.456790   -0.582550
     25          1           0       -4.507244    0.096458    1.084564
     26          1           0       -3.590247    1.676925   -1.367827
     27          1           0       -3.465533    2.229284    0.298590
     28          1           0       -5.971368    2.139918    0.521028
     29          1           0       -6.096791    1.584421   -1.154857
     30          1           0       -5.492030    3.212692   -0.805132
     31          6           0       -2.617351   -0.411753    0.181106
     32          6           0       -2.579945   -1.863546    0.659524
     33          6           0       -1.159368   -2.423431    0.738791
     34          1           0       -2.140731   -0.346153   -0.806784
     35          1           0       -2.015170    0.207096    0.860331
     36          1           0       -3.182443   -2.478978   -0.020810
     37          1           0       -3.057729   -1.926620    1.645607
     38          1           0       -0.551185   -1.834115    1.432638
     39          1           0       -0.676607   -2.389611   -0.243248
     40          1           0       -1.155945   -3.462387    1.082912
 ---------------------------------------------------------------------

 SCF Done:  E(RHF) =  -470.731902582     A.U. after   11 cycles
 E2 =    -0.1583655998D+01 EUMP2 =    -0.47231555858063D+03

 The electronic state is 1-A.
 Alpha  occ. eigenvalues --  -11.21602 -11.21600 -11.21563 -11.21409 -11.21408
 Alpha  occ. eigenvalues --  -11.21349 -11.21337 -11.21264 -11.21072 -11.21046
 Alpha  occ. eigenvalues --  -11.21046 -11.20962  -1.08441  -1.08349  -1.03577
 Alpha  occ. eigenvalues --   -1.03419  -0.96043  -0.95863  -0.87019  -0.86924
 Alpha  occ. eigenvalues --   -0.79720  -0.79435  -0.78300  -0.78104  -0.65070
 Alpha  occ. eigenvalues --   -0.64992  -0.60960  -0.60872  -0.59388  -0.59296
 Alpha  occ. eigenvalues --   -0.57801  -0.57345  -0.55267  -0.55205  -0.52738
 Alpha  occ. eigenvalues --   -0.52600  -0.52410  -0.52281  -0.49940  -0.49829
 Alpha  occ. eigenvalues --   -0.48140  -0.47687  -0.46653  -0.46482  -0.45918
 Alpha  occ. eigenvalues --   -0.45732  -0.45658  -0.45377  -0.43802  -0.43692
 Alpha virt. eigenvalues --    0.22041   0.23076   0.23513   0.24819   0.25621
 Alpha virt. eigenvalues --    0.26652   0.27056   0.27384   0.27960   0.29311
 Alpha virt. eigenvalues --    0.30145   0.31455   0.31638   0.31877   0.32365

 Mulliken charges:
               1
     1  C   -0.297900
     2  C   -0.299562
     3  C   -0.475617
     4  H    0.149519
     5  H    0.148781
     6  H    0.151904
     7  H    0.151772
     8  H    0.154941
     9  H    0.155135
    10  H    0.160105
    11  C   -0.297802
    12  C   -0.305525
    13  C   -0.477322
    14  H    0.148750
    15  H    0.149069
    16  H    0.149550
    17  H    0.160818
    18  H    0.154859
    19  H    0.154456
    20  H    0.161770
    21  C   -0.298216
    22  C   -0.299616
    23  C   -0.475716
    24  H    0.149633
    25  H    0.149481
    26  H    0.151963
    27  H    0.151997
    28  H    0.155158
    29  H    0.155155
    30  H    0.160285
    31  C   -0.298273
    32  C   -0.300009
    33  C   -0.479785
    34  H    0.149890
    35  H    0.149248
    36  H    0.151774
    37  H    0.151599
    38  H    0.155173
    39  H    0.162473
    40  H    0.160086
 Sum of Mulliken charges =  -0.00000

 Dipole moment (field-independent basis, Debye):
    X=             -0.0450    Y=             -0.0185    Z=              0.0123  Tot=              0.0502
 Quadrupole moment (field-independent basis, Debye-Ang):
   XX=            -85.9671   YY=            -86.2162   ZZ=            -82.8812
   XY=              0.6321   XZ=             -0.1228   YZ=              0.0603

 Normal termination of Gaussian 16 at Thu May  6 11:33:14 2021.
