 Gaussian 16, Revision A.03,
 Gaussian 16:  EM64L-G16RevA.03 25-Dec-2016

 -------------
 #p 6-31g* mp2
 -------------

 ------------------------------------------------------
 Input file generated by CHIRIPA (05-May-2021 14:57:24)
 ------------------------------------------------------
 Symbolic Z-matrix:
 Charge =  0 Multiplicity = 1

                         Standard orientation:
 ---------------------------------------------------------------------
 Center     Atomic      Atomic             Coordinates (Angstroms)
 Number     Number       Type             X           Y           Z
 ---------------------------------------------------------------------
      1          6           0       -5.513622    1.381053    0.229907
      2          6           0       -5.064614    0.658443    1.340198
      3          6           0       -3.964833   -0.197969    1.232541
      4          6           0       -3.334872   -0.308214   -0.006121
      5          6           0       -3.758458    0.398396   -1.130650
      6          6           0       -4.860263    1.248956   -0.999806
      7          1           0       -6.368745    2.044062    0.322544
      8          1           0       -5.570079    0.759055    2.296455
      9          1           0       -3.596250   -0.769164    2.075928
     10          1           0       -3.234123    0.277278   -2.070768
     11          1           0       -5.206771    1.808911   -1.863767
     12          7           0       -2.169512   -1.211762   -0.132367
     13          8           0       -1.631790   -1.291309   -1.234712
     14          8           0       -1.815890   -1.823307    0.873418
     15          6           0        5.971483    0.687406    0.318809
     16          6           0        5.035796    1.724122    0.239890
     17          6           0        3.678757    1.443231    0.055241
     18          6           0        3.290607    0.108244   -0.046927
     19          6           0        4.198811   -0.946686    0.027759
     20          6           0        5.550747   -0.642346    0.212679
     21          1           0        7.023682    0.914716    0.462355
     22          1           0        5.359674    2.757760    0.321983
     23          1           0        2.933163    2.226389   -0.009334
     24          1           0        3.845702   -1.967203   -0.057556
     25          1           0        6.275191   -1.449510    0.273603
     26          7           0        1.856673   -0.201536   -0.242550
     27          8           0        1.540251   -1.385991   -0.329621
     28          8           0        1.076328    0.745980   -0.305106
 ---------------------------------------------------------------------

 SCF Done:  E(RHF) =  -868.334948841     A.U. after   16 cycles
 E2 =    -0.2601356168D+01 EUMP2 =    -0.87093630500886D+03

 The electronic state is 1-A.
 Alpha  occ. eigenvalues --  -20.59690 -20.59569 -20.59028 -20.58938 -15.84698
 Alpha  occ. eigenvalues --  -15.84072 -11.30454 -11.29956 -11.27093 -11.27041
 Alpha  occ. eigenvalues --  -11.26890 -11.26610 -11.26576 -11.26462 -11.26188
 Alpha  occ. eigenvalues --  -11.26156 -11.25756 -11.25735  -1.58689  -1.58014
 Alpha  occ. eigenvalues --   -1.38240  -1.37580  -1.18663  -1.18181  -1.07985
 Alpha  occ. eigenvalues --   -1.07478  -1.04125  -1.03673  -0.94756  -0.94225
 Alpha  occ. eigenvalues --   -0.85505  -0.85048  -0.81589  -0.81082  -0.76570
 Alpha  occ. eigenvalues --   -0.76024  -0.70898  -0.70324  -0.70025  -0.69776
 Alpha  occ. eigenvalues --   -0.69344  -0.69307  -0.64308  -0.64132  -0.63834
 Alpha  occ. eigenvalues --   -0.63695  -0.61469  -0.61023  -0.54619  -0.54176
 Alpha  occ. eigenvalues --   -0.52433  -0.52224  -0.51964  -0.51785  -0.47921
 Alpha  occ. eigenvalues --   -0.47675  -0.47009  -0.46709  -0.43564  -0.42854
 Alpha  occ. eigenvalues --   -0.36667  -0.36188  -0.35747  -0.35299
 Alpha virt. eigenvalues --    0.05975   0.06553   0.11902   0.12350   0.17398
 Alpha virt. eigenvalues --    0.17943   0.21981   0.22359   0.27862   0.28226
 Alpha virt. eigenvalues --    0.28910   0.29301   0.31497   0.31854   0.33175

 Mulliken charges:
               1
     1  C   -0.172848
     2  C   -0.218720
     3  C   -0.171785
     4  C    0.163436
     5  C   -0.169210
     6  C   -0.218854
     7  H    0.220729
     8  H    0.218870
     9  H    0.273264
    10  H    0.275493
    11  H    0.219269
    12  N    0.492062
    13  O   -0.448614
    14  O   -0.463555
    15  C   -0.172170
    16  C   -0.218539
    17  C   -0.171939
    18  C    0.159718
    19  C   -0.171224
    20  C   -0.218589
    21  H    0.222830
    22  H    0.220360
    23  H    0.273078
    24  H    0.277565
    25  H    0.221690
    26  N    0.487333
    27  O   -0.440219
    28  O   -0.469432
 Sum of Mulliken charges =  -0.00000

 Dipole moment (field-independent basis, Debye):
    X=              1.1142    Y=              3.9458    Z=              0.9900  Tot=              4.2179
 Quadrupole moment (field-independent basis, Debye-Ang):
   XX=            -48.5120   YY=           -102.3743   ZZ=           -101.3040
   XY=             -6.5637   XZ=              0.2785   YZ=             -1.2999

 Normal termination of Gaussian 16 at Thu May  6 13:02:27 2021.
