 Gaussian 16, Revision A.03,
 Gaussian 16:  EM64L-G16RevA.03 25-Dec-2016

 -------------
 #p 6-31g* mp2
 -------------

 ------------------------------------------------------
 Input file generated by CHIRIPA (05-May-2021 14:57:24)
 ------------------------------------------------------
 Symbolic Z-matrix:
 Charge =  0 Multiplicity = 1

                         Standard orientation:
 ---------------------------------------------------------------------
 Center     Atomic      Atomic             Coordinates (Angstroms)
 Number     Number       Type             X           Y           Z
 ---------------------------------------------------------------------
      1          6           0        4.921090    0.924133   -1.346925
      2          6           0        4.554195   -0.415971   -1.508261
      3          6           0        3.599464   -0.996803   -0.668218
      4          6           0        3.029242   -0.204799    0.327206
      5          6           0        3.373836    1.133106    0.513093
      6          6           0        4.330780    1.693039   -0.338541
      7          1           0        5.663608    1.367220   -2.003992
      8          1           0        5.010980   -1.015511   -2.290529
      9          1           0        3.296937   -2.031861   -0.770932
     10          1           0        2.901027    1.705494    1.301916
     11          1           0        4.613778    2.734034   -0.210919
     12          7           0        2.017340   -0.808638    1.222657
     13          8           0        1.529717   -0.089552    2.092012
     14          8           0        1.730993   -1.989577    1.038201
     15          6           0       -3.333004    2.609189    0.098932
     16          6           0       -2.122998    1.944880    0.324991
     17          6           0       -2.035482    0.557802    0.173652
     18          6           0       -3.182773   -0.136789   -0.206554
     19          6           0       -4.402708    0.496454   -0.439041
     20          6           0       -4.466997    1.884135   -0.281691
     21          1           0       -3.391967    3.686939    0.218830
     22          1           0       -1.240709    2.505397    0.620679
     23          1           0       -1.111424    0.018259    0.342254
     24          1           0       -5.265199   -0.089388   -0.732841
     25          1           0       -5.408033    2.397398   -0.457923
     26          7           0       -3.102418   -1.605545   -0.369951
     27          8           0       -4.127552   -2.194608   -0.705722
     28          8           0       -2.015824   -2.139882   -0.159158
 ---------------------------------------------------------------------

 SCF Done:  E(RHF) =  -868.337417144     A.U. after   16 cycles
 E2 =    -0.2599936091D+01 EUMP2 =    -0.87093735323425D+03

 The electronic state is 1-A.
 Alpha  occ. eigenvalues --  -20.61057 -20.60934 -20.59964 -20.59902 -15.86026
 Alpha  occ. eigenvalues --  -15.84986 -11.31412 -11.30456 -11.28033 -11.27920
 Alpha  occ. eigenvalues --  -11.27713 -11.27102 -11.27021 -11.26966 -11.26947
 Alpha  occ. eigenvalues --  -11.26881 -11.26151 -11.26080  -1.60072  -1.59017
 Alpha  occ. eigenvalues --   -1.39618  -1.38561  -1.19584  -1.18661  -1.08975
 Alpha  occ. eigenvalues --   -1.08052  -1.04984  -1.04072  -0.95803  -0.94857
 Alpha  occ. eigenvalues --   -0.86380  -0.85475  -0.82628  -0.81675  -0.77682
 Alpha  occ. eigenvalues --   -0.76694  -0.72219  -0.71445  -0.71175  -0.70682
 Alpha  occ. eigenvalues --   -0.70348  -0.69773  -0.65229  -0.64980  -0.64312
 Alpha  occ. eigenvalues --   -0.64089  -0.62327  -0.61403  -0.55476  -0.54615
 Alpha  occ. eigenvalues --   -0.53319  -0.53070  -0.52413  -0.52170  -0.49014
 Alpha  occ. eigenvalues --   -0.48966  -0.47991  -0.47944  -0.44996  -0.43943
 Alpha  occ. eigenvalues --   -0.37567  -0.36681  -0.36589  -0.35679
 Alpha virt. eigenvalues --    0.04822   0.05833   0.11061   0.11966   0.16307
 Alpha virt. eigenvalues --    0.17283   0.21151   0.22019   0.27007   0.27543
 Alpha virt. eigenvalues --    0.28376   0.28815   0.30902   0.31355   0.32479

 Mulliken charges:
               1
     1  C   -0.170646
     2  C   -0.218449
     3  C   -0.169686
     4  C    0.156812
     5  C   -0.173809
     6  C   -0.218426
     7  H    0.226334
     8  H    0.225535
     9  H    0.280403
    10  H    0.271756
    11  H    0.222646
    12  N    0.484489
    13  O   -0.469158
    14  O   -0.444834
    15  C   -0.171441
    16  C   -0.219222
    17  C   -0.170277
    18  C    0.156984
    19  C   -0.171325
    20  C   -0.219344
    21  H    0.222050
    22  H    0.221617
    23  H    0.284355
    24  H    0.273746
    25  H    0.220497
    26  N    0.486643
    27  O   -0.465505
    28  O   -0.451745
 Sum of Mulliken charges =  -0.00000

 Dipole moment (field-independent basis, Debye):
    X=              3.5905    Y=              6.9885    Z=             -2.5972  Tot=              8.2750
 Quadrupole moment (field-independent basis, Debye-Ang):
   XX=            -78.0006   YY=           -104.0407   ZZ=           -107.1567
   XY=            -11.2828   XZ=             -9.7321   YZ=              2.5464

 Normal termination of Gaussian 16 at Thu May  6 09:50:19 2021.
