 Gaussian 16, Revision A.03,
 Gaussian 16:  EM64L-G16RevA.03 25-Dec-2016

 -------------
 #p 6-31g* mp2
 -------------

 ------------------------------------------------------
 Input file generated by CHIRIPA (05-May-2021 14:53:18)
 ------------------------------------------------------
 Symbolic Z-matrix:
 Charge =  0 Multiplicity = 1

                         Standard orientation:
 ---------------------------------------------------------------------
 Center     Atomic      Atomic             Coordinates (Angstroms)
 Number     Number       Type             X           Y           Z
 ---------------------------------------------------------------------
      1          6           0       -3.236966   -0.612991    0.240251
      2          6           0       -2.307205   -1.578083   -0.496041
      3          6           0       -0.952003   -1.735665    0.194169
      4          1           0       -2.748319    0.367718    0.320125
      5          1           0       -3.387334   -0.971907    1.267852
      6          1           0       -2.159742   -1.218195   -1.522370
      7          1           0       -2.798201   -2.556555   -0.574339
      8          1           0       -1.080277   -2.117055    1.212348
      9          1           0       -0.438191   -0.771091    0.258931
     10          1           0       -0.303181   -2.429884   -0.348923
     11          6           0       -4.595656   -0.444981   -0.437586
     12          6           0       -5.525417    0.520112    0.298706
     13          6           0       -6.880619    0.677693   -0.391503
     14          1           0       -4.445288   -0.086064   -1.465186
     15          1           0       -5.084303   -1.425689   -0.517459
     16          1           0       -5.034421    1.498584    0.377005
     17          1           0       -5.672880    0.160224    1.325035
     18          1           0       -7.394432   -0.286881   -0.456265
     19          1           0       -6.752345    1.059084   -1.409682
     20          1           0       -7.529442    1.371912    0.151589
     21          6           0        1.157377    1.991645    0.583183
     22          6           0        1.939141    2.181736   -0.561033
     23          6           0        2.995661    1.313406   -0.851402
     24          6           0        3.243520    0.260678    0.028155
     25          6           0        2.482611    0.044972    1.176101
     26          6           0        1.431124    0.925748    1.446576
     27          1           0        0.338602    2.671019    0.801022
     28          1           0        1.728847    3.008670   -1.233345
     29          1           0        3.616744    1.437349   -1.730216
     30          1           0        2.716492   -0.788374    1.827447
     31          1           0        0.825659    0.775686    2.335923
     32          7           0        4.359346   -0.665172   -0.268714
     33          8           0        4.557236   -1.585013    0.522089
     34          8           0        5.014912   -0.453483   -1.286583
 ---------------------------------------------------------------------

 SCF Done:  E(RHF) =  -669.534808820     A.U. after   15 cycles
 E2 =    -0.2092450066D+01 EUMP2 =    -0.67162725888538D+03

 The electronic state is 1-A.
 Alpha  occ. eigenvalues --  -20.60792 -20.60787 -15.85845 -11.31238 -11.27797
 Alpha  occ. eigenvalues --  -11.27781 -11.27553 -11.26839 -11.26802 -11.22029
 Alpha  occ. eigenvalues --  -11.21900 -11.21840 -11.21764 -11.21431 -11.21199
 Alpha  occ. eigenvalues --   -1.59866  -1.39419  -1.19419  -1.08834  -1.08800
 Alpha  occ. eigenvalues --   -1.04826  -1.03866  -0.96318  -0.95635  -0.87340
 Alpha  occ. eigenvalues --   -0.86215  -0.82465  -0.79943  -0.78654  -0.77503
 Alpha  occ. eigenvalues --   -0.72064  -0.71189  -0.70516  -0.65459  -0.65066
 Alpha  occ. eigenvalues --   -0.64819  -0.62160  -0.61279  -0.59684  -0.57948
 Alpha  occ. eigenvalues --   -0.55678  -0.55319  -0.53374  -0.52973  -0.52901
 Alpha  occ. eigenvalues --   -0.52566  -0.50222  -0.48825  -0.48816  -0.48248
 Alpha  occ. eigenvalues --   -0.46971  -0.46190  -0.46120  -0.44817  -0.44138
 Alpha  occ. eigenvalues --   -0.37384  -0.36336
 Alpha virt. eigenvalues --    0.05012   0.11173   0.16470   0.21081   0.22569
 Alpha virt. eigenvalues --    0.24046   0.26109   0.26756   0.27144   0.28183
 Alpha virt. eigenvalues --    0.28434   0.30805   0.31285   0.31646   0.31761

 Mulliken charges:
               1
     1  C   -0.296904
     2  C   -0.298965
     3  C   -0.485057
     4  H    0.142336
     5  H    0.148815
     6  H    0.152382
     7  H    0.153383
     8  H    0.150217
     9  H    0.162525
    10  H    0.164095
    11  C   -0.298330
    12  C   -0.299344
    13  C   -0.475825
    14  H    0.149855
    15  H    0.151726
    16  H    0.148896
    17  H    0.152089
    18  H    0.156558
    19  H    0.155446
    20  H    0.160583
    21  C   -0.171867
    22  C   -0.217900
    23  C   -0.171179
    24  C    0.159092
    25  C   -0.167283
    26  C   -0.220708
    27  H    0.226071
    28  H    0.223679
    29  H    0.275798
    30  H    0.276448
    31  H    0.225676
    32  N    0.488019
    33  O   -0.459982
    34  O   -0.460346
 Sum of Mulliken charges =  -0.00000

 Dipole moment (field-independent basis, Debye):
    X=             -3.8849    Y=              3.2570    Z=              1.0287  Tot=              5.1728
 Quadrupole moment (field-independent basis, Debye-Ang):
   XX=           -121.5479   YY=            -91.6840   ZZ=            -91.3247
   XY=             10.7984   XZ=              1.8360   YZ=             -2.4238

 Normal termination of Gaussian 16 at Thu May  6 12:21:00 2021.
