 Gaussian 16, Revision A.03,
 Gaussian 16:  EM64L-G16RevA.03 25-Dec-2016

 -------------
 #p 6-31g* mp2
 -------------

 ------------------------------------------------------
 Input file generated by CHIRIPA (05-May-2021 14:57:21)
 ------------------------------------------------------
 Symbolic Z-matrix:
 Charge =  0 Multiplicity = 1

                         Standard orientation:
 ---------------------------------------------------------------------
 Center     Atomic      Atomic             Coordinates (Angstroms)
 Number     Number       Type             X           Y           Z
 ---------------------------------------------------------------------
      1          6           0        4.767202    1.322319    0.897823
      2          6           0        5.121880    0.528181   -0.197653
      3          6           0        4.196459   -0.352699   -0.765276
      4          6           0        2.919433   -0.414207   -0.209658
      5          6           0        2.535907    0.363992    0.881490
      6          6           0        3.477621    1.237839    1.432955
      7          1           0        5.492420    2.003876    1.332491
      8          1           0        6.122662    0.591693   -0.615320
      9          1           0        4.444434   -0.978983   -1.613624
     10          1           0        1.530661    0.278596    1.275958
     11          1           0        3.199385    1.853374    2.283688
     12          7           0        1.931107   -1.343032   -0.802023
     13          8           0        0.812476   -1.378576   -0.294048
     14          8           0        2.293802   -2.017914   -1.763076
     15          6           0       -3.392178   -2.042193    1.094188
     16          6           0       -2.267430   -1.282516    1.432354
     17          6           0       -2.085451   -0.005086    0.894206
     18          6           0       -3.052365    0.483802    0.017078
     19          6           0       -4.183599   -0.248770   -0.339207
     20          6           0       -4.344991   -1.523809    0.211043
     21          1           0       -3.525547   -3.033603    1.516935
     22          1           0       -1.525834   -1.682548    2.117959
     23          1           0       -1.224079    0.604483    1.138919
     24          1           0       -4.905704    0.176889   -1.025353
     25          1           0       -5.219467   -2.111536   -0.053372
     26          7           0       -2.870608    1.834894   -0.559041
     27          8           0       -3.736945    2.242904   -1.329513
     28          8           0       -1.865253    2.460288   -0.229224
 ---------------------------------------------------------------------

 SCF Done:  E(RHF) =  -868.338167893     A.U. after   16 cycles
 E2 =    -0.2600397843D+01 EUMP2 =    -0.87093856573587D+03

 The electronic state is 1-A.
 Alpha  occ. eigenvalues --  -20.61110 -20.61067 -20.60215 -20.60197 -15.86127
 Alpha  occ. eigenvalues --  -15.85254 -11.31377 -11.30372 -11.28000 -11.27897
 Alpha  occ. eigenvalues --  -11.27615 -11.26961 -11.26937 -11.26911 -11.26890
 Alpha  occ. eigenvalues --  -11.26629 -11.25929 -11.25857  -1.60154  -1.59281
 Alpha  occ. eigenvalues --   -1.39720  -1.38846  -1.19526  -1.18522  -1.08938
 Alpha  occ. eigenvalues --   -1.07969  -1.04919  -1.03900  -0.95804  -0.94852
 Alpha  occ. eigenvalues --   -0.86326  -0.85329  -0.82656  -0.81698  -0.77738
 Alpha  occ. eigenvalues --   -0.76767  -0.72371  -0.71494  -0.71455  -0.70652
 Alpha  occ. eigenvalues --   -0.70586  -0.69683  -0.65190  -0.64930  -0.64196
 Alpha  occ. eigenvalues --   -0.63941  -0.62304  -0.61277  -0.55416  -0.54450
 Alpha  occ. eigenvalues --   -0.53234  -0.53023  -0.52196  -0.52031  -0.49129
 Alpha  occ. eigenvalues --   -0.49089  -0.48252  -0.48217  -0.45149  -0.44306
 Alpha  occ. eigenvalues --   -0.37480  -0.36503  -0.36482  -0.35405
 Alpha virt. eigenvalues --    0.04799   0.05780   0.11139   0.12200   0.16364
 Alpha virt. eigenvalues --    0.17299   0.19848   0.22286   0.25179   0.27599
 Alpha virt. eigenvalues --    0.28601   0.29476   0.31282   0.31531   0.32187

 Mulliken charges:
               1
     1  C   -0.169918
     2  C   -0.218150
     3  C   -0.169916
     4  C    0.158458
     5  C   -0.167269
     6  C   -0.218131
     7  H    0.227066
     8  H    0.224505
     9  H    0.276121
    10  H    0.268869
    11  H    0.225169
    12  N    0.492223
    13  O   -0.470443
    14  O   -0.457409
    15  C   -0.170380
    16  C   -0.206411
    17  C   -0.156322
    18  C    0.156821
    19  C   -0.171197
    20  C   -0.218438
    21  H    0.223535
    22  H    0.220918
    23  H    0.266460
    24  H    0.272738
    25  H    0.220593
    26  N    0.488632
    27  O   -0.461937
    28  O   -0.466186
 Sum of Mulliken charges =  -0.00000

 Dipole moment (field-independent basis, Debye):
    X=              3.1274    Y=             -1.5918    Z=              4.0625  Tot=              5.3683
 Quadrupole moment (field-independent basis, Debye-Ang):
   XX=            -74.9463   YY=           -113.1229   ZZ=           -103.1496
   XY=             22.4917   XZ=             -0.9887   YZ=              0.8805

 Normal termination of Gaussian 16 at Thu May  6 01:44:11 2021.
