 Gaussian 16, Revision A.03,
 Gaussian 16:  EM64L-G16RevA.03 25-Dec-2016

 -------------
 #p 6-31g* mp2
 -------------

 ------------------------------------------------------
 Input file generated by CHIRIPA (05-May-2021 14:51:10)
 ------------------------------------------------------
 Symbolic Z-matrix:
 Charge =  0 Multiplicity = 1

                         Standard orientation:
 ---------------------------------------------------------------------
 Center     Atomic      Atomic             Coordinates (Angstroms)
 Number     Number       Type             X           Y           Z
 ---------------------------------------------------------------------
      1          6           0       -2.984588   -0.025621    0.268760
      2          6           0       -3.965639   -0.880468   -0.534210
      3          6           0       -4.085662   -2.306296    0.004682
      4          1           0       -1.996929   -0.506665    0.260334
      5          1           0       -3.308825    0.004134    1.318226
      6          1           0       -3.640416   -0.907465   -1.582121
      7          1           0       -4.951032   -0.397236   -0.524032
      8          1           0       -4.432470   -2.297750    1.043071
      9          1           0       -3.114407   -2.810879   -0.021029
     10          1           0       -4.792027   -2.899855   -0.584042
     11          6           0       -2.853746    1.402433   -0.257805
     12          6           0       -1.872695    2.257280    0.545165
     13          6           0       -1.752672    3.683107    0.006273
     14          1           0       -2.529509    1.372678   -1.307271
     15          1           0       -3.841405    1.883477   -0.249379
     16          1           0       -0.887302    1.774047    0.534987
     17          1           0       -2.197918    2.284277    1.593076
     18          1           0       -2.723927    4.187691    0.031984
     19          1           0       -1.405864    3.674562   -1.032116
     20          1           0       -1.046307    4.276667    0.594997
     21          6           0        2.524075   -1.295288    0.237480
     22          6           0        1.066616   -1.294738   -0.224902
     23          6           0        0.289239   -2.515160    0.269112
     24          1           0        3.014280   -2.212263   -0.117204
     25          1           0        2.553148   -1.329923    1.335364
     26          1           0        1.040289   -1.258717   -1.321545
     27          1           0        0.579874   -0.377567    0.130761
     28          1           0        0.285757   -2.552674    1.363270
     29          1           0        0.748787   -3.438830   -0.097287
     30          1           0       -0.750197   -2.494498   -0.072948
     31          6           0        3.314259   -0.081524   -0.248434
     32          6           0        4.771719   -0.082074    0.213947
     33          6           0        5.549095    1.138348   -0.280067
     34          1           0        3.285187   -0.046889   -1.346319
     35          1           0        2.824054    0.835451    0.106249
     36          1           0        5.258460   -0.999246   -0.141715
     37          1           0        4.798046   -0.118095    1.310591
     38          1           0        5.089547    2.062018    0.086333
     39          1           0        5.552578    1.175861   -1.374225
     40          1           0        6.588531    1.117687    0.061994
 ---------------------------------------------------------------------

 SCF Done:  E(RHF) =  -470.732170274     A.U. after   11 cycles
 E2 =    -0.1584655830D+01 EUMP2 =    -0.47231682610365D+03

 The electronic state is 1-A.
 Alpha  occ. eigenvalues --  -11.21686 -11.21633 -11.21611 -11.21580 -11.21460
 Alpha  occ. eigenvalues --  -11.21398 -11.21362 -11.21277 -11.21122 -11.21094
 Alpha  occ. eigenvalues --  -11.21075 -11.21049  -1.08503  -1.08398  -1.03602
 Alpha  occ. eigenvalues --   -1.03516  -0.96043  -0.95965  -0.87058  -0.86984
 Alpha  occ. eigenvalues --   -0.79690  -0.79555  -0.78352  -0.78186  -0.65251
 Alpha  occ. eigenvalues --   -0.64971  -0.61003  -0.60974  -0.59493  -0.59239
 Alpha  occ. eigenvalues --   -0.57652  -0.57578  -0.55367  -0.55219  -0.52784
 Alpha  occ. eigenvalues --   -0.52652  -0.52482  -0.52375  -0.49987  -0.49902
 Alpha  occ. eigenvalues --   -0.48098  -0.47798  -0.46806  -0.46545  -0.45989
 Alpha  occ. eigenvalues --   -0.45801  -0.45725  -0.45355  -0.43800  -0.43761
 Alpha virt. eigenvalues --    0.20530   0.22599   0.23366   0.24390   0.25851
 Alpha virt. eigenvalues --    0.26761   0.27003   0.27338   0.27629   0.29593
 Alpha virt. eigenvalues --    0.30173   0.31354   0.31733   0.31918   0.32322

 Mulliken charges:
               1
     1  C   -0.309400
     2  C   -0.299377
     3  C   -0.481042
     4  H    0.162187
     5  H    0.148954
     6  H    0.151397
     7  H    0.152013
     8  H    0.155500
     9  H    0.159514
    10  H    0.160393
    11  C   -0.297022
    12  C   -0.304699
    13  C   -0.475467
    14  H    0.149451
    15  H    0.149528
    16  H    0.155383
    17  H    0.151885
    18  H    0.155344
    19  H    0.155469
    20  H    0.159928
    21  C   -0.298008
    22  C   -0.307783
    23  C   -0.484181
    24  H    0.150050
    25  H    0.149924
    26  H    0.151957
    27  H    0.158391
    28  H    0.156246
    29  H    0.156308
    30  H    0.166913
    31  C   -0.298435
    32  C   -0.299698
    33  C   -0.475764
    34  H    0.149554
    35  H    0.149512
    36  H    0.152062
    37  H    0.152093
    38  H    0.155326
    39  H    0.155206
    40  H    0.160387
 Sum of Mulliken charges =  -0.00000

 Dipole moment (field-independent basis, Debye):
    X=              0.0337    Y=             -0.0174    Z=              0.0072  Tot=              0.0386
 Quadrupole moment (field-independent basis, Debye-Ang):
   XX=            -84.7195   YY=            -86.2533   ZZ=            -83.8345
   XY=             -1.1444   XZ=             -0.4601   YZ=              1.1198

 Normal termination of Gaussian 16 at Wed May  5 15:11:49 2021.
