 Gaussian 16, Revision A.03,
 Gaussian 16:  EM64L-G16RevA.03 25-Dec-2016

 -------------
 #p 6-31g* mp2
 -------------

 ------------------------------------------------------
 Input file generated by CHIRIPA (05-May-2021 14:51:14)
 ------------------------------------------------------
 Symbolic Z-matrix:
 Charge =  0 Multiplicity = 1

                         Standard orientation:
 ---------------------------------------------------------------------
 Center     Atomic      Atomic             Coordinates (Angstroms)
 Number     Number       Type             X           Y           Z
 ---------------------------------------------------------------------
      1          6           0        3.092266   -0.483505   -0.825629
      2          6           0        2.823620   -1.811850   -0.117594
      3          6           0        3.078082   -3.022630   -1.015957
      4          1           0        2.458434   -0.417549   -1.720532
      5          1           0        4.132980   -0.467646   -1.177847
      6          1           0        1.784122   -1.824632    0.234397
      7          1           0        3.458026   -1.874568    0.775833
      8          1           0        4.118387   -3.037615   -1.356752
      9          1           0        2.434973   -2.987395   -1.901265
     10          1           0        2.879883   -3.961644   -0.489810
     11          6           0        2.842332    0.736210    0.059557
     12          6           0        3.110979    2.064555   -0.648478
     13          6           0        2.856516    3.275334    0.249885
     14          1           0        1.801618    0.720351    0.411775
     15          1           0        3.476164    0.670254    0.954460
     16          1           0        2.476573    2.127273   -1.541905
     17          1           0        4.150476    2.077337   -1.000469
     18          1           0        3.499626    3.240100    1.135193
     19          1           0        1.816211    3.290319    0.590680
     20          1           0        3.054715    4.214348   -0.276262
     21          6           0       -3.391650    0.355770   -0.030384
     22          6           0       -4.601956   -0.310574   -0.685465
     23          6           0       -5.441076    0.666791   -1.509132
     24          1           0       -3.736598    1.177189    0.612444
     25          1           0       -2.765661    0.810977   -0.810332
     26          1           0       -5.224756   -0.765580    0.095371
     27          1           0       -4.254099   -1.130624   -1.326658
     28          1           0       -4.839821    1.112105   -2.308375
     29          1           0       -5.815993    1.479224   -0.878266
     30          1           0       -6.301032    0.169436   -1.968451
     31          6           0       -2.542948   -0.608475    0.796455
     32          6           0       -1.332643    0.057869    1.451537
     33          6           0       -0.493523   -0.919496    2.275205
     34          1           0       -3.168938   -1.063681    1.576404
     35          1           0       -2.198000   -1.429894    0.153629
     36          1           0       -1.680499    0.877920    2.092731
     37          1           0       -0.709842    0.512875    0.670701
     38          1           0       -0.118605   -1.731928    1.644339
     39          1           0       -1.094777   -1.364810    3.074448
     40          1           0        0.366433   -0.422141    2.734523
 ---------------------------------------------------------------------

 SCF Done:  E(RHF) =  -470.732814148     A.U. after   11 cycles
 E2 =    -0.1583885943D+01 EUMP2 =    -0.47231670009042D+03

 The electronic state is 1-A.
 Alpha  occ. eigenvalues --  -11.21671 -11.21638 -11.21596 -11.21551 -11.21459
 Alpha  occ. eigenvalues --  -11.21398 -11.21387 -11.21324 -11.21100 -11.21082
 Alpha  occ. eigenvalues --  -11.21064 -11.21064  -1.08494  -1.08409  -1.03582
 Alpha  occ. eigenvalues --   -1.03516  -0.96027  -0.95967  -0.87048  -0.86978
 Alpha  occ. eigenvalues --   -0.79696  -0.79531  -0.78307  -0.78228  -0.65274
 Alpha  occ. eigenvalues --   -0.64926  -0.61047  -0.60866  -0.59395  -0.59337
 Alpha  occ. eigenvalues --   -0.57705  -0.57512  -0.55332  -0.55257  -0.52731
 Alpha  occ. eigenvalues --   -0.52641  -0.52485  -0.52360  -0.50106  -0.49822
 Alpha  occ. eigenvalues --   -0.48005  -0.47879  -0.46870  -0.46385  -0.45977
 Alpha  occ. eigenvalues --   -0.45761  -0.45731  -0.45473  -0.43828  -0.43768
 Alpha virt. eigenvalues --    0.20262   0.23239   0.23743   0.24176   0.26082
 Alpha virt. eigenvalues --    0.26842   0.26994   0.27443   0.27928   0.29554
 Alpha virt. eigenvalues --    0.30078   0.31565   0.31802   0.31969   0.32330

 Mulliken charges:
               1
     1  C   -0.297381
     2  C   -0.306634
     3  C   -0.475385
     4  H    0.148636
     5  H    0.149534
     6  H    0.159304
     7  H    0.151946
     8  H    0.155234
     9  H    0.154548
    10  H    0.160100
    11  C   -0.307320
    12  C   -0.299183
    13  C   -0.475938
    14  H    0.158899
    15  H    0.149488
    16  H    0.151384
    17  H    0.151993
    18  H    0.155134
    19  H    0.155384
    20  H    0.160231
    21  C   -0.298389
    22  C   -0.299702
    23  C   -0.475744
    24  H    0.149871
    25  H    0.149264
    26  H    0.152095
    27  H    0.151971
    28  H    0.155169
    29  H    0.155279
    30  H    0.160407
    31  C   -0.297860
    32  C   -0.305100
    33  C   -0.479844
    34  H    0.150010
    35  H    0.149356
    36  H    0.152638
    37  H    0.154157
    38  H    0.158629
    39  H    0.155629
    40  H    0.162190
 Sum of Mulliken charges =  -0.00000

 Dipole moment (field-independent basis, Debye):
    X=             -0.0256    Y=             -0.0038    Z=              0.0318  Tot=              0.0411
 Quadrupole moment (field-independent basis, Debye-Ang):
   XX=            -84.0516   YY=            -86.0729   ZZ=            -84.6576
   XY=              0.4044   XZ=             -0.4866   YZ=              0.0035

 Normal termination of Gaussian 16 at Wed May  5 18:25:42 2021.
