 Gaussian 16, Revision A.03,
 Gaussian 16:  EM64L-G16RevA.03 25-Dec-2016

 -------------
 #p 6-31g* mp2
 -------------

 ------------------------------------------------------
 Input file generated by CHIRIPA (05-May-2021 14:53:14)
 ------------------------------------------------------
 Symbolic Z-matrix:
 Charge =  0 Multiplicity = 1

                         Standard orientation:
 ---------------------------------------------------------------------
 Center     Atomic      Atomic             Coordinates (Angstroms)
 Number     Number       Type             X           Y           Z
 ---------------------------------------------------------------------
      1          6           0       -3.711357    0.819783   -0.552810
      2          6           0       -2.335851    1.228757   -0.024882
      3          6           0       -1.836008    2.540396   -0.631146
      4          1           0       -3.664148    0.725426   -1.646343
      5          1           0       -4.431662    1.621575   -0.339071
      6          1           0       -1.618650    0.425836   -0.238324
      7          1           0       -2.386292    1.321965    1.067539
      8          1           0       -2.529259    3.357449   -0.406584
      9          1           0       -1.757255    2.456229   -1.719867
     10          1           0       -0.851137    2.813912   -0.239894
     11          6           0       -4.224562   -0.489490    0.043975
     12          6           0       -5.600068   -0.898464   -0.483954
     13          6           0       -6.099911   -2.210103    0.122310
     14          1           0       -3.504257   -1.291282   -0.169765
     15          1           0       -4.271771   -0.395133    1.137507
     16          1           0       -5.549628   -0.991672   -1.576375
     17          1           0       -6.317269   -0.095543   -0.270511
     18          1           0       -6.178664   -2.125936    1.211032
     19          1           0       -5.406661   -3.027157   -0.102251
     20          1           0       -7.084782   -2.483619   -0.268942
     21          6           0        4.855291   -1.420544   -1.072743
     22          6           0        4.569390   -0.096857   -1.422933
     23          6           0        3.598784    0.628323   -0.725375
     24          6           0        2.930270   -0.004160    0.321689
     25          6           0        3.192612   -1.321546    0.694466
     26          6           0        4.167203   -2.027594   -0.017023
     27          1           0        5.610829   -1.976450   -1.620035
     28          1           0        5.102192    0.377145   -2.242378
     29          1           0        3.357589    1.654346   -0.975413
     30          1           0        2.644877   -1.767093    1.515984
     31          1           0        4.387156   -3.055454    0.257147
     32          7           0        1.900624    0.753428    1.067536
     33          8           0        1.325687    0.173445    1.986070
     34          8           0        1.688021    1.912863    0.719474
 ---------------------------------------------------------------------

 SCF Done:  E(RHF) =  -669.536314968     A.U. after   15 cycles
 E2 =    -0.2091184514D+01 EUMP2 =    -0.67162749948232D+03

 The electronic state is 1-A.
 Alpha  occ. eigenvalues --  -20.60963 -20.60958 -15.85990 -11.31302 -11.27863
 Alpha  occ. eigenvalues --  -11.27859 -11.27600 -11.26868 -11.26858 -11.21052
 Alpha  occ. eigenvalues --  -11.20663 -11.20627 -11.20495 -11.20371 -11.19644
 Alpha  occ. eigenvalues --   -1.60016  -1.39573  -1.19468  -1.08875  -1.07603
 Alpha  occ. eigenvalues --   -1.04863  -1.02636  -0.95719  -0.95092  -0.86264
 Alpha  occ. eigenvalues --   -0.86120  -0.82552  -0.78733  -0.77605  -0.77369
 Alpha  occ. eigenvalues --   -0.72213  -0.71329  -0.70577  -0.65124  -0.64866
 Alpha  occ. eigenvalues --   -0.64251  -0.62210  -0.60055  -0.58484  -0.56654
 Alpha  occ. eigenvalues --   -0.55367  -0.54418  -0.53196  -0.52955  -0.51751
 Alpha  occ. eigenvalues --   -0.51525  -0.49089  -0.48967  -0.48943  -0.47036
 Alpha  occ. eigenvalues --   -0.45800  -0.45025  -0.44853  -0.44839  -0.42859
 Alpha  occ. eigenvalues --   -0.37447  -0.36464
 Alpha virt. eigenvalues --    0.04894   0.11192   0.16372   0.21320   0.23612
 Alpha virt. eigenvalues --    0.25227   0.27248   0.27411   0.28103   0.28327
 Alpha virt. eigenvalues --    0.28968   0.30879   0.32189   0.32362   0.32513

 Mulliken charges:
               1
     1  C   -0.297863
     2  C   -0.294948
     3  C   -0.487050
     4  H    0.145315
     5  H    0.147581
     6  H    0.147397
     7  H    0.158748
     8  H    0.149174
     9  H    0.145216
    10  H    0.186088
    11  C   -0.297179
    12  C   -0.298901
    13  C   -0.475097
    14  H    0.147491
    15  H    0.151006
    16  H    0.149924
    17  H    0.151261
    18  H    0.155317
    19  H    0.153629
    20  H    0.158171
    21  C   -0.170561
    22  C   -0.218594
    23  C   -0.170641
    24  C    0.157949
    25  C   -0.170735
    26  C   -0.218618
    27  H    0.226030
    28  H    0.223902
    29  H    0.275972
    30  H    0.275954
    31  H    0.223859
    32  N    0.489507
    33  O   -0.458395
    34  O   -0.460909
 Sum of Mulliken charges =  -0.00000

 Dipole moment (field-independent basis, Debye):
    X=              3.9358    Y=             -2.6380    Z=             -2.4820  Tot=              5.3488
 Quadrupole moment (field-independent basis, Debye-Ang):
   XX=            -74.9888   YY=            -92.4824   ZZ=            -94.9427
   XY=             -8.0195   XZ=             -7.9141   YZ=             -2.5867

 Normal termination of Gaussian 16 at Thu May  6 12:08:24 2021.
