 Gaussian 16, Revision A.03,
 Gaussian 16:  EM64L-G16RevA.03 25-Dec-2016

 -------------
 #p 6-31g* mp2
 -------------

 ------------------------------------------------------
 Input file generated by CHIRIPA (05-May-2021 14:55:21)
 ------------------------------------------------------
 Symbolic Z-matrix:
 Charge =  0 Multiplicity = 1

                         Standard orientation:
 ---------------------------------------------------------------------
 Center     Atomic      Atomic             Coordinates (Angstroms)
 Number     Number       Type             X           Y           Z
 ---------------------------------------------------------------------
      1          6           0       -5.408626   -0.449552   -0.484087
      2          6           0       -4.447399   -1.232502   -1.131816
      3          6           0       -3.099100   -1.142183   -0.773374
      4          6           0       -2.745636   -0.254462    0.241666
      5          6           0       -3.679878    0.538922    0.905763
      6          6           0       -5.022478    0.432107    0.530845
      7          1           0       -6.453803   -0.526121   -0.768933
      8          1           0       -4.744394   -1.918071   -1.920381
      9          1           0       -2.334256   -1.736572   -1.258279
     10          1           0       -3.353348    1.213265    1.688105
     11          1           0       -5.766810    1.041388    1.035614
     12          7           0       -1.321269   -0.150114    0.629854
     13          8           0       -1.035592    0.639623    1.527262
     14          8           0       -0.517498   -0.860038    0.029357
     15          6           0        4.169501   -0.304540   -0.406996
     16          6           0        5.241866   -0.710126    0.604694
     17          6           0        5.942346   -2.017035    0.231718
     18          1           0        3.426950   -1.110197   -0.487493
     19          1           0        4.630676   -0.204222   -1.399290
     20          1           0        4.779068   -0.808301    1.595045
     21          1           0        5.981847    0.096673    0.682934
     22          1           0        6.429954   -1.927800   -0.744437
     23          1           0        5.220341   -2.837916    0.172858
     24          1           0        6.705006   -2.288185    0.968391
     25          6           0        3.460296    0.999990   -0.047885
     26          6           0        2.387931    1.405576   -1.059575
     27          6           0        1.687451    2.712484   -0.686599
     28          1           0        2.999121    0.899672    0.944410
     29          1           0        4.202847    1.805647    0.032612
     30          1           0        1.647951    0.598777   -1.137815
     31          1           0        2.850729    1.503751   -2.049926
     32          1           0        2.409456    3.533365   -0.627738
     33          1           0        1.199843    2.623250    0.289555
     34          1           0        0.924791    2.983634   -1.423273
 ---------------------------------------------------------------------

 SCF Done:  E(RHF) =  -669.536901399     A.U. after   15 cycles
 E2 =    -0.2091673277D+01 EUMP2 =    -0.67162857467575D+03

 The electronic state is 1-A.
 Alpha  occ. eigenvalues --  -20.61111 -20.61105 -15.86116 -11.31375 -11.27929
 Alpha  occ. eigenvalues --  -11.27924 -11.27657 -11.26921 -11.26911 -11.20557
 Alpha  occ. eigenvalues --  -11.20218 -11.20105 -11.19979 -11.19894 -11.19651
 Alpha  occ. eigenvalues --   -1.60149  -1.39708  -1.19535  -1.08952  -1.07096
 Alpha  occ. eigenvalues --   -1.04921  -1.02261  -0.95803  -0.94746  -0.86325
 Alpha  occ. eigenvalues --   -0.85770  -0.82641  -0.78351  -0.77701  -0.76887
 Alpha  occ. eigenvalues --   -0.72336  -0.71453  -0.70644  -0.65192  -0.64926
 Alpha  occ. eigenvalues --   -0.63699  -0.62269  -0.59634  -0.58147  -0.56363
 Alpha  occ. eigenvalues --   -0.55429  -0.54017  -0.53252  -0.53013  -0.51496
 Alpha  occ. eigenvalues --   -0.51177  -0.49130  -0.49092  -0.48661  -0.46667
 Alpha  occ. eigenvalues --   -0.45535  -0.45013  -0.44432  -0.44178  -0.42515
 Alpha  occ. eigenvalues --   -0.37509  -0.36518
 Alpha virt. eigenvalues --    0.04778   0.11138   0.16264   0.21267   0.24201
 Alpha virt. eigenvalues --    0.25555   0.27201   0.27900   0.28308   0.28845
 Alpha virt. eigenvalues --    0.29161   0.30852   0.32351   0.32664   0.32992

 Mulliken charges:
               1
     1  C   -0.170335
     2  C   -0.218595
     3  C   -0.170563
     4  C    0.158418
     5  C   -0.170410
     6  C   -0.218614
     7  H    0.226331
     8  H    0.224137
     9  H    0.275889
    10  H    0.276087
    11  H    0.224156
    12  N    0.489316
    13  O   -0.459109
    14  O   -0.459864
    15  C   -0.299333
    16  C   -0.299022
    17  C   -0.475054
    18  H    0.156965
    19  H    0.143856
    20  H    0.153443
    21  H    0.148591
    22  H    0.152566
    23  H    0.155170
    24  H    0.156888
    25  C   -0.297416
    26  C   -0.306229
    27  C   -0.480569
    28  H    0.158907
    29  H    0.142226
    30  H    0.172659
    31  H    0.141740
    32  H    0.147945
    33  H    0.169198
    34  H    0.150626
 Sum of Mulliken charges =  -0.00000

 Dipole moment (field-independent basis, Debye):
    X=             -5.4421    Y=             -0.5178    Z=             -1.2175  Tot=              5.6006
 Quadrupole moment (field-independent basis, Debye-Ang):
   XX=            -68.6207   YY=            -93.9253   ZZ=            -93.4639
   XY=              2.0361   XZ=              1.7778   YZ=              3.0770

 Normal termination of Gaussian 16 at Thu May  6 10:53:24 2021.
