 Gaussian 16, Revision A.03,
 Gaussian 16:  EM64L-G16RevA.03 25-Dec-2016

 -------------
 #p 6-31g* mp2
 -------------

 ------------------------------------------------------
 Input file generated by CHIRIPA (05-May-2021 14:57:26)
 ------------------------------------------------------
 Symbolic Z-matrix:
 Charge =  0 Multiplicity = 1

                         Standard orientation:
 ---------------------------------------------------------------------
 Center     Atomic      Atomic             Coordinates (Angstroms)
 Number     Number       Type             X           Y           Z
 ---------------------------------------------------------------------
      1          6           0        4.422053    2.440309    0.432342
      2          6           0        5.293286    1.363004    0.624407
      3          6           0        4.898633    0.063101    0.294183
      4          6           0        3.619865   -0.124128   -0.228301
      5          6           0        2.729001    0.928692   -0.431327
      6          6           0        3.144942    2.220102   -0.093984
      7          1           0        4.736897    3.446806    0.691633
      8          1           0        6.285694    1.531044    1.032982
      9          1           0        5.552965   -0.789022    0.432578
     10          1           0        1.745908    0.729832   -0.840474
     11          1           0        2.466219    3.054853   -0.244223
     12          7           0        3.190795   -1.495782   -0.581662
     13          8           0        2.058974   -1.634264   -1.040401
     14          8           0        3.994436   -2.406430   -0.393197
     15          6           0       -1.895316   -1.350517    1.428631
     16          6           0       -2.925123   -0.712158    2.127571
     17          6           0       -3.925122   -0.017446    1.440603
     18          6           0       -3.864141    0.018772    0.048389
     19          6           0       -2.851123   -0.607140   -0.676400
     20          6           0       -1.861662   -1.296066    0.031339
     21          1           0       -1.122586   -1.887940    1.970352
     22          1           0       -2.953797   -0.752778    3.212731
     23          1           0       -4.733837    0.485664    1.956624
     24          1           0       -2.849291   -0.549073   -1.758086
     25          1           0       -1.063103   -1.790890   -0.514095
     26          7           0       -4.917217    0.751169   -0.689869
     27          8           0       -4.840907    0.768239   -1.916458
     28          8           0       -5.798988    1.294286   -0.027945
 ---------------------------------------------------------------------

 SCF Done:  E(RHF) =  -868.339945699     A.U. after   16 cycles
 E2 =    -0.2598430669D+01 EUMP2 =    -0.87093837636828D+03

 The electronic state is 1-A.
 Alpha  occ. eigenvalues --  -20.61661 -20.61598 -20.60529 -20.60522 -15.86673
 Alpha  occ. eigenvalues --  -15.85574 -11.31795 -11.30829 -11.28334 -11.28325
 Alpha  occ. eigenvalues --  -11.28016 -11.27397 -11.27304 -11.27287 -11.27271
 Alpha  occ. eigenvalues --  -11.27017 -11.26399 -11.26153  -1.60697  -1.59607
 Alpha  occ. eigenvalues --   -1.40260  -1.39163  -1.19942  -1.18967  -1.09378
 Alpha  occ. eigenvalues --   -1.08371  -1.05305  -1.04332  -0.96254  -0.95233
 Alpha  occ. eigenvalues --   -0.86714  -0.85720  -0.83097  -0.82055  -0.78175
 Alpha  occ. eigenvalues --   -0.77126  -0.72904  -0.72009  -0.71791  -0.71041
 Alpha  occ. eigenvalues --   -0.70932  -0.70051  -0.65597  -0.65297  -0.64598
 Alpha  occ. eigenvalues --   -0.64270  -0.62654  -0.61653  -0.55806  -0.54805
 Alpha  occ. eigenvalues --   -0.53652  -0.53388  -0.52701  -0.52373  -0.49662
 Alpha  occ. eigenvalues --   -0.49620  -0.48557  -0.48536  -0.45716  -0.44593
 Alpha  occ. eigenvalues --   -0.37907  -0.36946  -0.36897  -0.35951
 Alpha virt. eigenvalues --    0.04326   0.05366   0.10756   0.11691   0.15860
 Alpha virt. eigenvalues --    0.16893   0.20867   0.22023   0.26765   0.27328
 Alpha virt. eigenvalues --    0.28350   0.28786   0.30467   0.31411   0.32203

 Mulliken charges:
               1
     1  C   -0.170100
     2  C   -0.218585
     3  C   -0.170915
     4  C    0.157188
     5  C   -0.171104
     6  C   -0.218616
     7  H    0.228066
     8  H    0.225265
     9  H    0.276203
    10  H    0.274317
    11  H    0.226793
    12  N    0.490867
    13  O   -0.471557
    14  O   -0.456381
    15  C   -0.173718
    16  C   -0.219131
    17  C   -0.173116
    18  C    0.158097
    19  C   -0.175171
    20  C   -0.228149
    21  H    0.228336
    22  H    0.221363
    23  H    0.273470
    24  H    0.275497
    25  H    0.246492
    26  N    0.487928
    27  O   -0.461189
    28  O   -0.462150
 Sum of Mulliken charges =  -0.00000

 Dipole moment (field-independent basis, Debye):
    X=              5.5931    Y=              2.2466    Z=              3.8411  Tot=              7.1473
 Quadrupole moment (field-independent basis, Debye-Ang):
   XX=           -118.4452   YY=           -106.0232   ZZ=           -102.0246
   XY=             25.6286   XZ=             -6.0842   YZ=             -0.7147

 Normal termination of Gaussian 16 at Fri May  7 08:08:24 2021.
