 Gaussian 16, Revision A.03,
 Gaussian 16:  EM64L-G16RevA.03 25-Dec-2016

 -------------
 #p 6-31g* mp2
 -------------

 ------------------------------------------------------
 Input file generated by CHIRIPA (05-May-2021 14:53:15)
 ------------------------------------------------------
 Symbolic Z-matrix:
 Charge =  0 Multiplicity = 1

                         Standard orientation:
 ---------------------------------------------------------------------
 Center     Atomic      Atomic             Coordinates (Angstroms)
 Number     Number       Type             X           Y           Z
 ---------------------------------------------------------------------
      1          6           0       -3.783154   -0.392860    0.018034
      2          6           0       -3.181282   -1.559334   -0.766233
      3          6           0       -4.080017   -2.796291   -0.768711
      4          1           0       -3.971686   -0.712940    1.051934
      5          1           0       -4.760789   -0.136050   -0.412865
      6          1           0       -2.204452   -1.812963   -0.334849
      7          1           0       -2.993983   -1.236381   -1.798336
      8          1           0       -5.051324   -2.565853   -1.218224
      9          1           0       -4.257307   -3.145711    0.253578
     10          1           0       -3.630518   -3.617993   -1.334942
     11          6           0       -2.896356    0.850998    0.029671
     12          6           0       -3.498228    2.017472    0.813938
     13          6           0       -2.599494    3.254429    0.816416
     14          1           0       -1.918722    0.594189    0.460570
     15          1           0       -2.707825    1.171078   -1.004229
     16          1           0       -3.685527    1.694520    1.846041
     17          1           0       -4.475058    2.271101    0.382554
     18          1           0       -2.422204    3.603849   -0.205873
     19          1           0       -1.628187    3.023992    1.265930
     20          1           0       -3.048992    4.076131    1.382647
     21          6           0        2.133441   -2.503958    0.838092
     22          6           0        3.446505   -2.022600    0.812040
     23          6           0        3.721810   -0.735976    0.339438
     24          6           0        2.655177    0.045812   -0.101460
     25          6           0        1.336255   -0.405358   -0.088032
     26          6           0        1.084356   -1.695226    0.388764
     27          1           0        1.928669   -3.504698    1.206849
     28          1           0        4.263218   -2.648454    1.160367
     29          1           0        4.728914   -0.338248    0.308217
     30          1           0        0.542975    0.241888   -0.441867
     31          1           0        0.063625   -2.066427    0.407836
     32          7           0        2.934240    1.409621   -0.604003
     33          8           0        1.976923    2.078652   -0.986858
     34          8           0        4.105003    1.783719   -0.605524
 ---------------------------------------------------------------------

 SCF Done:  E(RHF) =  -669.535446003     A.U. after   15 cycles
 E2 =    -0.2092171192D+01 EUMP2 =    -0.67162761719557D+03

 The electronic state is 1-A.
 Alpha  occ. eigenvalues --  -20.60721 -20.60716 -15.85773 -11.31131 -11.27712
 Alpha  occ. eigenvalues --  -11.27671 -11.27454 -11.26729 -11.26695 -11.22433
 Alpha  occ. eigenvalues --  -11.21955 -11.21868 -11.21774 -11.21741 -11.20947
 Alpha  occ. eigenvalues --   -1.59796  -1.39349  -1.19308  -1.08939  -1.08706
 Alpha  occ. eigenvalues --   -1.04711  -1.03946  -0.96360  -0.95540  -0.87376
 Alpha  occ. eigenvalues --   -0.86110  -0.82377  -0.80051  -0.78753  -0.77407
 Alpha  occ. eigenvalues --   -0.71991  -0.71120  -0.70419  -0.65605  -0.64956
 Alpha  occ. eigenvalues --   -0.64727  -0.62067  -0.61330  -0.59771  -0.57973
 Alpha  occ. eigenvalues --   -0.55634  -0.55221  -0.53061  -0.53043  -0.52920
 Alpha  occ. eigenvalues --   -0.52661  -0.50296  -0.48757  -0.48745  -0.48320
 Alpha  occ. eigenvalues --   -0.47091  -0.46256  -0.46165  -0.44756  -0.44217
 Alpha  occ. eigenvalues --   -0.37295  -0.36311
 Alpha virt. eigenvalues --    0.05097   0.11328   0.16574   0.19095   0.22950
 Alpha virt. eigenvalues --    0.23556   0.24597   0.26391   0.27513   0.27844
 Alpha virt. eigenvalues --    0.29286   0.30708   0.31399   0.31487   0.32207

 Mulliken charges:
               1
     1  C   -0.297860
     2  C   -0.305366
     3  C   -0.475661
     4  H    0.149918
     5  H    0.153681
     6  H    0.142007
     7  H    0.156821
     8  H    0.159510
     9  H    0.155190
    10  H    0.160363
    11  C   -0.302665
    12  C   -0.300175
    13  C   -0.476628
    14  H    0.143517
    15  H    0.154705
    16  H    0.151252
    17  H    0.153128
    18  H    0.160482
    19  H    0.158666
    20  H    0.160783
    21  C   -0.171956
    22  C   -0.218689
    23  C   -0.170765
    24  C    0.159123
    25  C   -0.178992
    26  C   -0.226338
    27  H    0.225965
    28  H    0.223197
    29  H    0.275398
    30  H    0.281541
    31  H    0.232857
    32  N    0.487917
    33  O   -0.460125
    34  O   -0.460801
 Sum of Mulliken charges =  -0.00000

 Dipole moment (field-independent basis, Debye):
    X=             -1.1576    Y=             -4.6822    Z=              1.7206  Tot=              5.1209
 Quadrupole moment (field-independent basis, Debye-Ang):
   XX=            -94.6140   YY=            -96.2446   ZZ=            -95.0364
   XY=            -14.5198   XZ=              6.4114   YZ=              0.0269

 Normal termination of Gaussian 16 at Wed May  5 15:39:54 2021.
