 Gaussian 16, Revision A.03,
 Gaussian 16:  EM64L-G16RevA.03 25-Dec-2016

 -------------
 #p 6-31g* mp2
 -------------

 ------------------------------------------------------
 Input file generated by CHIRIPA (05-May-2021 14:53:16)
 ------------------------------------------------------
 Symbolic Z-matrix:
 Charge =  0 Multiplicity = 1

                         Standard orientation:
 ---------------------------------------------------------------------
 Center     Atomic      Atomic             Coordinates (Angstroms)
 Number     Number       Type             X           Y           Z
 ---------------------------------------------------------------------
      1          6           0        3.167643    0.159532    0.005560
      2          6           0        2.992655   -1.053547    0.919783
      3          6           0        4.188118   -2.005681    0.873925
      4          1           0        3.323743   -0.185908   -1.025579
      5          1           0        4.079355    0.699981    0.295547
      6          1           0        2.080799   -1.590768    0.629047
      7          1           0        2.836763   -0.705174    1.948836
      8          1           0        5.102932   -1.490669    1.184537
      9          1           0        4.342673   -2.381295   -0.142750
     10          1           0        4.041921   -2.865764    1.534792
     11          6           0        1.980742    1.120664    0.040476
     12          6           0        2.155730    2.333744   -0.873746
     13          6           0        0.960267    3.285878   -0.827889
     14          1           0        1.069031    0.580216   -0.249511
     15          1           0        1.824642    1.466105    1.071616
     16          1           0        2.311623    1.985370   -1.902799
     17          1           0        3.067586    2.870965   -0.583011
     18          1           0        0.805713    3.661491    0.188787
     19          1           0        0.045454    2.770865   -1.138501
     20          1           0        1.106465    4.145960   -1.488755
     21          6           0       -3.021031    0.621371    2.003970
     22          6           0       -3.710181    0.620459    0.786763
     23          6           0       -3.160193    0.002156   -0.340074
     24          6           0       -1.913451   -0.608495   -0.213458
     25          6           0       -1.202286   -0.624435    0.985409
     26          6           0       -1.771486    0.000016    2.099240
     27          1           0       -3.455737    1.104072    2.874273
     28          1           0       -4.680760    1.102233    0.709843
     29          1           0       -3.672049   -0.013417   -1.294630
     30          1           0       -0.236509   -1.112898    1.031196
     31          1           0       -1.234013   -0.000835    3.043256
     32          7           0       -1.321033   -1.266319   -1.399505
     33          8           0       -0.221180   -1.797373   -1.261877
     34          8           0       -1.967767   -1.238410   -2.444299
 ---------------------------------------------------------------------

 SCF Done:  E(RHF) =  -669.535038958     A.U. after   15 cycles
 E2 =    -0.2094966946D+01 EUMP2 =    -0.67163000590446D+03

 The electronic state is 1-A.
 Alpha  occ. eigenvalues --  -20.60996 -20.60984 -15.86002 -11.31234 -11.27820
 Alpha  occ. eigenvalues --  -11.27759 -11.27540 -11.26790 -11.26763 -11.21382
 Alpha  occ. eigenvalues --  -11.21350 -11.21096 -11.21010 -11.20941 -11.20787
 Alpha  occ. eigenvalues --   -1.60046  -1.39607  -1.19416  -1.08834  -1.08163
 Alpha  occ. eigenvalues --   -1.04795  -1.03293  -0.95751  -0.95673  -0.86759
 Alpha  occ. eigenvalues --   -0.86214  -0.82523  -0.79388  -0.78163  -0.77474
 Alpha  occ. eigenvalues --   -0.72237  -0.71366  -0.70533  -0.65120  -0.64922
 Alpha  occ. eigenvalues --   -0.64594  -0.62150  -0.60669  -0.59117  -0.57372
 Alpha  occ. eigenvalues --   -0.55321  -0.55006  -0.53164  -0.52918  -0.52427
 Alpha  occ. eigenvalues --   -0.52175  -0.49673  -0.49039  -0.48974  -0.47707
 Alpha  occ. eigenvalues --   -0.46399  -0.45652  -0.45502  -0.44721  -0.43529
 Alpha  occ. eigenvalues --   -0.37377  -0.36337
 Alpha virt. eigenvalues --    0.04928   0.11192   0.16396   0.20939   0.23313
 Alpha virt. eigenvalues --    0.24279   0.25948   0.26686   0.27880   0.28115
 Alpha virt. eigenvalues --    0.29438   0.30624   0.31454   0.31806   0.32217

 Mulliken charges:
               1
     1  C   -0.294338
     2  C   -0.315051
     3  C   -0.474233
     4  H    0.158200
     5  H    0.146587
     6  H    0.168704
     7  H    0.141794
     8  H    0.153271
     9  H    0.161084
    10  H    0.158093
    11  C   -0.305824
    12  C   -0.299815
    13  C   -0.474994
    14  H    0.157369
    15  H    0.140555
    16  H    0.157101
    17  H    0.150271
    18  H    0.151380
    19  H    0.154614
    20  H    0.160136
    21  C   -0.169674
    22  C   -0.219164
    23  C   -0.169956
    24  C    0.155426
    25  C   -0.172177
    26  C   -0.223119
    27  H    0.225917
    28  H    0.223592
    29  H    0.275552
    30  H    0.287267
    31  H    0.224511
    32  N    0.489517
    33  O   -0.464474
    34  O   -0.458122
 Sum of Mulliken charges =  -0.00000

 Dipole moment (field-independent basis, Debye):
    X=             -2.1562    Y=              2.1965    Z=              4.0098  Tot=              5.0550
 Quadrupole moment (field-independent basis, Debye-Ang):
   XX=            -84.1840   YY=            -98.5593   ZZ=            -94.9820
   XY=             -3.8674   XZ=             -5.4647   YZ=             -3.2877

 Normal termination of Gaussian 16 at Wed May  5 21:58:50 2021.
