 Gaussian 16, Revision A.03,
 Gaussian 16:  EM64L-G16RevA.03 25-Dec-2016

 -------------
 #p 6-31g* mp2
 -------------

 ------------------------------------------------------
 Input file generated by CHIRIPA (05-May-2021 14:51:12)
 ------------------------------------------------------
 Symbolic Z-matrix:
 Charge =  0 Multiplicity = 1

                         Standard orientation:
 ---------------------------------------------------------------------
 Center     Atomic      Atomic             Coordinates (Angstroms)
 Number     Number       Type             X           Y           Z
 ---------------------------------------------------------------------
      1          6           0       -2.898936   -1.019971   -0.083787
      2          6           0       -1.493892   -1.392746    0.390422
      3          6           0       -1.155120   -2.862152    0.137688
      4          1           0       -3.632663   -1.659730    0.425425
      5          1           0       -2.985919   -1.237885   -1.157259
      6          1           0       -1.409143   -1.172902    1.462384
      7          1           0       -0.763437   -0.751896   -0.119835
      8          1           0       -1.211906   -3.092261   -0.931156
      9          1           0       -1.861280   -3.515660    0.660054
     10          1           0       -0.146247   -3.106913    0.484282
     11          6           0       -3.252294    0.445786    0.162024
     12          6           0       -4.657338    0.818561   -0.312185
     13          6           0       -4.996110    2.287967   -0.059450
     14          1           0       -3.165311    0.663700    1.235497
     15          1           0       -2.518566    1.085545   -0.347188
     16          1           0       -5.387792    0.177711    0.198073
     17          1           0       -4.742087    0.598717   -1.384147
     18          1           0       -4.289950    2.941475   -0.581816
     19          1           0       -4.939324    2.518076    1.009393
     20          1           0       -6.004983    2.532728   -0.406045
     21          6           0        3.351617   -0.418618   -0.135177
     22          6           0        2.286795   -1.508613   -0.008485
     23          6           0        2.854347   -2.914951   -0.203146
     24          1           0        3.825305   -0.490804   -1.123790
     25          1           0        4.143153   -0.601248    0.604763
     26          1           0        1.496814   -1.323198   -0.747516
     27          1           0        1.815456   -1.433703    0.979868
     28          1           0        3.628138   -3.124705    0.542408
     29          1           0        3.307686   -3.013571   -1.194790
     30          1           0        2.076079   -3.678620   -0.108437
     31          6           0        2.799613    0.992803    0.056940
     32          6           0        3.864434    2.082798   -0.069752
     33          6           0        3.296883    3.489136    0.124908
     34          1           0        2.008077    1.175433   -0.683001
     35          1           0        2.325925    1.064988    1.045552
     36          1           0        4.335774    2.007888   -1.058106
     37          1           0        4.654416    1.897383    0.669279
     38          1           0        2.843544    3.587756    1.116553
     39          1           0        2.523091    3.698890   -0.620647
     40          1           0        4.075150    4.252805    0.030199
 ---------------------------------------------------------------------

 SCF Done:  E(RHF) =  -470.731726433     A.U. after   11 cycles
 E2 =    -0.1584431983D+01 EUMP2 =    -0.47231615841638D+03

 The electronic state is 1-A.
 Alpha  occ. eigenvalues --  -11.21615 -11.21576 -11.21572 -11.21488 -11.21416
 Alpha  occ. eigenvalues --  -11.21359 -11.21355 -11.21295 -11.21081 -11.21063
 Alpha  occ. eigenvalues --  -11.21051 -11.20955  -1.08469  -1.08360  -1.03624
 Alpha  occ. eigenvalues --   -1.03406  -0.96066  -0.95867  -0.87033  -0.86928
 Alpha  occ. eigenvalues --   -0.79695  -0.79484  -0.78357  -0.78094  -0.65134
 Alpha  occ. eigenvalues --   -0.64966  -0.61062  -0.60792  -0.59897  -0.58985
 Alpha  occ. eigenvalues --   -0.57899  -0.57113  -0.55305  -0.55184  -0.52895
 Alpha  occ. eigenvalues --   -0.52573  -0.52402  -0.52144  -0.49933  -0.49873
 Alpha  occ. eigenvalues --   -0.48071  -0.47758  -0.46754  -0.46512  -0.45971
 Alpha  occ. eigenvalues --   -0.45761  -0.45672  -0.45355  -0.43843  -0.43666
 Alpha virt. eigenvalues --    0.21545   0.23221   0.23348   0.24814   0.25589
 Alpha virt. eigenvalues --    0.26442   0.26901   0.27202   0.28512   0.29279
 Alpha virt. eigenvalues --    0.30286   0.30840   0.31487   0.31669   0.32623

 Mulliken charges:
               1
     1  C   -0.298268
     2  C   -0.301979
     3  C   -0.482780
     4  H    0.149290
     5  H    0.148899
     6  H    0.150595
     7  H    0.156349
     8  H    0.153790
     9  H    0.154610
    10  H    0.168988
    11  C   -0.298069
    12  C   -0.299563
    13  C   -0.475650
    14  H    0.149406
    15  H    0.149424
    16  H    0.151903
    17  H    0.151743
    18  H    0.155105
    19  H    0.155153
    20  H    0.160136
    21  C   -0.297914
    22  C   -0.303970
    23  C   -0.479906
    24  H    0.149386
    25  H    0.149413
    26  H    0.156849
    27  H    0.153489
    28  H    0.155104
    29  H    0.155429
    30  H    0.163362
    31  C   -0.298615
    32  C   -0.299622
    33  C   -0.475668
    34  H    0.148695
    35  H    0.150223
    36  H    0.151903
    37  H    0.152085
    38  H    0.155355
    39  H    0.155021
    40  H    0.160300
 Sum of Mulliken charges =  -0.00000

 Dipole moment (field-independent basis, Debye):
    X=              0.0438    Y=              0.0022    Z=              0.0051  Tot=              0.0441
 Quadrupole moment (field-independent basis, Debye-Ang):
   XX=            -85.0378   YY=            -87.0244   ZZ=            -82.9238
   XY=              0.7065   XZ=             -0.0844   YZ=             -0.5379

 Normal termination of Gaussian 16 at Thu May  6 00:43:19 2021.
