 Gaussian 16, Revision A.03,
 Gaussian 16:  EM64L-G16RevA.03 25-Dec-2016

 -------------
 #p 6-31g* mp2
 -------------

 ------------------------------------------------------
 Input file generated by CHIRIPA (05-May-2021 14:57:22)
 ------------------------------------------------------
 Symbolic Z-matrix:
 Charge =  0 Multiplicity = 1

                         Standard orientation:
 ---------------------------------------------------------------------
 Center     Atomic      Atomic             Coordinates (Angstroms)
 Number     Number       Type             X           Y           Z
 ---------------------------------------------------------------------
      1          6           0        3.757878   -2.267891    0.273031
      2          6           0        4.438788   -1.556671   -0.720472
      3          6           0        4.258806   -0.176863   -0.855687
      4          6           0        3.386450    0.462703    0.023655
      5          6           0        2.693700   -0.218127    1.023584
      6          6           0        2.889039   -1.597531    1.140359
      7          1           0        3.903657   -3.339602    0.370908
      8          1           0        5.114160   -2.074662   -1.395456
      9          1           0        4.773289    0.398248   -1.615932
     10          1           0        2.026995    0.325841    1.681627
     11          1           0        2.358909   -2.147305    1.912859
     12          7           0        3.187783    1.923230   -0.109731
     13          8           0        2.413715    2.463377    0.677477
     14          8           0        3.809897    2.500188   -0.998961
     15          6           0       -1.438860   -1.785352   -0.055681
     16          6           0       -1.278282   -0.454804    0.344790
     17          6           0       -2.368520    0.420318    0.354296
     18          6           0       -3.610644   -0.070850   -0.044667
     19          6           0       -3.802589   -1.391077   -0.448956
     20          6           0       -2.698280   -2.248425   -0.450580
     21          1           0       -0.586471   -2.458265   -0.060004
     22          1           0       -0.301371   -0.092420    0.651984
     23          1           0       -2.272405    1.455176    0.659660
     24          1           0       -4.788767   -1.723281   -0.749806
     25          1           0       -2.825942   -3.281244   -0.762081
     26          7           0       -4.772278    0.846195   -0.038776
     27          8           0       -5.856169    0.388959   -0.394801
     28          8           0       -4.576881    2.004847    0.321755
 ---------------------------------------------------------------------

 SCF Done:  E(RHF) =  -868.337261340     A.U. after   16 cycles
 E2 =    -0.2600669140D+01 EUMP2 =    -0.87093793047923D+03

 The electronic state is 1-A.
 Alpha  occ. eigenvalues --  -20.61620 -20.61591 -20.60673 -20.60658 -15.86666
 Alpha  occ. eigenvalues --  -15.85723 -11.32209 -11.31154 -11.28855 -11.28714
 Alpha  occ. eigenvalues --  -11.28510 -11.27886 -11.27761 -11.27753 -11.27691
 Alpha  occ. eigenvalues --  -11.27559 -11.26815 -11.26753  -1.60677  -1.59743
 Alpha  occ. eigenvalues --   -1.40229  -1.39293  -1.20387  -1.19348  -1.09734
 Alpha  occ. eigenvalues --   -1.08747  -1.05818  -1.04755  -0.96546  -0.95562
 Alpha  occ. eigenvalues --   -0.87197  -0.86165  -0.83372  -0.82387  -0.78411
 Alpha  occ. eigenvalues --   -0.77409  -0.72873  -0.72007  -0.71941  -0.71474
 Alpha  occ. eigenvalues --   -0.71067  -0.70483  -0.66028  -0.65809  -0.65003
 Alpha  occ. eigenvalues --   -0.64797  -0.63155  -0.62075  -0.56270  -0.55310
 Alpha  occ. eigenvalues --   -0.54141  -0.53894  -0.53094  -0.52813  -0.49646
 Alpha  occ. eigenvalues --   -0.49625  -0.48709  -0.48688  -0.45594  -0.44683
 Alpha  occ. eigenvalues --   -0.38349  -0.37426  -0.37362  -0.36358
 Alpha virt. eigenvalues --    0.04083   0.05120   0.10082   0.11277   0.15543
 Alpha virt. eigenvalues --    0.16576   0.19634   0.21835   0.25372   0.26564
 Alpha virt. eigenvalues --    0.28073   0.28814   0.29600   0.30751   0.32262

 Mulliken charges:
               1
     1  C   -0.171924
     2  C   -0.217066
     3  C   -0.169625
     4  C    0.161310
     5  C   -0.179950
     6  C   -0.223028
     7  H    0.228125
     8  H    0.227433
     9  H    0.279430
    10  H    0.273794
    11  H    0.224798
    12  N    0.488498
    13  O   -0.461780
    14  O   -0.455114
    15  C   -0.173635
    16  C   -0.222549
    17  C   -0.171557
    18  C    0.158810
    19  C   -0.170957
    20  C   -0.218470
    21  H    0.220589
    22  H    0.225275
    23  H    0.281602
    24  H    0.275510
    25  H    0.221702
    26  N    0.487907
    27  O   -0.461276
    28  O   -0.457851
 Sum of Mulliken charges =  -0.00000

 Dipole moment (field-independent basis, Debye):
    X=              5.0681    Y=             -8.2469    Z=              0.3357  Tot=              9.6855
 Quadrupole moment (field-independent basis, Debye-Ang):
   XX=           -125.3543   YY=           -107.1467   ZZ=           -102.3819
   XY=             -3.5825   XZ=             -0.6306   YZ=              1.5931

 Normal termination of Gaussian 16 at Thu May  6 06:34:13 2021.
