 Gaussian 16, Revision A.03,
 Gaussian 16:  EM64L-G16RevA.03 25-Dec-2016

 -------------
 #p 6-31g* mp2
 -------------

 ------------------------------------------------------
 Input file generated by CHIRIPA (05-May-2021 14:53:18)
 ------------------------------------------------------
 Symbolic Z-matrix:
 Charge =  0 Multiplicity = 1

                         Standard orientation:
 ---------------------------------------------------------------------
 Center     Atomic      Atomic             Coordinates (Angstroms)
 Number     Number       Type             X           Y           Z
 ---------------------------------------------------------------------
      1          6           0       -2.467762    0.726480    0.330552
      2          6           0       -3.211994    1.899258    0.969845
      3          6           0       -2.280873    3.046490    1.363124
      4          1           0       -1.705712    0.358410    1.031086
      5          1           0       -1.929008    1.083724   -0.557995
      6          1           0       -3.750303    1.539628    1.856133
      7          1           0       -3.972490    2.264457    0.267783
      8          1           0       -1.753390    3.432826    0.484997
      9          1           0       -1.529940    2.703879    2.082372
     10          1           0       -2.833699    3.874234    1.818189
     11          6           0       -3.385104   -0.428215   -0.068060
     12          6           0       -2.640872   -1.600993   -0.707354
     13          6           0       -3.571993   -2.748224   -1.100632
     14          1           0       -3.923858   -0.785458    0.820487
     15          1           0       -4.147154   -0.060144   -0.768594
     16          1           0       -1.880376   -1.966191   -0.005291
     17          1           0       -2.102563   -1.241362   -1.593641
     18          1           0       -4.322926   -2.405614   -1.819880
     19          1           0       -4.099476   -3.134561   -0.222505
     20          1           0       -3.019167   -3.575968   -1.555697
     21          6           0        2.385641   -2.208017    1.305175
     22          6           0        1.216722   -1.889681    0.606023
     23          6           0        1.150356   -0.733403   -0.177026
     24          6           0        2.276669    0.085690   -0.238628
     25          6           0        3.455677   -0.204355    0.446285
     26          6           0        3.499424   -1.365823    1.223219
     27          1           0        2.428410   -3.108257    1.911090
     28          1           0        0.350206   -2.541890    0.667817
     29          1           0        0.258111   -0.463026   -0.728581
     30          1           0        4.303261    0.465298    0.365143
     31          1           0        4.408552   -1.610539    1.765109
     32          7           0        2.218384    1.312536   -1.064370
     33          8           0        3.224345    2.017696   -1.102142
     34          8           0        1.167840    1.545749   -1.658178
 ---------------------------------------------------------------------

 SCF Done:  E(RHF) =  -669.535188905     A.U. after   15 cycles
 E2 =    -0.2093775099D+01 EUMP2 =    -0.67162896400414D+03

 The electronic state is 1-A.
 Alpha  occ. eigenvalues --  -20.60759 -20.60754 -15.85801 -11.31092 -11.27695
 Alpha  occ. eigenvalues --  -11.27590 -11.27433 -11.26696 -11.26649 -11.22373
 Alpha  occ. eigenvalues --  -11.21735 -11.21645 -11.21549 -11.21444 -11.20780
 Alpha  occ. eigenvalues --   -1.59825  -1.39381  -1.19280  -1.08730  -1.08690
 Alpha  occ. eigenvalues --   -1.04676  -1.03776  -0.96180  -0.95532  -0.87205
 Alpha  occ. eigenvalues --   -0.86079  -0.82383  -0.79948  -0.78579  -0.77343
 Alpha  occ. eigenvalues --   -0.72023  -0.71141  -0.70389  -0.65404  -0.64920
 Alpha  occ. eigenvalues --   -0.64665  -0.62065  -0.61150  -0.59592  -0.57803
 Alpha  occ. eigenvalues --   -0.55437  -0.55197  -0.53028  -0.52930  -0.52803
 Alpha  occ. eigenvalues --   -0.52540  -0.50117  -0.48786  -0.48776  -0.48197
 Alpha  occ. eigenvalues --   -0.46961  -0.46001  -0.45867  -0.44779  -0.44017
 Alpha  occ. eigenvalues --   -0.37272  -0.36255
 Alpha virt. eigenvalues --    0.05077   0.11354   0.16515   0.20240   0.23022
 Alpha virt. eigenvalues --    0.24026   0.24762   0.25496   0.27626   0.28314
 Alpha virt. eigenvalues --    0.29598   0.30764   0.31462   0.31620   0.32025

 Mulliken charges:
               1
     1  C   -0.311434
     2  C   -0.299078
     3  C   -0.477796
     4  H    0.145874
     5  H    0.165125
     6  H    0.149621
     7  H    0.153388
     8  H    0.165836
     9  H    0.153165
    10  H    0.159470
    11  C   -0.295673
    12  C   -0.311432
    13  C   -0.474915
    14  H    0.149430
    15  H    0.153915
    16  H    0.142693
    17  H    0.156344
    18  H    0.160338
    19  H    0.156134
    20  H    0.159494
    21  C   -0.170305
    22  C   -0.228116
    23  C   -0.174485
    24  C    0.156005
    25  C   -0.170048
    26  C   -0.219331
    27  H    0.225395
    28  H    0.227973
    29  H    0.288440
    30  H    0.275195
    31  H    0.223020
    32  N    0.488571
    33  O   -0.460218
    34  O   -0.462594
 Sum of Mulliken charges =  -0.00000

 Dipole moment (field-independent basis, Debye):
    X=              0.0760    Y=             -4.1806    Z=              2.8025  Tot=              5.0336
 Quadrupole moment (field-independent basis, Debye-Ang):
   XX=            -89.3149   YY=            -96.3963   ZZ=            -95.8856
   XY=             -9.3868   XZ=              8.3540   YZ=              0.8119

 Normal termination of Gaussian 16 at Thu May  6 06:01:36 2021.
