 Gaussian 16, Revision A.03,
 Gaussian 16:  EM64L-G16RevA.03 25-Dec-2016

 -------------
 #p 6-31g* mp2
 -------------

 ------------------------------------------------------
 Input file generated by CHIRIPA (05-May-2021 14:57:27)
 ------------------------------------------------------
 Symbolic Z-matrix:
 Charge =  0 Multiplicity = 1

                         Standard orientation:
 ---------------------------------------------------------------------
 Center     Atomic      Atomic             Coordinates (Angstroms)
 Number     Number       Type             X           Y           Z
 ---------------------------------------------------------------------
      1          6           0        4.725404   -2.061905    0.159818
      2          6           0        3.971594   -1.720585    1.287556
      3          6           0        3.253541   -0.521619    1.325352
      4          6           0        3.311966    0.316261    0.212773
      5          6           0        4.053867    0.004165   -0.925413
      6          6           0        4.764067   -1.199960   -0.941126
      7          1           0        5.280155   -2.995295    0.139035
      8          1           0        3.939727   -2.388050    2.144013
      9          1           0        2.661902   -0.232702    2.185532
     10          1           0        4.066236    0.689892   -1.763890
     11          1           0        5.348642   -1.462447   -1.818291
     12          7           0        2.555952    1.588284    0.241097
     13          8           0        2.623801    2.309264   -0.751990
     14          8           0        1.909855    1.840229    1.255848
     15          6           0       -1.146751    0.518232   -1.063809
     16          6           0       -1.653065   -0.765528   -1.292124
     17          6           0       -2.920540   -1.122750   -0.822605
     18          6           0       -3.657936   -0.167025   -0.125379
     19          6           0       -3.181034    1.120060    0.118063
     20          6           0       -1.911003    1.455277   -0.360684
     21          1           0       -0.161152    0.787184   -1.432127
     22          1           0       -1.061760   -1.495296   -1.837873
     23          1           0       -3.336823   -2.109497   -0.985268
     24          1           0       -3.793912    1.825968    0.665324
     25          1           0       -1.520340    2.453006   -0.181896
     26          7           0       -5.001109   -0.533552    0.376565
     27          8           0       -5.630970    0.326647    0.988096
     28          8           0       -5.398592   -1.674094    0.148955
 ---------------------------------------------------------------------

 SCF Done:  E(RHF) =  -868.339611469     A.U. after   16 cycles
 E2 =    -0.2599105637D+01 EUMP2 =    -0.87093871710555D+03

 The electronic state is 1-A.
 Alpha  occ. eigenvalues --  -20.61930 -20.61894 -20.60323 -20.60310 -15.86925
 Alpha  occ. eigenvalues --  -15.85366 -11.32056 -11.30601 -11.28610 -11.28562
 Alpha  occ. eigenvalues --  -11.28269 -11.27548 -11.27511 -11.27191 -11.27074
 Alpha  occ. eigenvalues --  -11.26780 -11.26197 -11.25965  -1.60994  -1.59398
 Alpha  occ. eigenvalues --   -1.40543  -1.38955  -1.20206  -1.18740  -1.09644
 Alpha  occ. eigenvalues --   -1.08146  -1.05560  -1.04116  -0.96514  -0.95012
 Alpha  occ. eigenvalues --   -0.86967  -0.85505  -0.83343  -0.81849  -0.78426
 Alpha  occ. eigenvalues --   -0.76923  -0.73139  -0.72353  -0.71586  -0.71289
 Alpha  occ. eigenvalues --   -0.70719  -0.69794  -0.65848  -0.65546  -0.64381
 Alpha  occ. eigenvalues --   -0.64086  -0.62901  -0.61460  -0.56056  -0.54580
 Alpha  occ. eigenvalues --   -0.53917  -0.53636  -0.52463  -0.52185  -0.49923
 Alpha  occ. eigenvalues --   -0.49893  -0.48351  -0.48331  -0.45983  -0.44390
 Alpha  occ. eigenvalues --   -0.38175  -0.37157  -0.36698  -0.35718
 Alpha virt. eigenvalues --    0.04059   0.05588   0.10495   0.11942   0.15597
 Alpha virt. eigenvalues --    0.17123   0.20712   0.22072   0.26653   0.27530
 Alpha virt. eigenvalues --    0.28069   0.28597   0.30402   0.31487   0.31957

 Mulliken charges:
               1
     1  C   -0.170043
     2  C   -0.218722
     3  C   -0.169917
     4  C    0.154435
     5  C   -0.173617
     6  C   -0.218861
     7  H    0.228741
     8  H    0.227070
     9  H    0.278279
    10  H    0.275446
    11  H    0.225715
    12  N    0.485543
    13  O   -0.464472
    14  O   -0.456877
    15  C   -0.175515
    16  C   -0.219469
    17  C   -0.172844
    18  C    0.157997
    19  C   -0.172762
    20  C   -0.215467
    21  H    0.229876
    22  H    0.218590
    23  H    0.272161
    24  H    0.274980
    25  H    0.235786
    26  N    0.488111
    27  O   -0.460914
    28  O   -0.463250
 Sum of Mulliken charges =  -0.00000

 Dipole moment (field-independent basis, Debye):
    X=              7.7367    Y=             -3.1141    Z=             -1.7256  Tot=              8.5166
 Quadrupole moment (field-independent basis, Debye-Ang):
   XX=           -122.5797   YY=           -104.1035   ZZ=           -100.2020
   XY=            -20.8476   XZ=              4.2768   YZ=             -0.0481

 Normal termination of Gaussian 16 at Fri May  7 06:39:55 2021.
