 Gaussian 16, Revision A.03,
 Gaussian 16:  EM64L-G16RevA.03 25-Dec-2016

 -------------
 #p 6-31g* mp2
 -------------

 ------------------------------------------------------
 Input file generated by CHIRIPA (05-May-2021 14:55:22)
 ------------------------------------------------------
 Symbolic Z-matrix:
 Charge =  0 Multiplicity = 1

                         Standard orientation:
 ---------------------------------------------------------------------
 Center     Atomic      Atomic             Coordinates (Angstroms)
 Number     Number       Type             X           Y           Z
 ---------------------------------------------------------------------
      1          6           0       -0.390866   -1.152042    1.260382
      2          6           0       -1.117281   -1.990222    0.408150
      3          6           0       -2.301131   -1.544114   -0.186858
      4          6           0       -2.731375   -0.248157    0.093634
      5          6           0       -2.029852    0.610720    0.938314
      6          6           0       -0.848663    0.143470    1.522282
      7          1           0        0.527743   -1.506802    1.718310
      8          1           0       -0.764142   -2.996815    0.202946
      9          1           0       -2.883104   -2.172023   -0.850527
     10          1           0       -2.407090    1.609069    1.123815
     11          1           0       -0.286576    0.796610    2.183728
     12          7           0       -3.983255    0.235309   -0.530430
     13          8           0       -4.341015    1.381332   -0.267227
     14          8           0       -4.583015   -0.540928   -1.270958
     15          6           0        3.160802    1.108530   -0.573645
     16          6           0        2.503539    2.141287    0.342545
     17          6           0        2.367963    3.514485   -0.316042
     18          1           0        4.153040    1.472531   -0.873499
     19          1           0        2.569611    1.017393   -1.495373
     20          1           0        3.095031    2.229437    1.262861
     21          1           0        1.512829    1.774697    0.640408
     22          1           0        1.759829    3.447939   -1.223977
     23          1           0        3.351021    3.905262   -0.597986
     24          1           0        1.895645    4.237376    0.356420
     25          6           0        3.303326   -0.269264    0.070637
     26          6           0        3.960588   -1.302021   -0.845553
     27          6           0        4.096165   -2.675220   -0.186966
     28          1           0        3.894517   -0.178127    0.992366
     29          1           0        2.311088   -0.633265    0.370493
     30          1           0        4.951299   -0.935432   -1.143415
     31          1           0        3.369096   -1.390171   -1.765870
     32          1           0        3.113107   -3.065997    0.094979
     33          1           0        4.704299   -2.608674    0.720969
     34          1           0        4.568484   -3.398111   -0.859427
 ---------------------------------------------------------------------

 SCF Done:  E(RHF) =  -669.534761456     A.U. after   15 cycles
 E2 =    -0.2093620536D+01 EUMP2 =    -0.67162838199268D+03

 The electronic state is 1-A.
 Alpha  occ. eigenvalues --  -20.60826 -20.60821 -15.85881 -11.31277 -11.27852
 Alpha  occ. eigenvalues --  -11.27847 -11.27569 -11.26865 -11.26846 -11.22311
 Alpha  occ. eigenvalues --  -11.22218 -11.22142 -11.21974 -11.21909 -11.21539
 Alpha  occ. eigenvalues --   -1.59901  -1.39454  -1.19460  -1.09131  -1.08837
 Alpha  occ. eigenvalues --   -1.04863  -1.04199  -0.96648  -0.95676  -0.87661
 Alpha  occ. eigenvalues --   -0.86257  -0.82509  -0.80275  -0.78977  -0.77540
 Alpha  occ. eigenvalues --   -0.72098  -0.71225  -0.70581  -0.65780  -0.65105
 Alpha  occ. eigenvalues --   -0.64829  -0.62229  -0.61574  -0.60021  -0.58276
 Alpha  occ. eigenvalues --   -0.55993  -0.55329  -0.53355  -0.53187  -0.53074
 Alpha  occ. eigenvalues --   -0.52937  -0.50580  -0.48870  -0.48851  -0.48574
 Alpha  occ. eigenvalues --   -0.47297  -0.46490  -0.46389  -0.44852  -0.44448
 Alpha  occ. eigenvalues --   -0.37367  -0.36439
 Alpha virt. eigenvalues --    0.04939   0.11055   0.16263   0.20048   0.22773
 Alpha virt. eigenvalues --    0.23145   0.25979   0.26296   0.26810   0.27526
 Alpha virt. eigenvalues --    0.29677   0.30233   0.31149   0.31201   0.31615

 Mulliken charges:
               1
     1  C   -0.170621
     2  C   -0.220599
     3  C   -0.170349
     4  C    0.158749
     5  C   -0.172330
     6  C   -0.217989
     7  H    0.228664
     8  H    0.224002
     9  H    0.276045
    10  H    0.276279
    11  H    0.226110
    12  N    0.488058
    13  O   -0.460044
    14  O   -0.460189
    15  C   -0.296985
    16  C   -0.306645
    17  C   -0.475868
    18  H    0.151908
    19  H    0.153346
    20  H    0.149888
    21  H    0.151078
    22  H    0.158874
    23  H    0.157022
    24  H    0.159909
    25  C   -0.305045
    26  C   -0.299828
    27  C   -0.474968
    28  H    0.148163
    29  H    0.147019
    30  H    0.155185
    31  H    0.154514
    32  H    0.146235
    33  H    0.156282
    34  H    0.164132
 Sum of Mulliken charges =  -0.00000

 Dipole moment (field-independent basis, Debye):
    X=              4.4299    Y=             -1.6744    Z=              2.1063  Tot=              5.1830
 Quadrupole moment (field-independent basis, Debye-Ang):
   XX=           -118.4028   YY=            -91.1097   ZZ=            -93.8212
   XY=              4.5853   XZ=             -5.4097   YZ=              2.0251

 Normal termination of Gaussian 16 at Wed May  5 17:30:39 2021.
