 Gaussian 16, Revision A.03,
 Gaussian 16:  EM64L-G16RevA.03 25-Dec-2016

 -------------
 #p 6-31g* mp2
 -------------

 ------------------------------------------------------
 Input file generated by CHIRIPA (05-May-2021 14:55:24)
 ------------------------------------------------------
 Symbolic Z-matrix:
 Charge =  0 Multiplicity = 1

                         Standard orientation:
 ---------------------------------------------------------------------
 Center     Atomic      Atomic             Coordinates (Angstroms)
 Number     Number       Type             X           Y           Z
 ---------------------------------------------------------------------
      1          6           0        5.597811   -0.861452    0.471244
      2          6           0        5.389766    0.462514    0.871683
      3          6           0        4.193345    1.117451    0.564789
      4          6           0        3.222082    0.415204   -0.147099
      5          6           0        3.399617   -0.904378   -0.559984
      6          6           0        4.603825   -1.539477   -0.242054
      7          1           0        6.530244   -1.362517    0.713933
      8          1           0        6.159945    0.991549    1.425752
      9          1           0        4.006037    2.141997    0.862516
     10          1           0        2.613280   -1.405711   -1.111126
     11          1           0        4.762645   -2.567731   -0.554327
     12          7           0        1.951363    1.098056   -0.477836
     13          8           0        1.111368    0.457395   -1.106008
     14          8           0        1.819429    2.261006   -0.102633
     15          6           0       -4.955549    0.008176   -0.212748
     16          6           0       -6.213381    0.111068    0.650535
     17          6           0       -7.331192    0.905361   -0.025773
     18          1           0       -4.597272    1.019387   -0.449464
     19          1           0       -5.214300   -0.463961   -1.170626
     20          1           0       -5.952060    0.581615    1.607047
     21          1           0       -6.568597   -0.900506    0.885382
     22          1           0       -7.620329    0.435044   -0.971184
     23          1           0       -7.000289    1.925587   -0.245419
     24          1           0       -8.220836    0.966465    0.608782
     25          6           0       -3.829120   -0.782990    0.449778
     26          6           0       -2.571289   -0.885883   -0.413505
     27          6           0       -1.453478   -1.680175    0.262802
     28          1           0       -3.570369   -0.310853    1.407655
     29          1           0       -4.187398   -1.794201    0.686493
     30          1           0       -2.216073    0.125693   -0.648353
     31          1           0       -2.832609   -1.356429   -1.370017
     32          1           0       -1.784380   -2.700401    0.482449
     33          1           0       -1.164341   -1.209859    1.208214
     34          1           0       -0.563834   -1.741279   -0.371752
 ---------------------------------------------------------------------

 SCF Done:  E(RHF) =  -669.536120557     A.U. after   15 cycles
 E2 =    -0.2091190295D+01 EUMP2 =    -0.67162731085178D+03

 The electronic state is 1-A.
 Alpha  occ. eigenvalues --  -20.60943 -20.60923 -15.85959 -11.31276 -11.27842
 Alpha  occ. eigenvalues --  -11.27837 -11.27576 -11.26847 -11.26837 -11.20971
 Alpha  occ. eigenvalues --  -11.20601 -11.20523 -11.20482 -11.20387 -11.19972
 Alpha  occ. eigenvalues --   -1.59990  -1.39548  -1.19445  -1.08850  -1.07572
 Alpha  occ. eigenvalues --   -1.04841  -1.02649  -0.95697  -0.95127  -0.86242
 Alpha  occ. eigenvalues --   -0.86163  -0.82529  -0.78738  -0.77583  -0.77359
 Alpha  occ. eigenvalues --   -0.72192  -0.71302  -0.70556  -0.65103  -0.64846
 Alpha  occ. eigenvalues --   -0.64204  -0.62192  -0.60047  -0.58502  -0.56706
 Alpha  occ. eigenvalues --   -0.55347  -0.54438  -0.53171  -0.52935  -0.51832
 Alpha  occ. eigenvalues --   -0.51562  -0.49109  -0.48951  -0.48930  -0.47048
 Alpha  occ. eigenvalues --   -0.45770  -0.44935  -0.44913  -0.44802  -0.42900
 Alpha  occ. eigenvalues --   -0.37422  -0.36441
 Alpha virt. eigenvalues --    0.04923   0.11205   0.16401   0.21167   0.23680
 Alpha virt. eigenvalues --    0.24912   0.26834   0.27479   0.27714   0.28395
 Alpha virt. eigenvalues --    0.29052   0.30401   0.31627   0.32211   0.32612

 Mulliken charges:
               1
     1  C   -0.170545
     2  C   -0.218569
     3  C   -0.170838
     4  C    0.158340
     5  C   -0.170557
     6  C   -0.218640
     7  H    0.225953
     8  H    0.223739
     9  H    0.275708
    10  H    0.276048
    11  H    0.223935
    12  N    0.489822
    13  O   -0.460940
    14  O   -0.459599
    15  C   -0.298103
    16  C   -0.298964
    17  C   -0.475330
    18  H    0.152336
    19  H    0.147891
    20  H    0.151271
    21  H    0.149879
    22  H    0.154204
    23  H    0.155681
    24  H    0.158062
    25  C   -0.298017
    26  C   -0.300627
    27  C   -0.475597
    28  H    0.148368
    29  H    0.145069
    30  H    0.168511
    31  H    0.147245
    32  H    0.144924
    33  H    0.151167
    34  H    0.168174
 Sum of Mulliken charges =  -0.00000

 Dipole moment (field-independent basis, Debye):
    X=              4.7478    Y=             -2.2618    Z=              1.0869  Tot=              5.3701
 Quadrupole moment (field-independent basis, Debye-Ang):
   XX=            -67.5077   YY=            -93.4410   ZZ=            -94.8065
   XY=             -4.0987   XZ=              4.1518   YZ=              3.7324

 Normal termination of Gaussian 16 at Thu May  6 01:33:30 2021.
