 Gaussian 16, Revision A.03,
 Gaussian 16:  EM64L-G16RevA.03 25-Dec-2016

 -------------
 #p 6-31g* mp2
 -------------

 ------------------------------------------------------
 Input file generated by CHIRIPA (05-May-2021 14:53:13)
 ------------------------------------------------------
 Symbolic Z-matrix:
 Charge =  0 Multiplicity = 1

                         Standard orientation:
 ---------------------------------------------------------------------
 Center     Atomic      Atomic             Coordinates (Angstroms)
 Number     Number       Type             X           Y           Z
 ---------------------------------------------------------------------
      1          6           0        2.758822    1.242960   -0.266397
      2          6           0        1.353095    1.844445   -0.277912
      3          6           0        1.325340    3.271881   -0.825131
      4          1           0        3.418945    1.881276    0.336708
      5          1           0        3.162691    1.252818   -1.288252
      6          1           0        0.951458    1.832186    0.743436
      7          1           0        0.696197    1.204520   -0.880903
      8          1           0        1.701132    3.297752   -1.853096
      9          1           0        1.957843    3.928984   -0.219528
     10          1           0        0.310809    3.682475   -0.824360
     11          6           0        2.802867   -0.183731    0.277974
     12          6           0        4.208594   -0.785216    0.289489
     13          6           0        4.236350   -2.212652    0.836708
     14          1           0        2.398998   -0.193589    1.299829
     15          1           0        2.142744   -0.822047   -0.325131
     16          1           0        4.865492   -0.145291    0.892480
     17          1           0        4.610231   -0.772957   -0.731859
     18          1           0        3.603846   -2.869755    0.231105
     19          1           0        3.860557   -2.238523    1.864673
     20          1           0        5.250880   -2.623247    0.835936
     21          6           0       -2.650961    1.801655    1.104064
     22          6           0       -2.756212    0.614957    1.836998
     23          6           0       -2.493481   -0.618240    1.233057
     24          6           0       -2.126283   -0.627939   -0.111696
     25          6           0       -2.012795    0.537207   -0.868561
     26          6           0       -2.280243    1.759068   -0.244000
     27          1           0       -2.856889    2.755229    1.581228
     28          1           0       -3.043917    0.645003    2.884073
     29          1           0       -2.567354   -1.552110    1.776976
     30          1           0       -1.723894    0.475355   -1.910736
     31          1           0       -2.197706    2.679083   -0.815668
     32          7           0       -1.845644   -1.927470   -0.761976
     33          8           0       -1.523917   -1.909083   -1.948058
     34          8           0       -1.952722   -2.939821   -0.073270
 ---------------------------------------------------------------------

 SCF Done:  E(RHF) =  -669.534123434     A.U. after   15 cycles
 E2 =    -0.2094109820D+01 EUMP2 =    -0.67162823325403D+03

 The electronic state is 1-A.
 Alpha  occ. eigenvalues --  -20.60813 -20.60807 -15.85866 -11.31209 -11.27781
 Alpha  occ. eigenvalues --  -11.27774 -11.27529 -11.26798 -11.26771 -11.21716
 Alpha  occ. eigenvalues --  -11.21532 -11.21429 -11.21398 -11.21248 -11.20791
 Alpha  occ. eigenvalues --   -1.59888  -1.39442  -1.19395  -1.08790  -1.08419
 Alpha  occ. eigenvalues --   -1.04812  -1.03551  -0.96022  -0.95629  -0.87040
 Alpha  occ. eigenvalues --   -0.86197  -0.82464  -0.79633  -0.78214  -0.77506
 Alpha  occ. eigenvalues --   -0.72084  -0.71211  -0.70511  -0.65092  -0.65016
 Alpha  occ. eigenvalues --   -0.64810  -0.62181  -0.60948  -0.59458  -0.57646
 Alpha  occ. eigenvalues --   -0.55311  -0.55285  -0.53171  -0.52978  -0.52656
 Alpha  occ. eigenvalues --   -0.52397  -0.49946  -0.48843  -0.48838  -0.47910
 Alpha  occ. eigenvalues --   -0.46663  -0.45742  -0.45665  -0.44841  -0.43805
 Alpha  occ. eigenvalues --   -0.37358  -0.36269
 Alpha virt. eigenvalues --    0.05016   0.11113   0.16455   0.20481   0.23010
 Alpha virt. eigenvalues --    0.24189   0.26413   0.26498   0.27204   0.28301
 Alpha virt. eigenvalues --    0.28787   0.29851   0.31414   0.31748   0.32249

 Mulliken charges:
               1
     1  C   -0.298248
     2  C   -0.300561
     3  C   -0.476651
     4  H    0.148009
     5  H    0.150362
     6  H    0.151537
     7  H    0.154517
     8  H    0.157118
     9  H    0.156944
    10  H    0.148324
    11  C   -0.299675
    12  C   -0.299577
    13  C   -0.476573
    14  H    0.147683
    15  H    0.154916
    16  H    0.150004
    17  H    0.152796
    18  H    0.160699
    19  H    0.153938
    20  H    0.159592
    21  C   -0.171972
    22  C   -0.218639
    23  C   -0.170962
    24  C    0.160646
    25  C   -0.173787
    26  C   -0.211904
    27  H    0.225775
    28  H    0.223462
    29  H    0.275663
    30  H    0.275434
    31  H    0.224545
    32  N    0.488099
    33  O   -0.461499
    34  O   -0.460014
 Sum of Mulliken charges =  -0.00000

 Dipole moment (field-independent basis, Debye):
    X=             -1.0099    Y=              4.4704    Z=              2.2972  Tot=              5.1265
 Quadrupole moment (field-independent basis, Debye-Ang):
   XX=            -91.1803   YY=           -101.1476   ZZ=            -91.0478
   XY=             -8.6551   XZ=             -5.8945   YZ=             -3.4466

 Normal termination of Gaussian 16 at Thu May  6 20:18:17 2021.
