 Gaussian 16, Revision A.03,
 Gaussian 16:  EM64L-G16RevA.03 25-Dec-2016

 -------------
 #p 6-31g* mp2
 -------------

 ------------------------------------------------------
 Input file generated by CHIRIPA (05-May-2021 14:53:12)
 ------------------------------------------------------
 Symbolic Z-matrix:
 Charge =  0 Multiplicity = 1

                         Standard orientation:
 ---------------------------------------------------------------------
 Center     Atomic      Atomic             Coordinates (Angstroms)
 Number     Number       Type             X           Y           Z
 ---------------------------------------------------------------------
      1          6           0       -4.931502   -0.509063    0.020861
      2          6           0       -5.898214    0.627981   -0.311679
      3          6           0       -7.359361    0.254124   -0.060532
      4          1           0       -5.193786   -1.391817   -0.578220
      5          1           0       -5.061860   -0.795756    1.073576
      6          1           0       -5.765100    0.913378   -1.363080
      7          1           0       -5.633479    1.508191    0.288123
      8          1           0       -7.514109   -0.010565    0.990464
      9          1           0       -7.646478   -0.608759   -0.670121
     10          1           0       -8.033104    1.081323   -0.304809
     11          6           0       -3.467013   -0.150541   -0.225028
     12          6           0       -2.500301   -1.287586    0.107512
     13          6           0       -1.039154   -0.913728   -0.143635
     14          1           0       -3.336655    0.136152   -1.277743
     15          1           0       -3.204729    0.732213    0.374053
     16          1           0       -2.765035   -2.167796   -0.492290
     17          1           0       -2.633414   -1.572982    1.158914
     18          1           0       -0.752036   -0.050845    0.465954
     19          1           0       -0.884405   -0.649039   -1.194631
     20          1           0       -0.365410   -1.740927    0.100642
     21          6           0        4.513401   -1.926301   -0.197054
     22          6           0        3.349102   -1.872811    0.576294
     23          6           0        2.657916   -0.668186    0.736571
     24          6           0        3.161494    0.468795    0.106514
     25          6           0        4.318795    0.447613   -0.670337
     26          6           0        4.993684   -0.767960   -0.816810
     27          1           0        5.044001   -2.866335   -0.316200
     28          1           0        2.973790   -2.770812    1.058768
     29          1           0        1.754157   -0.598442    1.329675
     30          1           0        4.668502    1.359452   -1.139029
     31          1           0        5.897642   -0.806531   -1.417989
     32          7           0        2.438392    1.749872    0.268885
     33          8           0        2.902664    2.737483   -0.296549
     34          8           0        1.421046    1.742113    0.958510
 ---------------------------------------------------------------------

 SCF Done:  E(RHF) =  -669.535796783     A.U. after   15 cycles
 E2 =    -0.2091930911D+01 EUMP2 =    -0.67162772769390D+03

 The electronic state is 1-A.
 Alpha  occ. eigenvalues --  -20.60839 -20.60832 -15.85871 -11.31165 -11.27753
 Alpha  occ. eigenvalues --  -11.27706 -11.27493 -11.26752 -11.26738 -11.21367
 Alpha  occ. eigenvalues --  -11.21307 -11.21105 -11.21007 -11.20833 -11.20760
 Alpha  occ. eigenvalues --   -1.59897  -1.39455  -1.19346  -1.08755  -1.08135
 Alpha  occ. eigenvalues --   -1.04744  -1.03263  -0.95740  -0.95577  -0.86751
 Alpha  occ. eigenvalues --   -0.86134  -0.82439  -0.79342  -0.77944  -0.77475
 Alpha  occ. eigenvalues --   -0.72102  -0.71207  -0.70464  -0.65009  -0.64797
 Alpha  occ. eigenvalues --   -0.64720  -0.62115  -0.60644  -0.59102  -0.57326
 Alpha  occ. eigenvalues --   -0.55269  -0.54970  -0.53116  -0.52884  -0.52350
 Alpha  occ. eigenvalues --   -0.52128  -0.49653  -0.48847  -0.48838  -0.47632
 Alpha  occ. eigenvalues --   -0.46348  -0.45497  -0.45407  -0.44789  -0.43532
 Alpha  occ. eigenvalues --   -0.37328  -0.36322
 Alpha virt. eigenvalues --    0.05005   0.11283   0.16460   0.21135   0.23183
 Alpha virt. eigenvalues --    0.24423   0.26720   0.27029   0.27686   0.27972
 Alpha virt. eigenvalues --    0.29294   0.30407   0.31705   0.32001   0.32271

 Mulliken charges:
               1
     1  C   -0.298165
     2  C   -0.299766
     3  C   -0.475578
     4  H    0.147835
     5  H    0.148696
     6  H    0.152054
     7  H    0.153896
     8  H    0.154714
     9  H    0.154093
    10  H    0.160139
    11  C   -0.299315
    12  C   -0.298978
    13  C   -0.488748
    14  H    0.149904
    15  H    0.155993
    16  H    0.148891
    17  H    0.149595
    18  H    0.178905
    19  H    0.156049
    20  H    0.146116
    21  C   -0.170259
    22  C   -0.220817
    23  C   -0.166502
    24  C    0.156396
    25  C   -0.170763
    26  C   -0.218887
    27  H    0.225523
    28  H    0.223391
    29  H    0.278817
    30  H    0.275383
    31  H    0.223285
    32  N    0.489470
    33  O   -0.459604
    34  O   -0.461761
 Sum of Mulliken charges =  -0.00000

 Dipole moment (field-independent basis, Debye):
    X=              2.6080    Y=             -4.3554    Z=             -0.5551  Tot=              5.1068
 Quadrupole moment (field-independent basis, Debye-Ang):
   XX=            -78.1308   YY=            -98.6151   ZZ=            -92.9353
   XY=            -11.8934   XZ=             -3.7073   YZ=             -1.9248

 Normal termination of Gaussian 16 at Thu May  6 18:39:55 2021.
