 Gaussian 16, Revision A.03,
 Gaussian 16:  EM64L-G16RevA.03 25-Dec-2016

 -------------
 #p 6-31g* mp2
 -------------

 ------------------------------------------------------
 Input file generated by CHIRIPA (05-May-2021 14:53:15)
 ------------------------------------------------------
 Symbolic Z-matrix:
 Charge =  0 Multiplicity = 1

                         Standard orientation:
 ---------------------------------------------------------------------
 Center     Atomic      Atomic             Coordinates (Angstroms)
 Number     Number       Type             X           Y           Z
 ---------------------------------------------------------------------
      1          6           0        3.884094   -0.629480   -0.053689
      2          6           0        4.462633    0.784955   -0.105188
      3          6           0        5.989915    0.796721   -0.176364
      4          1           0        4.297246   -1.156281    0.817363
      5          1           0        4.215009   -1.186027   -0.941465
      6          1           0        4.129594    1.339105    0.781727
      7          1           0        4.047909    1.308514   -0.976110
      8          1           0        6.338036    0.267706   -1.069424
      9          1           0        6.420186    0.298471    0.698401
     10          1           0        6.382284    1.817804   -0.212367
     11          6           0        2.358371   -0.657724    0.017702
     12          6           0        1.779832   -2.072158    0.069201
     13          6           0        0.252550   -2.083924    0.140377
     14          1           0        2.027456   -0.101177    0.905478
     15          1           0        1.945219   -0.130922   -0.853350
     16          1           0        2.194556   -2.595718    0.940123
     17          1           0        2.112871   -2.626309   -0.817714
     18          1           0       -0.177721   -1.585674   -0.734388
     19          1           0       -0.095571   -1.554909    1.033437
     20          1           0       -0.139819   -3.105007    0.176380
     21          6           0       -1.467349    2.823134    0.211475
     22          6           0       -1.895411    2.346928   -1.032112
     23          6           0       -2.435063    1.062933   -1.153279
     24          6           0       -2.532346    0.278494   -0.005029
     25          6           0       -2.114645    0.724531    1.247915
     26          6           0       -1.578137    2.011846    1.345521
     27          1           0       -1.049356    3.821862    0.296450
     28          1           0       -1.810584    2.974778   -1.914527
     29          1           0       -2.774207    0.669194   -2.103736
     30          1           0       -2.211968    0.075399    2.109642
     31          1           0       -1.246511    2.379046    2.312596
     32          7           0       -3.101987   -1.082571   -0.120831
     33          8           0       -3.176919   -1.754026    0.905897
     34          8           0       -3.462754   -1.452148   -1.236133
 ---------------------------------------------------------------------

 SCF Done:  E(RHF) =  -669.534869931     A.U. after   15 cycles
 E2 =    -0.2093884830D+01 EUMP2 =    -0.67162875476124D+03

 The electronic state is 1-A.
 Alpha  occ. eigenvalues --  -20.60776 -20.60748 -15.85779 -11.31138 -11.27728
 Alpha  occ. eigenvalues --  -11.27716 -11.27475 -11.26766 -11.26755 -11.21775
 Alpha  occ. eigenvalues --  -11.21443 -11.21401 -11.21337 -11.21229 -11.20654
 Alpha  occ. eigenvalues --   -1.59816  -1.39375  -1.19336  -1.08731  -1.08430
 Alpha  occ. eigenvalues --   -1.04749  -1.03486  -0.95928  -0.95565  -0.86956
 Alpha  occ. eigenvalues --   -0.86143  -0.82405  -0.79590  -0.78254  -0.77447
 Alpha  occ. eigenvalues --   -0.72024  -0.71111  -0.70453  -0.65074  -0.64991
 Alpha  occ. eigenvalues --   -0.64757  -0.62106  -0.60888  -0.59293  -0.57552
 Alpha  occ. eigenvalues --   -0.55265  -0.55211  -0.53192  -0.52845  -0.52566
 Alpha  occ. eigenvalues --   -0.52257  -0.49906  -0.48780  -0.48778  -0.47870
 Alpha  occ. eigenvalues --   -0.46640  -0.45785  -0.45731  -0.44713  -0.43700
 Alpha  occ. eigenvalues --   -0.37259  -0.36330
 Alpha virt. eigenvalues --    0.05072   0.11198   0.16568   0.21347   0.22838
 Alpha virt. eigenvalues --    0.24318   0.26495   0.27054   0.27527   0.27722
 Alpha virt. eigenvalues --    0.28534   0.30751   0.31145   0.31810   0.32229

 Mulliken charges:
               1
     1  C   -0.298152
     2  C   -0.298813
     3  C   -0.475550
     4  H    0.149908
     5  H    0.150422
     6  H    0.149183
     7  H    0.150212
     8  H    0.156050
     9  H    0.155724
    10  H    0.159053
    11  C   -0.296867
    12  C   -0.301345
    13  C   -0.479098
    14  H    0.145652
    15  H    0.148396
    16  H    0.151636
    17  H    0.152483
    18  H    0.150935
    19  H    0.153230
    20  H    0.172184
    21  C   -0.170472
    22  C   -0.218119
    23  C   -0.173182
    24  C    0.161689
    25  C   -0.171816
    26  C   -0.218678
    27  H    0.225513
    28  H    0.223242
    29  H    0.275343
    30  H    0.274909
    31  H    0.223139
    32  N    0.492608
    33  O   -0.458901
    34  O   -0.460519
 Sum of Mulliken charges =  -0.00000

 Dipole moment (field-independent basis, Debye):
    X=              1.9237    Y=              4.7025    Z=              0.4118  Tot=              5.0974
 Quadrupole moment (field-independent basis, Debye-Ang):
   XX=           -107.1191   YY=            -92.3802   ZZ=            -88.9566
   XY=            -11.9329   XZ=             -0.2439   YZ=             -0.6922

 Normal termination of Gaussian 16 at Thu May  6 20:24:05 2021.
