 Gaussian 16, Revision A.03,
 Gaussian 16:  EM64L-G16RevA.03 25-Dec-2016

 -------------
 #p 6-31g* mp2
 -------------

 ------------------------------------------------------
 Input file generated by CHIRIPA (05-May-2021 14:55:22)
 ------------------------------------------------------
 Symbolic Z-matrix:
 Charge =  0 Multiplicity = 1

                         Standard orientation:
 ---------------------------------------------------------------------
 Center     Atomic      Atomic             Coordinates (Angstroms)
 Number     Number       Type             X           Y           Z
 ---------------------------------------------------------------------
      1          6           0        2.939753    1.603020    1.756752
      2          6           0        3.893494    0.606331    1.525428
      3          6           0        3.643042   -0.416274    0.605591
      4          6           0        2.422774   -0.411424   -0.068361
      5          6           0        1.452494    0.567522    0.140231
      6          6           0        1.724440    1.580474    1.064635
      7          1           0        3.142659    2.393654    2.473077
      8          1           0        4.838194    0.621314    2.061490
      9          1           0        4.363710   -1.200300    0.407201
     10          1           0        0.519952    0.525969   -0.409365
     11          1           0        0.981898    2.353214    1.242260
     12          7           0        2.146254   -1.488900   -1.044569
     13          8           0        1.063444   -1.462155   -1.625469
     14          8           0        3.017564   -2.339769   -1.210337
     15          6           0       -3.824964    0.046912    0.158798
     16          6           0       -3.680445   -1.181068    1.058332
     17          6           0       -5.020398   -1.674207    1.605264
     18          1           0       -4.310579    0.853336    0.725194
     19          1           0       -4.495978   -0.196167   -0.676695
     20          1           0       -3.008806   -0.936169    1.891124
     21          1           0       -3.194944   -1.984598    0.489786
     22          1           0       -5.694390   -1.945568    0.786303
     23          1           0       -5.507195   -0.891181    2.195602
     24          1           0       -4.893799   -2.552670    2.245683
     25          6           0       -2.494005    0.551725   -0.395673
     26          6           0       -2.638525    1.779707   -1.295208
     27          6           0       -1.298573    2.272845   -1.842139
     28          1           0       -1.822991    0.794805    0.439820
     29          1           0       -2.008390   -0.254697   -0.962070
     30          1           0       -3.124026    2.583237   -0.726661
     31          1           0       -3.310164    1.534807   -2.128000
     32          1           0       -0.811775    1.489819   -2.432478
     33          1           0       -0.624580    2.544206   -1.023177
     34          1           0       -1.425171    3.151309   -2.482558
 ---------------------------------------------------------------------

 SCF Done:  E(RHF) =  -669.534847596     A.U. after   15 cycles
 E2 =    -0.2093719031D+01 EUMP2 =    -0.67162856662645D+03

 The electronic state is 1-A.
 Alpha  occ. eigenvalues --  -20.60770 -20.60764 -15.85810 -11.31075 -11.27695
 Alpha  occ. eigenvalues --  -11.27540 -11.27441 -11.26691 -11.26669 -11.21903
 Alpha  occ. eigenvalues --  -11.21619 -11.21569 -11.21538 -11.21470 -11.21033
 Alpha  occ. eigenvalues --   -1.59834  -1.39391  -1.19274  -1.08691  -1.08620
 Alpha  occ. eigenvalues --   -1.04680  -1.03718  -0.96190  -0.95533  -0.87210
 Alpha  occ. eigenvalues --   -0.86078  -0.82381  -0.79814  -0.78490  -0.77361
 Alpha  occ. eigenvalues --   -0.72034  -0.71150  -0.70397  -0.65264  -0.64911
 Alpha  occ. eigenvalues --   -0.64694  -0.62115  -0.61076  -0.59519  -0.57799
 Alpha  occ. eigenvalues --   -0.55485  -0.55191  -0.53052  -0.52893  -0.52757
 Alpha  occ. eigenvalues --   -0.52576  -0.50129  -0.48800  -0.48785  -0.48048
 Alpha  occ. eigenvalues --   -0.46790  -0.45925  -0.45820  -0.44810  -0.43956
 Alpha  occ. eigenvalues --   -0.37269  -0.36255
 Alpha virt. eigenvalues --    0.05071   0.11364   0.16514   0.20053   0.22979
 Alpha virt. eigenvalues --    0.24035   0.25243   0.26704   0.27706   0.28011
 Alpha virt. eigenvalues --    0.29059   0.30369   0.31487   0.31741   0.32472

 Mulliken charges:
               1
     1  C   -0.169934
     2  C   -0.219759
     3  C   -0.169465
     4  C    0.154417
     5  C   -0.176598
     6  C   -0.227569
     7  H    0.225265
     8  H    0.223067
     9  H    0.275169
    10  H    0.297636
    11  H    0.223418
    12  N    0.488296
    13  O   -0.463637
    14  O   -0.460030
    15  C   -0.296999
    16  C   -0.300977
    17  C   -0.475978
    18  H    0.147809
    19  H    0.152448
    20  H    0.149596
    21  H    0.158832
    22  H    0.156276
    23  H    0.153590
    24  H    0.161202
    25  C   -0.312957
    26  C   -0.296735
    27  C   -0.489118
    28  H    0.138628
    29  H    0.168706
    30  H    0.150356
    31  H    0.157090
    32  H    0.169663
    33  H    0.142933
    34  H    0.165357
 Sum of Mulliken charges =  -0.00000

 Dipole moment (field-independent basis, Debye):
    X=              0.8438    Y=              3.6637    Z=              3.2714  Tot=              4.9836
 Quadrupole moment (field-independent basis, Debye-Ang):
   XX=            -86.6548   YY=            -97.6971   ZZ=            -95.0776
   XY=              6.6817   XZ=             10.2779   YZ=             -1.4506

 Normal termination of Gaussian 16 at Thu May  6 03:02:50 2021.
