 Gaussian 16, Revision A.03,
 Gaussian 16:  EM64L-G16RevA.03 25-Dec-2016

 -------------
 #p 6-31g* mp2
 -------------

 ------------------------------------------------------
 Input file generated by CHIRIPA (05-May-2021 14:53:12)
 ------------------------------------------------------
 Symbolic Z-matrix:
 Charge =  0 Multiplicity = 1

                         Standard orientation:
 ---------------------------------------------------------------------
 Center     Atomic      Atomic             Coordinates (Angstroms)
 Number     Number       Type             X           Y           Z
 ---------------------------------------------------------------------
      1          6           0       -5.001493   -0.177180   -0.177622
      2          6           0       -6.001408   -0.546905    0.918488
      3          6           0       -7.016978   -1.595243    0.463076
      4          1           0       -5.548999    0.196877   -1.053557
      5          1           0       -4.472984   -1.083885   -0.503137
      6          1           0       -6.526892    0.360453    1.242809
      7          1           0       -5.451447   -0.919947    1.791986
      8          1           0       -6.509576   -2.516263    0.158336
      9          1           0       -7.591131   -1.228589   -0.393961
     10          1           0       -7.722094   -1.844793    1.262073
     11          6           0       -3.979764    0.869768    0.262489
     12          6           0       -2.979848    1.239493   -0.833621
     13          6           0       -1.964278    2.287831   -0.378209
     14          1           0       -4.508272    1.776473    0.588005
     15          1           0       -3.432258    0.495710    1.138424
     16          1           0       -3.529809    1.612534   -1.707119
     17          1           0       -2.454364    0.332135   -1.157942
     18          1           0       -1.390125    1.921176    0.478829
     19          1           0       -2.471681    3.208851   -0.073469
     20          1           0       -1.259162    2.537380   -1.177206
     21          6           0        1.159416   -0.791352   -0.793026
     22          6           0        2.126760   -1.801340   -0.766726
     23          6           0        3.431371   -1.524207   -0.347518
     24          6           0        3.735385   -0.220192    0.040311
     25          6           0        2.793773    0.807635    0.025175
     26          6           0        1.495418    0.507622   -0.397690
     27          1           0        0.148393   -1.015522   -1.120096
     28          1           0        1.868661   -2.811048   -1.073189
     29          1           0        4.199825   -2.287089   -0.317392
     30          1           0        3.081030    1.804597    0.336574
     31          1           0        0.746218    1.293985   -0.417091
     32          7           0        5.113207    0.085307    0.486042
     33          8           0        5.355740    1.242221    0.822738
     34          8           0        5.924522   -0.837941    0.490270
 ---------------------------------------------------------------------

 SCF Done:  E(RHF) =  -669.535089083     A.U. after   15 cycles
 E2 =    -0.2091746838D+01 EUMP2 =    -0.67162683592187D+03

 The electronic state is 1-A.
 Alpha  occ. eigenvalues --  -20.60704 -20.60699 -15.85754 -11.31105 -11.27676
 Alpha  occ. eigenvalues --  -11.27646 -11.27403 -11.26696 -11.26569 -11.22823
 Alpha  occ. eigenvalues --  -11.22412 -11.22311 -11.22236 -11.22149 -11.21610
 Alpha  occ. eigenvalues --   -1.59779  -1.39333  -1.19270  -1.09334  -1.08670
 Alpha  occ. eigenvalues --   -1.04676  -1.04451  -0.96915  -0.95509  -0.87948
 Alpha  occ. eigenvalues --   -0.86062  -0.82342  -0.80539  -0.79092  -0.77391
 Alpha  occ. eigenvalues --   -0.71974  -0.71102  -0.70393  -0.65999  -0.64918
 Alpha  occ. eigenvalues --   -0.64710  -0.62192  -0.61693  -0.60287  -0.58491
 Alpha  occ. eigenvalues --   -0.56200  -0.55188  -0.53681  -0.53326  -0.52999
 Alpha  occ. eigenvalues --   -0.52694  -0.50793  -0.48838  -0.48731  -0.48727
 Alpha  occ. eigenvalues --   -0.47551  -0.46641  -0.46540  -0.44742  -0.44689
 Alpha  occ. eigenvalues --   -0.37257  -0.36269
 Alpha virt. eigenvalues --    0.05137   0.11319   0.16622   0.18970   0.22570
 Alpha virt. eigenvalues --    0.23939   0.24905   0.25996   0.26511   0.28261
 Alpha virt. eigenvalues --    0.28885   0.30141   0.30607   0.31198   0.31984

 Mulliken charges:
               1
     1  C   -0.298482
     2  C   -0.300399
     3  C   -0.476107
     4  H    0.151463
     5  H    0.147441
     6  H    0.153658
     7  H    0.152862
     8  H    0.154998
     9  H    0.156108
    10  H    0.162439
    11  C   -0.299656
    12  C   -0.300054
    13  C   -0.487113
    14  H    0.153266
    15  H    0.151183
    16  H    0.157700
    17  H    0.144192
    18  H    0.155276
    19  H    0.165002
    20  H    0.158945
    21  C   -0.176425
    22  C   -0.218603
    23  C   -0.171395
    24  C    0.158971
    25  C   -0.173195
    26  C   -0.227341
    27  H    0.227100
    28  H    0.222967
    29  H    0.275189
    30  H    0.275791
    31  H    0.237573
    32  N    0.487959
    33  O   -0.460538
    34  O   -0.460775
 Sum of Mulliken charges =  -0.00000

 Dipole moment (field-independent basis, Debye):
    X=             -5.1676    Y=             -0.9919    Z=             -1.5333  Tot=              5.4808
 Quadrupole moment (field-independent basis, Debye-Ang):
   XX=           -130.5735   YY=            -89.5360   ZZ=            -95.5701
   XY=             -5.7123   XZ=             -6.3513   YZ=              0.7739

 Normal termination of Gaussian 16 at Thu May  6 02:33:01 2021.
