 Gaussian 16, Revision A.03,
 Gaussian 16:  EM64L-G16RevA.03 25-Dec-2016

 -------------
 #p 6-31g* mp2
 -------------

 ------------------------------------------------------
 Input file generated by CHIRIPA (05-May-2021 14:51:10)
 ------------------------------------------------------
 Symbolic Z-matrix:
 Charge =  0 Multiplicity = 1

                         Standard orientation:
 ---------------------------------------------------------------------
 Center     Atomic      Atomic             Coordinates (Angstroms)
 Number     Number       Type             X           Y           Z
 ---------------------------------------------------------------------
      1          6           0       -5.208859    0.034508    0.081425
      2          6           0       -5.813937    1.438588    0.060829
      3          6           0       -7.259874    1.466517    0.557094
      4          1           0       -5.823802   -0.631993   -0.538710
      5          1           0       -5.253774   -0.361567    1.105389
      6          1           0       -5.766634    1.832443   -0.962526
      7          1           0       -5.197374    2.101868    0.680931
      8          1           0       -7.321080    1.098519    1.586381
      9          1           0       -7.893574    0.827563   -0.066414
     10          1           0       -7.672756    2.479855    0.533984
     11          6           0       -3.763725   -0.009690   -0.411895
     12          6           0       -3.158647   -1.413770   -0.391299
     13          6           0       -1.712710   -1.441699   -0.887564
     14          1           0       -3.718810    0.386385   -1.435858
     15          1           0       -3.148783    0.656811    0.208240
     16          1           0       -3.775210   -2.077050   -1.011401
     17          1           0       -3.205950   -1.807625    0.632056
     18          1           0       -1.079010   -0.802745   -0.264056
     19          1           0       -1.651505   -1.073701   -1.916851
     20          1           0       -1.299828   -2.455038   -0.864454
     21          6           0        4.885008    0.503998   -0.231981
     22          6           0        6.295328    0.731373    0.313254
     23          6           0        7.080545    1.767175   -0.491945
     24          1           0        4.951516    0.182041   -1.280250
     25          1           0        4.341137    1.458776   -0.232152
     26          1           0        6.835918   -0.223812    0.313690
     27          1           0        6.225462    1.052642    1.360403
     28          1           0        6.565908    2.733434   -0.482342
     29          1           0        7.179833    1.449728   -1.535003
     30          1           0        8.085815    1.914150   -0.084893
     31          6           0        4.087576   -0.528817    0.562451
     32          6           0        2.677256   -0.756191    0.017216
     33          6           0        1.892040   -1.791992    0.822414
     34          1           0        4.631447   -1.483594    0.562622
     35          1           0        4.021068   -0.206859    1.610719
     36          1           0        2.747122   -1.077460   -1.029933
     37          1           0        2.136666    0.198994    0.016781
     38          1           0        1.792752   -1.474546    1.865473
     39          1           0        2.406675   -2.758252    0.812812
     40          1           0        0.886769   -1.938968    0.415363
 ---------------------------------------------------------------------

 SCF Done:  E(RHF) =  -470.732798967     A.U. after   11 cycles
 E2 =    -0.1582570205D+01 EUMP2 =    -0.47231536917224D+03

 The electronic state is 1-A.
 Alpha  occ. eigenvalues --  -11.21630 -11.21615 -11.21569 -11.21522 -11.21426
 Alpha  occ. eigenvalues --  -11.21366 -11.21354 -11.21293 -11.21109 -11.21081
 Alpha  occ. eigenvalues --  -11.21046 -11.20884  -1.08454  -1.08373  -1.03568
 Alpha  occ. eigenvalues --   -1.03456  -0.96049  -0.95880  -0.87093  -0.86875
 Alpha  occ. eigenvalues --   -0.79644  -0.79511  -0.78264  -0.78188  -0.65088
 Alpha  occ. eigenvalues --   -0.65005  -0.61003  -0.60856  -0.59506  -0.59187
 Alpha  occ. eigenvalues --   -0.57625  -0.57546  -0.55315  -0.55182  -0.52952
 Alpha  occ. eigenvalues --   -0.52473  -0.52447  -0.52204  -0.49922  -0.49844
 Alpha  occ. eigenvalues --   -0.47942  -0.47832  -0.46632  -0.46567  -0.45804
 Alpha  occ. eigenvalues --   -0.45734  -0.45721  -0.45658  -0.43905  -0.43589
 Alpha virt. eigenvalues --    0.22228   0.23009   0.23566   0.24889   0.26510
 Alpha virt. eigenvalues --    0.26749   0.27039   0.27441   0.27661   0.28975
 Alpha virt. eigenvalues --    0.30430   0.31147   0.31471   0.31745   0.32105

 Mulliken charges:
               1
     1  C   -0.298357
     2  C   -0.299668
     3  C   -0.475722
     4  H    0.149727
     5  H    0.149640
     6  H    0.151954
     7  H    0.151936
     8  H    0.155223
     9  H    0.155211
    10  H    0.160291
    11  C   -0.298765
    12  C   -0.299598
    13  C   -0.480674
    14  H    0.149613
    15  H    0.149891
    16  H    0.152119
    17  H    0.152444
    18  H    0.159336
    19  H    0.155832
    20  H    0.161370
    21  C   -0.298190
    22  C   -0.299594
    23  C   -0.475665
    24  H    0.149586
    25  H    0.149338
    26  H    0.151869
    27  H    0.151820
    28  H    0.155104
    29  H    0.155141
    30  H    0.160127
    31  C   -0.298062
    32  C   -0.298972
    33  C   -0.485248
    34  H    0.149444
    35  H    0.149324
    36  H    0.152003
    37  H    0.151110
    38  H    0.153521
    39  H    0.154046
    40  H    0.171496
 Sum of Mulliken charges =  -0.00000

 Dipole moment (field-independent basis, Debye):
    X=             -0.0631    Y=             -0.0045    Z=             -0.0240  Tot=              0.0676
 Quadrupole moment (field-independent basis, Debye-Ang):
   XX=            -86.2872   YY=            -84.7900   ZZ=            -83.8535
   XY=             -0.4864   XZ=              0.7313   YZ=              0.9538

 Normal termination of Gaussian 16 at Thu May  6 02:11:42 2021.
