 Gaussian 16, Revision A.03,
 Gaussian 16:  EM64L-G16RevA.03 25-Dec-2016

 -------------
 #p 6-31g* mp2
 -------------

 ------------------------------------------------------
 Input file generated by CHIRIPA (05-May-2021 14:51:12)
 ------------------------------------------------------
 Symbolic Z-matrix:
 Charge =  0 Multiplicity = 1

                         Standard orientation:
 ---------------------------------------------------------------------
 Center     Atomic      Atomic             Coordinates (Angstroms)
 Number     Number       Type             X           Y           Z
 ---------------------------------------------------------------------
      1          6           0       -4.578507   -0.611233    0.196154
      2          6           0       -5.717045   -0.001290   -0.622189
      3          6           0       -6.988732   -0.849553   -0.589716
      4          1           0       -4.359404   -1.617796   -0.185645
      5          1           0       -4.910179   -0.736764    1.236168
      6          1           0       -5.382854    0.124334   -1.660048
      7          1           0       -5.933333    1.004013   -0.238522
      8          1           0       -7.348934   -0.964603    0.437717
      9          1           0       -6.795326   -1.849281   -0.991886
     10          1           0       -7.789687   -0.395066   -1.181132
     11          6           0       -3.300435    0.225274    0.173428
     12          6           0       -2.161896   -0.384668    0.991771
     13          6           0       -0.890209    0.463595    0.959298
     14          1           0       -2.968762    0.350805   -0.866586
     15          1           0       -3.519537    1.231837    0.555226
     16          1           0       -1.945608   -1.389971    0.608104
     17          1           0       -2.496088   -0.510292    2.029630
     18          1           0       -1.083615    1.463322    1.361468
     19          1           0       -0.530008    0.578645   -0.068135
     20          1           0       -0.089254    0.009108    1.550714
     21          6           0        3.304201    0.570333   -0.378359
     22          6           0        3.322231    2.041546    0.037804
     23          6           0        2.044517    2.783089   -0.356348
     24          1           0        3.161324    0.505164   -1.465689
     25          1           0        2.436378    0.077152    0.081044
     26          1           0        4.190538    2.531479   -0.421133
     27          1           0        3.465273    2.103225    1.124243
     28          1           0        1.170275    2.320568    0.113095
     29          1           0        1.899661    2.751255   -1.441062
     30          1           0        2.078750    3.833050   -0.049317
     31          6           0        4.574740   -0.184374    0.008777
     32          6           0        4.556711   -1.655588   -0.407386
     33          6           0        5.834424   -2.397130   -0.013234
     34          1           0        5.442563    0.308806   -0.450626
     35          1           0        4.717617   -0.119205    1.096106
     36          1           0        4.413668   -1.717267   -1.493825
     37          1           0        3.688403   -2.145521    0.051552
     38          1           0        5.979280   -2.365297    1.071480
     39          1           0        6.708666   -1.934609   -0.482677
     40          1           0        5.800191   -3.447092   -0.320265
 ---------------------------------------------------------------------

 SCF Done:  E(RHF) =  -470.732862597     A.U. after   11 cycles
 E2 =    -0.1583002103D+01 EUMP2 =    -0.47231586470033D+03

 The electronic state is 1-A.
 Alpha  occ. eigenvalues --  -11.21651 -11.21615 -11.21569 -11.21495 -11.21432
 Alpha  occ. eigenvalues --  -11.21372 -11.21337 -11.21266 -11.21155 -11.21082
 Alpha  occ. eigenvalues --  -11.21047 -11.20866  -1.08464  -1.08357  -1.03583
 Alpha  occ. eigenvalues --   -1.03442  -0.96048  -0.95883  -0.87086  -0.86889
 Alpha  occ. eigenvalues --   -0.79710  -0.79462  -0.78285  -0.78154  -0.65097
 Alpha  occ. eigenvalues --   -0.64986  -0.60986  -0.60843  -0.59402  -0.59262
 Alpha  occ. eigenvalues --   -0.57719  -0.57454  -0.55314  -0.55202  -0.52759
 Alpha  occ. eigenvalues --   -0.52606  -0.52583  -0.52179  -0.49979  -0.49838
 Alpha  occ. eigenvalues --   -0.48067  -0.47700  -0.46697  -0.46516  -0.45858
 Alpha  occ. eigenvalues --   -0.45751  -0.45685  -0.45527  -0.43800  -0.43704
 Alpha virt. eigenvalues --    0.21861   0.22955   0.23692   0.24683   0.26069
 Alpha virt. eigenvalues --    0.26589   0.27027   0.27363   0.27969   0.29278
 Alpha virt. eigenvalues --    0.30715   0.31109   0.31406   0.31839   0.32290

 Mulliken charges:
               1
     1  C   -0.298346
     2  C   -0.299666
     3  C   -0.475729
     4  H    0.149718
     5  H    0.149549
     6  H    0.152044
     7  H    0.152022
     8  H    0.155186
     9  H    0.155202
    10  H    0.160336
    11  C   -0.298577
    12  C   -0.300510
    13  C   -0.480348
    14  H    0.149954
    15  H    0.149847
    16  H    0.152232
    17  H    0.151962
    18  H    0.155831
    19  H    0.158990
    20  H    0.160855
    21  C   -0.302090
    22  C   -0.298418
    23  C   -0.485857
    24  H    0.148796
    25  H    0.153531
    26  H    0.151185
    27  H    0.151221
    28  H    0.169520
    29  H    0.153387
    30  H    0.158975
    31  C   -0.298110
    32  C   -0.299520
    33  C   -0.475639
    34  H    0.149416
    35  H    0.149354
    36  H    0.151763
    37  H    0.151620
    38  H    0.155094
    39  H    0.155167
    40  H    0.160052
 Sum of Mulliken charges =  -0.00000

 Dipole moment (field-independent basis, Debye):
    X=             -0.0736    Y=             -0.0129    Z=              0.0143  Tot=              0.0761
 Quadrupole moment (field-independent basis, Debye-Ang):
   XX=            -86.4424   YY=            -85.3073   ZZ=            -83.3485
   XY=             -0.0838   XZ=             -0.8683   YZ=              0.3662

 Normal termination of Gaussian 16 at Wed May  5 15:17:53 2021.
