 Gaussian 16, Revision A.03,
 Gaussian 16:  EM64L-G16RevA.03 25-Dec-2016

 -------------
 #p 6-31g* mp2
 -------------

 ------------------------------------------------------
 Input file generated by CHIRIPA (05-May-2021 14:57:25)
 ------------------------------------------------------
 Symbolic Z-matrix:
 Charge =  0 Multiplicity = 1

                         Standard orientation:
 ---------------------------------------------------------------------
 Center     Atomic      Atomic             Coordinates (Angstroms)
 Number     Number       Type             X           Y           Z
 ---------------------------------------------------------------------
      1          6           0       -3.982029    2.544283   -0.232465
      2          6           0       -2.700325    2.011985   -0.058072
      3          6           0       -2.507301    0.628331   -0.005227
      4          6           0       -3.623344   -0.197486   -0.130787
      5          6           0       -4.912831    0.302497   -0.305515
      6          6           0       -5.082252    1.689348   -0.355413
      7          1           0       -4.122807    3.620380   -0.272372
      8          1           0       -1.844040    2.673536    0.037695
      9          1           0       -1.526072    0.189455    0.128923
     10          1           0       -5.747060   -0.382286   -0.397993
     11          1           0       -6.078796    2.099930   -0.490940
     12          7           0       -3.431492   -1.663990   -0.076402
     13          8           0       -4.431071   -2.370162   -0.189542
     14          8           0       -2.285173   -2.079496    0.078336
     15          6           0        5.527117    0.267955   -1.522633
     16          6           0        5.657839    0.761369   -0.220336
     17          6           0        4.626949    0.594150    0.709099
     18          6           0        3.473970   -0.074391    0.300463
     19          6           0        3.313804   -0.577389   -0.989741
     20          6           0        4.357578   -0.398674   -1.902509
     21          1           0        6.332942    0.402320   -2.238167
     22          1           0        6.564984    1.279486    0.077470
     23          1           0        4.701745    0.966079    1.723739
     24          1           0        2.397567   -1.089622   -1.257221
     25          1           0        4.253291   -0.782921   -2.913214
     26          7           0        2.375794   -0.257503    1.275592
     27          8           0        1.370107   -0.850079    0.890772
     28          8           0        2.541522    0.195015    2.406255
 ---------------------------------------------------------------------

 SCF Done:  E(RHF) =  -868.338206705     A.U. after   16 cycles
 E2 =    -0.2599135551D+01 EUMP2 =    -0.87093734225603D+03

 The electronic state is 1-A.
 Alpha  occ. eigenvalues --  -20.60936 -20.60931 -20.59929 -20.59873 -15.85963
 Alpha  occ. eigenvalues --  -15.84956 -11.31294 -11.30385 -11.27873 -11.27831
 Alpha  occ. eigenvalues --  -11.27602 -11.27047 -11.26876 -11.26847 -11.26846
 Alpha  occ. eigenvalues --  -11.26815 -11.26083 -11.26000  -1.60005  -1.58988
 Alpha  occ. eigenvalues --   -1.39554  -1.38530  -1.19468  -1.18592  -1.08871
 Alpha  occ. eigenvalues --   -1.07993  -1.04859  -1.03999  -0.95705  -0.94800
 Alpha  occ. eigenvalues --   -0.86259  -0.85398  -0.82528  -0.81622  -0.77584
 Alpha  occ. eigenvalues --   -0.76636  -0.72162  -0.71333  -0.71165  -0.70568
 Alpha  occ. eigenvalues --   -0.70320  -0.69701  -0.65115  -0.64857  -0.64244
 Alpha  occ. eigenvalues --   -0.64012  -0.62199  -0.61315  -0.55364  -0.54538
 Alpha  occ. eigenvalues --   -0.53200  -0.52945  -0.52347  -0.52086  -0.48947
 Alpha  occ. eigenvalues --   -0.48924  -0.47961  -0.47905  -0.44961  -0.43923
 Alpha  occ. eigenvalues --   -0.37455  -0.36618  -0.36465  -0.35611
 Alpha virt. eigenvalues --    0.04895   0.05877   0.11189   0.12037   0.16365
 Alpha virt. eigenvalues --    0.17329   0.21324   0.22172   0.27267   0.27897
 Alpha virt. eigenvalues --    0.28261   0.29153   0.30870   0.31650   0.32396

 Mulliken charges:
               1
     1  C   -0.171117
     2  C   -0.220550
     3  C   -0.176642
     4  C    0.155965
     5  C   -0.171397
     6  C   -0.219605
     7  H    0.222385
     8  H    0.222135
     9  H    0.293584
    10  H    0.273349
    11  H    0.220306
    12  N    0.486539
    13  O   -0.466001
    14  O   -0.452256
    15  C   -0.170733
    16  C   -0.218776
    17  C   -0.171350
    18  C    0.156648
    19  C   -0.172409
    20  C   -0.218840
    21  H    0.225987
    22  H    0.223500
    23  H    0.275320
    24  H    0.279682
    25  H    0.224788
    26  N    0.487852
    27  O   -0.458151
    28  O   -0.460212
 Sum of Mulliken charges =  -0.00000

 Dipole moment (field-independent basis, Debye):
    X=              3.5159    Y=              5.6818    Z=             -3.5951  Tot=              7.5875
 Quadrupole moment (field-independent basis, Debye-Ang):
   XX=            -68.4074   YY=           -107.2840   ZZ=           -105.5214
   XY=            -14.4253   XZ=             -7.6436   YZ=              1.8572

 Normal termination of Gaussian 16 at Thu May  6 16:23:57 2021.
