 Gaussian 16, Revision A.03,
 Gaussian 16:  EM64L-G16RevA.03 25-Dec-2016

 -------------
 #p 6-31g* mp2
 -------------

 ------------------------------------------------------
 Input file generated by CHIRIPA (05-May-2021 14:53:18)
 ------------------------------------------------------
 Symbolic Z-matrix:
 Charge =  0 Multiplicity = 1

                         Standard orientation:
 ---------------------------------------------------------------------
 Center     Atomic      Atomic             Coordinates (Angstroms)
 Number     Number       Type             X           Y           Z
 ---------------------------------------------------------------------
      1          6           0       -3.216696   -0.650221   -0.181050
      2          6           0       -4.302512   -1.572579    0.374147
      3          6           0       -4.028701   -3.048833    0.085190
      4          1           0       -3.133488   -0.803720   -1.265697
      5          1           0       -2.247201   -0.935552    0.250296
      6          1           0       -5.269882   -1.284704   -0.057060
      7          1           0       -4.383277   -1.416728    1.457569
      8          1           0       -3.077246   -3.358351    0.529637
      9          1           0       -3.968889   -3.225577   -0.993598
     10          1           0       -4.817250   -3.690300    0.490863
     11          6           0       -3.476315    0.828775    0.099838
     12          6           0       -2.390499    1.751133   -0.455359
     13          6           0       -2.664310    3.227387   -0.166402
     14          1           0       -4.445810    1.114107   -0.331508
     15          1           0       -3.559523    0.982274    1.184485
     16          1           0       -2.309734    1.595282   -1.538781
     17          1           0       -1.423129    1.463259   -0.024152
     18          1           0       -2.724122    3.404131    0.912386
     19          1           0       -3.615765    3.536905   -0.610849
     20          1           0       -1.875761    3.868854   -0.572075
     21          6           0        2.511892    0.183043    2.540010
     22          6           0        3.482972   -0.638699    1.958407
     23          6           0        3.549143   -0.786215    0.569736
     24          6           0        2.624373   -0.094187   -0.210769
     25          6           0        1.645211    0.731898    0.338883
     26          6           0        1.597722    0.864518    1.729820
     27          1           0        2.467744    0.291851    3.619643
     28          1           0        4.194221   -1.169149    2.585141
     29          1           0        4.290643   -1.415884    0.093172
     30          1           0        0.949811    1.247950   -0.311905
     31          1           0        0.842490    1.503374    2.178743
     32          7           0        2.684537   -0.242470   -1.682091
     33          8           0        1.858326    0.377952   -2.347741
     34          8           0        3.556765   -0.976308   -2.141806
 ---------------------------------------------------------------------

 SCF Done:  E(RHF) =  -669.535466486     A.U. after   15 cycles
 E2 =    -0.2091577448D+01 EUMP2 =    -0.67162704393425D+03

 The electronic state is 1-A.
 Alpha  occ. eigenvalues --  -20.60754 -20.60747 -15.85806 -11.31180 -11.27763
 Alpha  occ. eigenvalues --  -11.27727 -11.27512 -11.26784 -11.26774 -11.22003
 Alpha  occ. eigenvalues --  -11.21712 -11.21659 -11.21490 -11.21455 -11.21112
 Alpha  occ. eigenvalues --   -1.59828  -1.39381  -1.19362  -1.08756  -1.08657
 Alpha  occ. eigenvalues --   -1.04771  -1.03765  -0.96196  -0.95588  -0.87212
 Alpha  occ. eigenvalues --   -0.86165  -0.82422  -0.79843  -0.78457  -0.77456
 Alpha  occ. eigenvalues --   -0.72026  -0.71151  -0.70478  -0.65314  -0.65010
 Alpha  occ. eigenvalues --   -0.64770  -0.62163  -0.61135  -0.59566  -0.57803
 Alpha  occ. eigenvalues --   -0.55487  -0.55268  -0.53100  -0.52918  -0.52850
 Alpha  occ. eigenvalues --   -0.52606  -0.50138  -0.48786  -0.48779  -0.48135
 Alpha  occ. eigenvalues --   -0.46877  -0.45986  -0.45908  -0.44783  -0.44005
 Alpha  occ. eigenvalues --   -0.37347  -0.36364
 Alpha virt. eigenvalues --    0.05043   0.11268   0.16493   0.20127   0.22861
 Alpha virt. eigenvalues --    0.23912   0.25633   0.26737   0.27728   0.27870
 Alpha virt. eigenvalues --    0.29117   0.30164   0.31423   0.31561   0.32169

 Mulliken charges:
               1
     1  C   -0.299132
     2  C   -0.299771
     3  C   -0.475859
     4  H    0.154908
     5  H    0.148456
     6  H    0.152595
     7  H    0.149926
     8  H    0.154942
     9  H    0.157711
    10  H    0.160065
    11  C   -0.297902
    12  C   -0.303740
    13  C   -0.476749
    14  H    0.151946
    15  H    0.146476
    16  H    0.162442
    17  H    0.141221
    18  H    0.151423
    19  H    0.159215
    20  H    0.161444
    21  C   -0.170804
    22  C   -0.218722
    23  C   -0.170681
    24  C    0.159349
    25  C   -0.176516
    26  C   -0.220683
    27  H    0.225565
    28  H    0.223506
    29  H    0.275648
    30  H    0.282672
    31  H    0.223736
    32  N    0.487879
    33  O   -0.459974
    34  O   -0.460591
 Sum of Mulliken charges =  -0.00000

 Dipole moment (field-independent basis, Debye):
    X=             -0.2958    Y=              0.4932    Z=              5.0703  Tot=              5.1028
 Quadrupole moment (field-independent basis, Debye-Ang):
   XX=            -92.5585   YY=            -94.6468   ZZ=            -96.6818
   XY=             -1.4552   XZ=             15.0992   YZ=             -1.2652

 Normal termination of Gaussian 16 at Thu May  6 07:36:59 2021.
