 Gaussian 16, Revision A.03,
 Gaussian 16:  EM64L-G16RevA.03 25-Dec-2016

 -------------
 #p 6-31g* mp2
 -------------

 ------------------------------------------------------
 Input file generated by CHIRIPA (05-May-2021 14:55:20)
 ------------------------------------------------------
 Symbolic Z-matrix:
 Charge =  0 Multiplicity = 1

                         Standard orientation:
 ---------------------------------------------------------------------
 Center     Atomic      Atomic             Coordinates (Angstroms)
 Number     Number       Type             X           Y           Z
 ---------------------------------------------------------------------
      1          6           0        2.234372   -2.749058    0.671101
      2          6           0        3.084650   -2.340593   -0.361714
      3          6           0        3.180270   -0.990123   -0.710478
      4          6           0        2.407813   -0.070855   -0.002277
      5          6           0        1.551488   -0.446649    1.031539
      6          6           0        1.471850   -1.802451    1.363211
      7          1           0        2.166300   -3.800206    0.935390
      8          1           0        3.678013   -3.073533   -0.900939
      9          1           0        3.830433   -0.646399   -1.505814
     10          1           0        0.972407    0.307235    1.550905
     11          1           0        0.810665   -2.116788    2.165752
     12          7           0        2.500583    1.361649   -0.362451
     13          8           0        1.809568    2.151893    0.276807
     14          8           0        3.262553    1.667077   -1.277192
     15          6           0       -3.169684   -0.239231   -0.488211
     16          6           0       -4.315539   -1.113173    0.022891
     17          6           0       -4.517749   -2.374078   -0.817958
     18          1           0       -3.368662    0.041998   -1.531409
     19          1           0       -2.242694   -0.829179   -0.494893
     20          1           0       -5.239824   -0.521341    0.029915
     21          1           0       -4.113905   -1.392197    1.065054
     22          1           0       -3.611331   -2.988084   -0.815701
     23          1           0       -4.743647   -2.112279   -1.856723
     24          1           0       -5.341744   -2.984162   -0.434960
     25          6           0       -2.955177    1.025021    0.342077
     26          6           0       -1.809322    1.898964   -0.169025
     27          6           0       -1.607112    3.159868    0.671824
     28          1           0       -3.882168    1.614969    0.348759
     29          1           0       -2.756199    0.743792    1.385275
     30          1           0       -2.010956    2.177987   -1.211188
     31          1           0       -0.885037    1.307131   -0.176048
     32          1           0       -1.381214    2.898069    1.710589
     33          1           0       -2.513530    3.773874    0.669566
     34          1           0       -0.783117    3.769952    0.288826
 ---------------------------------------------------------------------

 SCF Done:  E(RHF) =  -669.535880229     A.U. after   15 cycles
 E2 =    -0.2092861173D+01 EUMP2 =    -0.67162874140275D+03

 The electronic state is 1-A.
 Alpha  occ. eigenvalues --  -20.60959 -20.60946 -15.85972 -11.31317 -11.27879
 Alpha  occ. eigenvalues --  -11.27870 -11.27611 -11.26891 -11.26878 -11.21646
 Alpha  occ. eigenvalues --  -11.21301 -11.21185 -11.21121 -11.20937 -11.20139
 Alpha  occ. eigenvalues --   -1.60009  -1.39566  -1.19484  -1.08883  -1.08216
 Alpha  occ. eigenvalues --   -1.04882  -1.03203  -0.95748  -0.95622  -0.86673
 Alpha  occ. eigenvalues --   -0.86280  -0.82555  -0.79311  -0.78009  -0.77595
 Alpha  occ. eigenvalues --   -0.72207  -0.71324  -0.70589  -0.65147  -0.64955
 Alpha  occ. eigenvalues --   -0.64798  -0.62239  -0.60604  -0.59050  -0.57210
 Alpha  occ. eigenvalues --   -0.55382  -0.54968  -0.53210  -0.52970  -0.52285
 Alpha  occ. eigenvalues --   -0.52072  -0.49643  -0.48983  -0.48949  -0.47593
 Alpha  occ. eigenvalues --   -0.46404  -0.45614  -0.45521  -0.44746  -0.43454
 Alpha  occ. eigenvalues --   -0.37455  -0.36472
 Alpha virt. eigenvalues --    0.04890   0.11068   0.16363   0.20708   0.22917
 Alpha virt. eigenvalues --    0.24159   0.26498   0.27550   0.27625   0.28019
 Alpha virt. eigenvalues --    0.28904   0.30621   0.31519   0.31931   0.32573

 Mulliken charges:
               1
     1  C   -0.170586
     2  C   -0.218300
     3  C   -0.170594
     4  C    0.158910
     5  C   -0.172379
     6  C   -0.219390
     7  H    0.226210
     8  H    0.224038
     9  H    0.275986
    10  H    0.277470
    11  H    0.224157
    12  N    0.489718
    13  O   -0.459807
    14  O   -0.458727
    15  C   -0.297904
    16  C   -0.298772
    17  C   -0.475136
    18  H    0.151197
    19  H    0.145782
    20  H    0.153206
    21  H    0.148259
    22  H    0.152206
    23  H    0.156443
    24  H    0.159532
    25  C   -0.297597
    26  C   -0.302544
    27  C   -0.473123
    28  H    0.149741
    29  H    0.142176
    30  H    0.151726
    31  H    0.152851
    32  H    0.147838
    33  H    0.148268
    34  H    0.179146
 Sum of Mulliken charges =  -0.00000

 Dipole moment (field-independent basis, Debye):
    X=             -0.0868    Y=             -4.9394    Z=              1.1898  Tot=              5.0814
 Quadrupole moment (field-independent basis, Debye-Ang):
   XX=            -94.5822   YY=            -94.6219   ZZ=            -92.6274
   XY=            -13.7084   XZ=              0.7531   YZ=             -0.1457

 Normal termination of Gaussian 16 at Wed May  5 22:09:16 2021.
