 Gaussian 16, Revision A.03,
 Gaussian 16:  EM64L-G16RevA.03 25-Dec-2016

 -------------
 #p 6-31g* mp2
 -------------

 ------------------------------------------------------
 Input file generated by CHIRIPA (05-May-2021 14:51:11)
 ------------------------------------------------------
 Symbolic Z-matrix:
 Charge =  0 Multiplicity = 1

                         Standard orientation:
 ---------------------------------------------------------------------
 Center     Atomic      Atomic             Coordinates (Angstroms)
 Number     Number       Type             X           Y           Z
 ---------------------------------------------------------------------
      1          6           0        2.059110   -0.751896   -0.422578
      2          6           0        1.807406   -2.259569   -0.383179
      3          6           0        0.441280   -2.645863   -0.950867
      4          1           0        1.267817   -0.239609    0.141658
      5          1           0        1.979918   -0.400984   -1.460838
      6          1           0        1.888417   -2.607764    0.654517
      7          1           0        2.599497   -2.768340   -0.947412
      8          1           0        0.353324   -2.326236   -1.994276
      9          1           0       -0.361797   -2.164747   -0.383244
     10          1           0        0.282223   -3.728049   -0.912993
     11          6           0        3.420735   -0.350074    0.141556
     12          6           0        3.672439    1.157599    0.102157
     13          6           0        5.038565    1.543893    0.669845
     14          1           0        3.499928   -0.700986    1.179816
     15          1           0        4.212028   -0.862362   -0.422680
     16          1           0        2.880348    1.666370    0.666391
     17          1           0        3.591429    1.505794   -0.935539
     18          1           0        5.841642    1.062777    0.102222
     19          1           0        5.126521    1.224266    1.713254
     20          1           0        5.197622    2.626079    0.631971
     21          6           0       -2.804762    1.154804   -0.322772
     22          6           0       -2.238230    2.442430    0.276431
     23          6           0       -2.375282    3.641543   -0.662259
     24          1           0       -2.290627    0.941467   -1.269924
     25          1           0       -3.864255    1.308859   -0.570037
     26          1           0       -1.180482    2.285554    0.523770
     27          1           0       -2.753642    2.652623    1.222363
     28          1           0       -3.427861    3.826323   -0.900026
     29          1           0       -1.845764    3.457168   -1.602588
     30          1           0       -1.963947    4.551350   -0.214024
     31          6           0       -2.675083   -0.052833    0.603794
     32          6           0       -3.241615   -1.340460    0.004591
     33          6           0       -3.104563   -2.539573    0.943281
     34          1           0       -1.615591   -0.206888    0.851059
     35          1           0       -3.189219    0.160504    1.550946
     36          1           0       -2.726204   -1.550653   -0.941340
     37          1           0       -4.299363   -1.183585   -0.242747
     38          1           0       -3.634081   -2.355198    1.883610
     39          1           0       -2.051984   -2.724352    1.181049
     40          1           0       -3.515898   -3.449379    0.495047
 ---------------------------------------------------------------------

 SCF Done:  E(RHF) =  -470.732538770     A.U. after   11 cycles
 E2 =    -0.1584253025D+01 EUMP2 =    -0.47231679179541D+03

 The electronic state is 1-A.
 Alpha  occ. eigenvalues --  -11.21649 -11.21641 -11.21603 -11.21561 -11.21468
 Alpha  occ. eigenvalues --  -11.21415 -11.21403 -11.21350 -11.21098 -11.21067
 Alpha  occ. eigenvalues --  -11.21064 -11.21026  -1.08497  -1.08421  -1.03612
 Alpha  occ. eigenvalues --   -1.03489  -0.96057  -0.95941  -0.87049  -0.86983
 Alpha  occ. eigenvalues --   -0.79643  -0.79581  -0.78315  -0.78233  -0.65312
 Alpha  occ. eigenvalues --   -0.64928  -0.61282  -0.60682  -0.59397  -0.59330
 Alpha  occ. eigenvalues --   -0.57617  -0.57581  -0.55538  -0.55038  -0.52710
 Alpha  occ. eigenvalues --   -0.52655  -0.52462  -0.52359  -0.50032  -0.49833
 Alpha  occ. eigenvalues --   -0.48054  -0.47793  -0.46733  -0.46570  -0.46042
 Alpha  occ. eigenvalues --   -0.45819  -0.45706  -0.45446  -0.43828  -0.43776
 Alpha virt. eigenvalues --    0.19812   0.23000   0.23570   0.24728   0.25327
 Alpha virt. eigenvalues --    0.26512   0.27094   0.27808   0.28654   0.29866
 Alpha virt. eigenvalues --    0.30774   0.31281   0.31679   0.31735   0.32120

 Mulliken charges:
               1
     1  C   -0.300995
     2  C   -0.299691
     3  C   -0.485225
     4  H    0.150764
     5  H    0.149599
     6  H    0.151799
     7  H    0.152290
     8  H    0.154529
     9  H    0.166698
    10  H    0.160805
    11  C   -0.298250
    12  C   -0.299697
    13  C   -0.475749
    14  H    0.149760
    15  H    0.150028
    16  H    0.151759
    17  H    0.151985
    18  H    0.155269
    19  H    0.155317
    20  H    0.160437
    21  C   -0.297918
    22  C   -0.300011
    23  C   -0.475691
    24  H    0.150491
    25  H    0.149643
    26  H    0.151832
    27  H    0.151806
    28  H    0.155150
    29  H    0.155465
    30  H    0.160207
    31  C   -0.302372
    32  C   -0.304490
    33  C   -0.477464
    34  H    0.150812
    35  H    0.150028
    36  H    0.155468
    37  H    0.153264
    38  H    0.154878
    39  H    0.156855
    40  H    0.160617
 Sum of Mulliken charges =  -0.00000

 Dipole moment (field-independent basis, Debye):
    X=              0.0022    Y=             -0.0097    Z=             -0.0151  Tot=              0.0181
 Quadrupole moment (field-independent basis, Debye-Ang):
   XX=            -84.6375   YY=            -85.8213   ZZ=            -84.2202
   XY=             -0.6041   XZ=             -1.0868   YZ=              0.5541

 Normal termination of Gaussian 16 at Wed May  5 15:14:37 2021.
