 Gaussian 16, Revision A.03,
 Gaussian 16:  EM64L-G16RevA.03 25-Dec-2016

 -------------
 #p 6-31g* mp2
 -------------

 ------------------------------------------------------
 Input file generated by CHIRIPA (05-May-2021 14:51:14)
 ------------------------------------------------------
 Symbolic Z-matrix:
 Charge =  0 Multiplicity = 1

                         Standard orientation:
 ---------------------------------------------------------------------
 Center     Atomic      Atomic             Coordinates (Angstroms)
 Number     Number       Type             X           Y           Z
 ---------------------------------------------------------------------
      1          6           0       -3.049821    1.216906    0.188192
      2          6           0       -1.561543    1.566927    0.210493
      3          6           0       -1.277183    2.895579    0.911649
      4          1           0       -3.602171    2.023357   -0.313298
      5          1           0       -3.425170    1.175702    1.220089
      6          1           0       -1.188795    1.606099   -0.821078
      7          1           0       -1.012648    0.759460    0.711819
      8          1           0       -1.621999    2.864595    1.950274
      9          1           0       -1.799147    3.716045    0.408667
     10          1           0       -0.207308    3.126247    0.916109
     11          6           0       -3.350037   -0.108597   -0.509403
     12          6           0       -4.838315   -0.458619   -0.531704
     13          6           0       -5.122675   -1.787270   -1.232860
     14          1           0       -2.974688   -0.067393   -1.541299
     15          1           0       -2.797687   -0.915048   -0.007913
     16          1           0       -5.387210    0.348849   -1.033030
     17          1           0       -5.211063   -0.497790    0.499868
     18          1           0       -4.600711   -2.607736   -0.729878
     19          1           0       -4.777859   -1.756286   -2.271485
     20          1           0       -6.192550   -2.017938   -1.237320
     21          6           0        3.528983   -0.006995   -0.258647
     22          6           0        4.964850   -0.337310   -0.667506
     23          6           0        5.609679    0.766890   -1.505796
     24          1           0        2.928335    0.167842   -1.161751
     25          1           0        3.523749    0.934793    0.307395
     26          1           0        4.967546   -1.278910   -1.231419
     27          1           0        5.562104   -0.511570    0.236671
     28          1           0        5.636353    1.708413   -0.947743
     29          1           0        5.038417    0.936713   -2.424175
     30          1           0        6.635725    0.510055   -1.787090
     31          6           0        2.870874   -1.101314    0.579858
     32          6           0        1.435008   -0.770999    0.988717
     33          6           0        0.790179   -1.875198    1.827007
     34          1           0        2.876109   -2.043102    0.013816
     35          1           0        3.471523   -1.276151    1.482961
     36          1           0        0.837754   -0.596739    0.084540
     37          1           0        1.432312    0.170601    1.552630
     38          1           0        1.361441   -2.045022    2.745386
     39          1           0        0.763505   -2.816722    1.268954
     40          1           0       -0.235867   -1.618364    2.108300
 ---------------------------------------------------------------------

 SCF Done:  E(RHF) =  -470.732664534     A.U. after   11 cycles
 E2 =    -0.1583548939D+01 EUMP2 =    -0.47231621347373D+03

 The electronic state is 1-A.
 Alpha  occ. eigenvalues --  -11.21606 -11.21593 -11.21584 -11.21471 -11.21408
 Alpha  occ. eigenvalues --  -11.21382 -11.21349 -11.21311 -11.21137 -11.21076
 Alpha  occ. eigenvalues --  -11.21065 -11.21028  -1.08458  -1.08383  -1.03587
 Alpha  occ. eigenvalues --   -1.03462  -0.96008  -0.95948  -0.87018  -0.86965
 Alpha  occ. eigenvalues --   -0.79777  -0.79443  -0.78373  -0.78077  -0.65080
 Alpha  occ. eigenvalues --   -0.65031  -0.60954  -0.60919  -0.59489  -0.59209
 Alpha  occ. eigenvalues --   -0.57678  -0.57493  -0.55289  -0.55237  -0.52711
 Alpha  occ. eigenvalues --   -0.52632  -0.52429  -0.52375  -0.49950  -0.49889
 Alpha  occ. eigenvalues --   -0.48187  -0.47706  -0.46678  -0.46568  -0.46000
 Alpha  occ. eigenvalues --   -0.45753  -0.45666  -0.45342  -0.43802  -0.43741
 Alpha virt. eigenvalues --    0.21071   0.23047   0.23777   0.24456   0.26000
 Alpha virt. eigenvalues --    0.26117   0.26685   0.27506   0.28440   0.29229
 Alpha virt. eigenvalues --    0.31043   0.31220   0.31338   0.31775   0.32478

 Mulliken charges:
               1
     1  C   -0.297387
     2  C   -0.309378
     3  C   -0.475664
     4  H    0.149214
     5  H    0.148883
     6  H    0.150416
     7  H    0.166069
     8  H    0.154522
     9  H    0.154888
    10  H    0.160123
    11  C   -0.299282
    12  C   -0.299491
    13  C   -0.475732
    14  H    0.149155
    15  H    0.149834
    16  H    0.152036
    17  H    0.151917
    18  H    0.155249
    19  H    0.155035
    20  H    0.160239
    21  C   -0.298280
    22  C   -0.299665
    23  C   -0.475699
    24  H    0.149794
    25  H    0.149283
    26  H    0.151953
    27  H    0.151954
    28  H    0.155172
    29  H    0.155166
    30  H    0.160279
    31  C   -0.297301
    32  C   -0.304544
    33  C   -0.478316
    34  H    0.149465
    35  H    0.149379
    36  H    0.156507
    37  H    0.152519
    38  H    0.155809
    39  H    0.155789
    40  H    0.160088
 Sum of Mulliken charges =  -0.00000

 Dipole moment (field-independent basis, Debye):
    X=              0.0286    Y=             -0.0164    Z=             -0.0002  Tot=              0.0330
 Quadrupole moment (field-independent basis, Debye-Ang):
   XX=            -85.2921   YY=            -85.8117   ZZ=            -83.8671
   XY=             -0.6226   XZ=              0.5853   YZ=             -0.0717

 Normal termination of Gaussian 16 at Wed May  5 18:25:13 2021.
