 Gaussian 16, Revision A.03,
 Gaussian 16:  EM64L-G16RevA.03 25-Dec-2016

 -------------
 #p 6-31g* mp2
 -------------

 ------------------------------------------------------
 Input file generated by CHIRIPA (05-May-2021 14:53:12)
 ------------------------------------------------------
 Symbolic Z-matrix:
 Charge =  0 Multiplicity = 1

                         Standard orientation:
 ---------------------------------------------------------------------
 Center     Atomic      Atomic             Coordinates (Angstroms)
 Number     Number       Type             X           Y           Z
 ---------------------------------------------------------------------
      1          6           0       -3.105383    1.049506   -0.051558
      2          6           0       -1.776977    1.380284   -0.732667
      3          6           0       -1.104239    2.621213   -0.145033
      4          1           0       -3.780633    1.911469   -0.141010
      5          1           0       -2.931106    0.899152    1.022880
      6          1           0       -1.953487    1.528608   -1.805728
      7          1           0       -1.104879    0.517362   -0.641749
      8          1           0       -0.899459    2.479979    0.921137
      9          1           0       -1.752888    3.496971   -0.249455
     10          1           0       -0.156248    2.839443   -0.646578
     11          6           0       -3.789991   -0.188528   -0.628023
     12          6           0       -5.118396   -0.519307    0.053086
     13          6           0       -5.791134   -1.760235   -0.534548
     14          1           0       -3.964267   -0.038175   -1.702461
     15          1           0       -3.114740   -1.050492   -0.538570
     16          1           0       -5.790494    0.343615   -0.037832
     17          1           0       -4.941887   -0.667631    1.126147
     18          1           0       -5.142485   -2.635993   -0.430125
     19          1           0       -5.995914   -1.619002   -1.600718
     20          1           0       -6.739126   -1.978466   -0.033003
     21          6           0        4.564481   -0.303704   -1.426966
     22          6           0        3.926133   -1.507871   -1.112302
     23          6           0        2.888272   -1.537785   -0.176087
     24          6           0        2.512626   -0.339472    0.429079
     25          6           0        3.129168    0.876136    0.136743
     26          6           0        4.164666    0.882366   -0.802540
     27          1           0        5.369800   -0.289666   -2.155431
     28          1           0        4.234535   -2.430524   -1.595669
     29          1           0        2.376913   -2.456011    0.086197
     30          1           0        2.799615    1.779703    0.635121
     31          1           0        4.658616    1.819005   -1.044955
     32          7           0        1.415139   -0.358604    1.421831
     33          8           0        1.102873    0.710771    1.941025
     34          8           0        0.887977   -1.442613    1.661959
 ---------------------------------------------------------------------

 SCF Done:  E(RHF) =  -669.536220651     A.U. after   15 cycles
 E2 =    -0.2091904156D+01 EUMP2 =    -0.67162812480707D+03

 The electronic state is 1-A.
 Alpha  occ. eigenvalues --  -20.60958 -20.60939 -15.85980 -11.31280 -11.27841
 Alpha  occ. eigenvalues --  -11.27832 -11.27575 -11.26844 -11.26833 -11.20952
 Alpha  occ. eigenvalues --  -11.20857 -11.20661 -11.20534 -11.20529 -11.20134
 Alpha  occ. eigenvalues --   -1.60013  -1.39568  -1.19445  -1.08856  -1.07674
 Alpha  occ. eigenvalues --   -1.04838  -1.02801  -0.95704  -0.95238  -0.86264
 Alpha  occ. eigenvalues --   -0.86238  -0.82535  -0.78882  -0.77591  -0.77489
 Alpha  occ. eigenvalues --   -0.72210  -0.71339  -0.70554  -0.65104  -0.64842
 Alpha  occ. eigenvalues --   -0.64279  -0.62186  -0.60170  -0.58642  -0.56875
 Alpha  occ. eigenvalues --   -0.55345  -0.54493  -0.53169  -0.52931  -0.51977
 Alpha  occ. eigenvalues --   -0.51674  -0.49186  -0.48967  -0.48932  -0.47200
 Alpha  occ. eigenvalues --   -0.45923  -0.45060  -0.45005  -0.44806  -0.43065
 Alpha  occ. eigenvalues --   -0.37421  -0.36436
 Alpha virt. eigenvalues --    0.04911   0.11192   0.16381   0.21260   0.23567
 Alpha virt. eigenvalues --    0.24776   0.27126   0.27300   0.27967   0.28215
 Alpha virt. eigenvalues --    0.28999   0.30957   0.31815   0.32075   0.32495

 Mulliken charges:
               1
     1  C   -0.299370
     2  C   -0.296472
     3  C   -0.480607
     4  H    0.146159
     5  H    0.159491
     6  H    0.145957
     7  H    0.148771
     8  H    0.178464
     9  H    0.149074
    10  H    0.147883
    11  C   -0.298606
    12  C   -0.299602
    13  C   -0.475468
    14  H    0.145327
    15  H    0.152857
    16  H    0.149865
    17  H    0.155035
    18  H    0.155647
    19  H    0.152840
    20  H    0.158719
    21  C   -0.170447
    22  C   -0.218513
    23  C   -0.170848
    24  C    0.157658
    25  C   -0.170768
    26  C   -0.218688
    27  H    0.225987
    28  H    0.223787
    29  H    0.275672
    30  H    0.276907
    31  H    0.223913
    32  N    0.489353
    33  O   -0.459741
    34  O   -0.460233
 Sum of Mulliken charges =  -0.00000

 Dipole moment (field-independent basis, Debye):
    X=              4.0240    Y=              0.0028    Z=             -3.2951  Tot=              5.2010
 Quadrupole moment (field-independent basis, Debye-Ang):
   XX=            -76.4642   YY=            -90.6757   ZZ=            -98.1677
   XY=             -1.3577   XZ=             -7.6586   YZ=              1.6223

 Normal termination of Gaussian 16 at Wed May  5 18:30:32 2021.
