 Gaussian 16, Revision A.03,
 Gaussian 16:  EM64L-G16RevA.03 25-Dec-2016

 -------------
 #p 6-31g* mp2
 -------------

 ------------------------------------------------------
 Input file generated by CHIRIPA (05-May-2021 14:57:23)
 ------------------------------------------------------
 Symbolic Z-matrix:
 Charge =  0 Multiplicity = 1

                         Standard orientation:
 ---------------------------------------------------------------------
 Center     Atomic      Atomic             Coordinates (Angstroms)
 Number     Number       Type             X           Y           Z
 ---------------------------------------------------------------------
      1          6           0       -2.994624   -1.996317   -0.805073
      2          6           0       -3.888895   -1.208002   -0.073391
      3          6           0       -3.538763    0.088600    0.314912
      4          6           0       -2.280540    0.567248   -0.047111
      5          6           0       -1.367616   -0.193732   -0.775651
      6          6           0       -1.739052   -1.487563   -1.153254
      7          1           0       -3.274889   -3.002473   -1.102560
      8          1           0       -4.864661   -1.600495    0.198409
      9          1           0       -4.211720    0.720451    0.881755
     10          1           0       -0.402006    0.225043   -1.031858
     11          1           0       -1.042520   -2.097519   -1.721446
     12          7           0       -1.898594    1.938436    0.358304
     13          8           0       -0.784119    2.336893    0.026919
     14          8           0       -2.720931    2.588752    0.999777
     15          6           0        3.137573    1.754183   -1.045586
     16          6           0        3.108331    1.695563    0.351637
     17          6           0        2.670233    0.539689    1.004764
     18          6           0        2.266720   -0.543839    0.226026
     19          6           0        2.284313   -0.516145   -1.167607
     20          6           0        2.726196    0.650089   -1.799419
     21          1           0        3.479368    2.656118   -1.544672
     22          1           0        3.427223    2.551491    0.939633
     23          1           0        2.637409    0.467210    2.085081
     24          1           0        1.960235   -1.385465   -1.726781
     25          1           0        2.747840    0.692774   -2.884663
     26          7           0        1.800922   -1.772995    0.906179
     27          8           0        1.450653   -2.714002    0.197340
     28          8           0        1.794919   -1.772126    2.135244
 ---------------------------------------------------------------------

 SCF Done:  E(RHF) =  -868.338434954     A.U. after   16 cycles
 E2 =    -0.2603338354D+01 EUMP2 =    -0.87094177330855D+03

 The electronic state is 1-A.
 Alpha  occ. eigenvalues --  -20.61069 -20.61027 -20.60646 -20.60631 -15.86078
 Alpha  occ. eigenvalues --  -15.85677 -11.31270 -11.30813 -11.27893 -11.27709
 Alpha  occ. eigenvalues --  -11.27426 -11.27353 -11.27240 -11.27010 -11.26857
 Alpha  occ. eigenvalues --  -11.26653 -11.26341 -11.26259  -1.60111  -1.59717
 Alpha  occ. eigenvalues --   -1.39676  -1.39277  -1.19421  -1.18949  -1.08812
 Alpha  occ. eigenvalues --   -1.08384  -1.04808  -1.04317  -0.95696  -0.95266
 Alpha  occ. eigenvalues --   -0.86199  -0.85726  -0.82541  -0.82111  -0.77644
 Alpha  occ. eigenvalues --   -0.77190  -0.72311  -0.71922  -0.71441  -0.71028
 Alpha  occ. eigenvalues --   -0.70510  -0.70048  -0.65063  -0.64786  -0.64598
 Alpha  occ. eigenvalues --   -0.64332  -0.62185  -0.61687  -0.55243  -0.54855
 Alpha  occ. eigenvalues --   -0.53238  -0.52872  -0.52654  -0.52193  -0.49084
 Alpha  occ. eigenvalues --   -0.49036  -0.48673  -0.48646  -0.45114  -0.44736
 Alpha  occ. eigenvalues --   -0.37348  -0.36872  -0.36356  -0.35860
 Alpha virt. eigenvalues --    0.04831   0.05306   0.11181   0.11781   0.16384
 Alpha virt. eigenvalues --    0.16957   0.20849   0.22242   0.26023   0.27782
 Alpha virt. eigenvalues --    0.28812   0.29149   0.30411   0.31748   0.32576

 Mulliken charges:
               1
     1  C   -0.169563
     2  C   -0.218182
     3  C   -0.170843
     4  C    0.158455
     5  C   -0.186181
     6  C   -0.212803
     7  H    0.226853
     8  H    0.222630
     9  H    0.273739
    10  H    0.281186
    11  H    0.227026
    12  N    0.487784
    13  O   -0.465818
    14  O   -0.461288
    15  C   -0.163701
    16  C   -0.207363
    17  C   -0.165198
    18  C    0.162693
    19  C   -0.195591
    20  C   -0.214812
    21  H    0.228869
    22  H    0.228156
    23  H    0.277332
    24  H    0.268441
    25  H    0.223208
    26  N    0.490114
    27  O   -0.469134
    28  O   -0.456009
 Sum of Mulliken charges =  -0.00000

 Dipole moment (field-independent basis, Debye):
    X=              0.5323    Y=             -0.3198    Z=             -3.6471  Tot=              3.6996
 Quadrupole moment (field-independent basis, Debye-Ang):
   XX=            -87.3993   YY=           -114.8967   ZZ=           -101.5676
   XY=             20.5241   XZ=             -2.9495   YZ=              4.1513

 Normal termination of Gaussian 16 at Fri May  7 03:20:53 2021.
