 Gaussian 16, Revision A.03,
 Gaussian 16:  EM64L-G16RevA.03 25-Dec-2016

 -------------
 #p 6-31g* mp2
 -------------

 ------------------------------------------------------
 Input file generated by CHIRIPA (05-May-2021 14:55:20)
 ------------------------------------------------------
 Symbolic Z-matrix:
 Charge =  0 Multiplicity = 1

                         Standard orientation:
 ---------------------------------------------------------------------
 Center     Atomic      Atomic             Coordinates (Angstroms)
 Number     Number       Type             X           Y           Z
 ---------------------------------------------------------------------
      1          6           0       -4.505977    1.405002    0.314898
      2          6           0       -4.816133    0.127739   -0.163560
      3          6           0       -3.812366   -0.830938   -0.330709
      4          6           0       -2.503245   -0.476750   -0.008152
      5          6           0       -2.162558    0.787371    0.470618
      6          6           0       -3.182512    1.730169    0.629904
      7          1           0       -5.292015    2.143558    0.441689
      8          1           0       -5.843077   -0.127584   -0.409004
      9          1           0       -4.024533   -1.827207   -0.699288
     10          1           0       -1.129611    1.012441    0.706802
     11          1           0       -2.938712    2.721327    1.001672
     12          7           0       -1.432033   -1.483253   -0.180943
     13          8           0       -0.286496   -1.146351    0.110396
     14          8           0       -1.758238   -2.589994   -0.604443
     15          6           0        3.925872   -0.154995    0.152800
     16          6           0        3.320319   -1.557404    0.085439
     17          6           0        4.324343   -2.652780    0.445827
     18          1           0        4.788072   -0.101819   -0.525969
     19          1           0        4.314070    0.020942    1.165590
     20          1           0        2.932138   -1.730126   -0.926538
     21          1           0        2.459343   -1.607191    0.764306
     22          1           0        4.703695   -2.508274    1.462592
     23          1           0        5.179177   -2.631908   -0.237858
     24          1           0        3.870439   -3.647189    0.391206
     25          6           0        2.934401    0.950812   -0.204835
     26          6           0        3.539953    2.353222   -0.137475
     27          6           0        2.535929    3.448598   -0.497863
     28          1           0        2.546203    0.774875   -1.217626
     29          1           0        2.072200    0.897637    0.473934
     30          1           0        4.400930    2.403008   -0.816341
     31          1           0        3.928134    2.525944    0.874503
     32          1           0        1.681096    3.427727    0.185823
     33          1           0        2.156576    3.304092   -1.514628
     34          1           0        2.989834    4.443006   -0.443242
 ---------------------------------------------------------------------

 SCF Done:  E(RHF) =  -669.535818910     A.U. after   15 cycles
 E2 =    -0.2091854207D+01 EUMP2 =    -0.67162767311694D+03

 The electronic state is 1-A.
 Alpha  occ. eigenvalues --  -20.60914 -20.60908 -15.85949 -11.31272 -11.27838
 Alpha  occ. eigenvalues --  -11.27834 -11.27575 -11.26845 -11.26835 -11.21126
 Alpha  occ. eigenvalues --  -11.20921 -11.20541 -11.20378 -11.20044 -11.19898
 Alpha  occ. eigenvalues --   -1.59978  -1.39534  -1.19442  -1.08846  -1.07537
 Alpha  occ. eigenvalues --   -1.04839  -1.02667  -0.95688  -0.95188  -0.86242
 Alpha  occ. eigenvalues --   -0.86216  -0.82527  -0.78750  -0.77624  -0.77170
 Alpha  occ. eigenvalues --   -0.72164  -0.71292  -0.70551  -0.65100  -0.64842
 Alpha  occ. eigenvalues --   -0.64182  -0.62187  -0.60076  -0.58596  -0.56739
 Alpha  occ. eigenvalues --   -0.55343  -0.54513  -0.53170  -0.52931  -0.51915
 Alpha  occ. eigenvalues --   -0.51602  -0.49204  -0.48944  -0.48927  -0.47022
 Alpha  occ. eigenvalues --   -0.45787  -0.45004  -0.44710  -0.44617  -0.42908
 Alpha  occ. eigenvalues --   -0.37421  -0.36440
 Alpha virt. eigenvalues --    0.04948   0.11214   0.16441   0.20630   0.23195
 Alpha virt. eigenvalues --    0.24800   0.25971   0.27534   0.27895   0.28658
 Alpha virt. eigenvalues --    0.29361   0.31156   0.31765   0.32365   0.32627

 Mulliken charges:
               1
     1  C   -0.170484
     2  C   -0.218714
     3  C   -0.170406
     4  C    0.157081
     5  C   -0.171364
     6  C   -0.219029
     7  H    0.225963
     8  H    0.223713
     9  H    0.275736
    10  H    0.277219
    11  H    0.224082
    12  N    0.493559
    13  O   -0.464887
    14  O   -0.459390
    15  C   -0.299254
    16  C   -0.300433
    17  C   -0.476296
    18  H    0.144856
    19  H    0.144459
    20  H    0.155188
    21  H    0.171840
    22  H    0.149825
    23  H    0.149481
    24  H    0.161707
    25  C   -0.297587
    26  C   -0.299296
    27  C   -0.473408
    28  H    0.151017
    29  H    0.153712
    30  H    0.151337
    31  H    0.149798
    32  H    0.146176
    33  H    0.155198
    34  H    0.158601
 Sum of Mulliken charges =  -0.00000

 Dipole moment (field-independent basis, Debye):
    X=             -4.0417    Y=              3.3882    Z=              0.5839  Tot=              5.3062
 Quadrupole moment (field-independent basis, Debye-Ang):
   XX=            -75.3451   YY=            -97.6484   ZZ=            -94.1802
   XY=             -4.2642   XZ=             -0.7649   YZ=              1.2882

 Normal termination of Gaussian 16 at Thu May  6 15:48:25 2021.
