 Gaussian 16, Revision A.03,
 Gaussian 16:  EM64L-G16RevA.03 25-Dec-2016

 -------------
 #p 6-31g* mp2
 -------------

 ------------------------------------------------------
 Input file generated by CHIRIPA (05-May-2021 14:55:23)
 ------------------------------------------------------
 Symbolic Z-matrix:
 Charge =  0 Multiplicity = 1

                         Standard orientation:
 ---------------------------------------------------------------------
 Center     Atomic      Atomic             Coordinates (Angstroms)
 Number     Number       Type             X           Y           Z
 ---------------------------------------------------------------------
      1          6           0       -1.685259    1.718322    1.166132
      2          6           0       -2.571444    0.989262    1.965924
      3          6           0       -3.402960    0.017799    1.400778
      4          6           0       -3.321780   -0.199669    0.026221
      5          6           0       -2.449251    0.510320   -0.797125
      6          6           0       -1.627094    1.476950   -0.210414
      7          1           0       -1.042953    2.471101    1.613527
      8          1           0       -2.618765    1.174586    3.035252
      9          1           0       -4.098190   -0.561079    1.996574
     10          1           0       -2.424717    0.303147   -1.860091
     11          1           0       -0.939833    2.041632   -0.833993
     12          7           0       -4.197115   -1.225555   -0.583489
     13          8           0       -4.106485   -1.398207   -1.797002
     14          8           0       -4.957258   -1.837569    0.163679
     15          6           0        3.615956    0.428868   -0.639595
     16          6           0        3.267964    1.830323   -0.136794
     17          6           0        2.364584    2.597537   -1.102756
     18          1           0        4.107948    0.509135   -1.618597
     19          1           0        2.687486   -0.135975   -0.801749
     20          1           0        4.196866    2.391893    0.025680
     21          1           0        2.776915    1.746721    0.841212
     22          1           0        1.422487    2.061606   -1.257132
     23          1           0        2.850506    2.710443   -2.077298
     24          1           0        2.128321    3.596706   -0.723674
     25          6           0        4.518482   -0.350556    0.315220
     26          6           0        4.866473   -1.752011   -0.187580
     27          6           0        5.769854   -2.519225    0.778381
     28          1           0        5.446951    0.214286    0.477373
     29          1           0        4.026489   -0.430823    1.294223
     30          1           0        5.357523   -1.668409   -1.165587
     31          1           0        3.937571   -2.313580   -0.350055
     32          1           0        5.283932   -2.632131    1.752923
     33          1           0        6.711950   -1.983294    0.932757
     34          1           0        6.006117   -3.518394    0.399300
 ---------------------------------------------------------------------

 SCF Done:  E(RHF) =  -669.535557017     A.U. after   15 cycles
 E2 =    -0.2090968314D+01 EUMP2 =    -0.67162652533093D+03

 The electronic state is 1-A.
 Alpha  occ. eigenvalues --  -20.60767 -20.60761 -15.85820 -11.31190 -11.27764
 Alpha  occ. eigenvalues --  -11.27754 -11.27501 -11.26776 -11.26738 -11.22388
 Alpha  occ. eigenvalues --  -11.22096 -11.21955 -11.21923 -11.21810 -11.21332
 Alpha  occ. eigenvalues --   -1.59842  -1.39395  -1.19363  -1.08976  -1.08755
 Alpha  occ. eigenvalues --   -1.04768  -1.04110  -0.96573  -0.95590  -0.87598
 Alpha  occ. eigenvalues --   -0.86162  -0.82423  -0.80184  -0.78749  -0.77471
 Alpha  occ. eigenvalues --   -0.72038  -0.71166  -0.70467  -0.65625  -0.65013
 Alpha  occ. eigenvalues --   -0.64780  -0.62165  -0.61466  -0.59961  -0.58161
 Alpha  occ. eigenvalues --   -0.55885  -0.55255  -0.53293  -0.53113  -0.53051
 Alpha  occ. eigenvalues --   -0.52775  -0.50497  -0.48799  -0.48793  -0.48487
 Alpha  occ. eigenvalues --   -0.47201  -0.46301  -0.46196  -0.44800  -0.44346
 Alpha  occ. eigenvalues --   -0.37342  -0.36368
 Alpha virt. eigenvalues --    0.05063   0.11205   0.16523   0.20141   0.22637
 Alpha virt. eigenvalues --    0.23916   0.25534   0.26310   0.27060   0.28103
 Alpha virt. eigenvalues --    0.28915   0.29933   0.31041   0.31452   0.31979

 Mulliken charges:
               1
     1  C   -0.172381
     2  C   -0.218645
     3  C   -0.170976
     4  C    0.158668
     5  C   -0.172108
     6  C   -0.223446
     7  H    0.226156
     8  H    0.223365
     9  H    0.275609
    10  H    0.275818
    11  H    0.230828
    12  N    0.488057
    13  O   -0.460363
    14  O   -0.460488
    15  C   -0.299290
    16  C   -0.298593
    17  C   -0.481541
    18  H    0.151428
    19  H    0.151039
    20  H    0.155050
    21  H    0.149074
    22  H    0.149613
    23  H    0.161092
    24  H    0.158499
    25  C   -0.298614
    26  C   -0.300361
    27  C   -0.476012
    28  H    0.150075
    29  H    0.149460
    30  H    0.152757
    31  H    0.153652
    32  H    0.155338
    33  H    0.155249
    34  H    0.161992
 Sum of Mulliken charges =  -0.00000

 Dipole moment (field-independent basis, Debye):
    X=              3.2376    Y=              3.5707    Z=              2.1440  Tot=              5.2753
 Quadrupole moment (field-independent basis, Debye-Ang):
   XX=           -114.3595   YY=            -97.0611   ZZ=            -90.8012
   XY=            -11.5314   XZ=            -10.0429   YZ=             -1.1285

 Normal termination of Gaussian 16 at Thu May  6 14:18:36 2021.
