 Gaussian 16, Revision A.03,
 Gaussian 16:  EM64L-G16RevA.03 25-Dec-2016

 -------------
 #p 6-31g* mp2
 -------------

 ------------------------------------------------------
 Input file generated by CHIRIPA (05-May-2021 14:53:15)
 ------------------------------------------------------
 Symbolic Z-matrix:
 Charge =  0 Multiplicity = 1

                         Standard orientation:
 ---------------------------------------------------------------------
 Center     Atomic      Atomic             Coordinates (Angstroms)
 Number     Number       Type             X           Y           Z
 ---------------------------------------------------------------------
      1          6           0        2.823894    0.955885   -0.186062
      2          6           0        2.459153    1.838788    1.007852
      3          6           0        1.434940    2.917569    0.654281
      4          1           0        3.218333    1.587286   -0.993958
      5          1           0        1.911757    0.483138   -0.575820
      6          1           0        3.371902    2.308644    1.396103
      7          1           0        2.065715    1.205189    1.813070
      8          1           0        0.508623    2.463839    0.287312
      9          1           0        1.822231    3.573563   -0.132025
     10          1           0        1.188588    3.537148    1.522206
     11          6           0        3.846791   -0.127343    0.151619
     12          6           0        4.211532   -1.010246   -1.042295
     13          6           0        5.235746   -2.089027   -0.688724
     14          1           0        4.758928    0.345403    0.541377
     15          1           0        3.452352   -0.758744    0.959514
     16          1           0        4.604970   -0.376648   -1.847513
     17          1           0        3.298783   -1.480103   -1.430546
     18          1           0        4.848454   -2.745022    0.097582
     19          1           0        6.162062   -1.635297   -0.321755
     20          1           0        5.482097   -2.708606   -1.556649
     21          6           0       -2.255344   -2.630366    0.973768
     22          6           0       -1.680058   -1.517962    1.596764
     23          6           0       -1.867541   -0.235163    1.073483
     24          6           0       -2.639611   -0.100644   -0.079386
     25          6           0       -3.225865   -1.189388   -0.722993
     26          6           0       -3.025054   -2.462825   -0.182084
     27          1           0       -2.104525   -3.623239    1.387113
     28          1           0       -1.081811   -1.645080    2.494532
     29          1           0       -1.433719    0.643293    1.535577
     30          1           0       -3.817173   -1.031088   -1.616703
     31          1           0       -3.473039   -3.324922   -0.668030
     32          7           0       -2.845147    1.252442   -0.642692
     33          8           0       -3.529609    1.344289   -1.659407
     34          8           0       -2.317891    2.195523   -0.056827
 ---------------------------------------------------------------------

 SCF Done:  E(RHF) =  -669.536085160     A.U. after   15 cycles
 E2 =    -0.2091617192D+01 EUMP2 =    -0.67162770235185D+03

 The electronic state is 1-A.
 Alpha  occ. eigenvalues --  -20.60937 -20.60928 -15.85959 -11.31296 -11.27857
 Alpha  occ. eigenvalues --  -11.27854 -11.27596 -11.26871 -11.26862 -11.21656
 Alpha  occ. eigenvalues --  -11.21433 -11.21414 -11.21263 -11.21183 -11.20431
 Alpha  occ. eigenvalues --   -1.59993  -1.39549  -1.19465  -1.08867  -1.08372
 Alpha  occ. eigenvalues --   -1.04862  -1.03411  -0.95833  -0.95699  -0.86831
 Alpha  occ. eigenvalues --   -0.86262  -0.82538  -0.79475  -0.78181  -0.77589
 Alpha  occ. eigenvalues --   -0.72182  -0.71306  -0.70570  -0.65122  -0.65024
 Alpha  occ. eigenvalues --   -0.64855  -0.62216  -0.60808  -0.59225  -0.57442
 Alpha  occ. eigenvalues --   -0.55368  -0.55107  -0.53194  -0.52950  -0.52502
 Alpha  occ. eigenvalues --   -0.52235  -0.49784  -0.48939  -0.48925  -0.47777
 Alpha  occ. eigenvalues --   -0.46539  -0.45723  -0.45672  -0.44861  -0.43671
 Alpha  occ. eigenvalues --   -0.37444  -0.36463
 Alpha virt. eigenvalues --    0.04892   0.11144   0.16377   0.20762   0.22846
 Alpha virt. eigenvalues --    0.24034   0.26421   0.27333   0.27567   0.27732
 Alpha virt. eigenvalues --    0.28852   0.30744   0.31502   0.31914   0.32021

 Mulliken charges:
               1
     1  C   -0.297914
     2  C   -0.299331
     3  C   -0.484528
     4  H    0.151988
     5  H    0.148605
     6  H    0.151139
     7  H    0.141685
     8  H    0.172293
     9  H    0.156196
    10  H    0.158867
    11  C   -0.297119
    12  C   -0.299546
    13  C   -0.475362
    14  H    0.149948
    15  H    0.145026
    16  H    0.153501
    17  H    0.151111
    18  H    0.152795
    19  H    0.155750
    20  H    0.160194
    21  C   -0.170649
    22  C   -0.218892
    23  C   -0.172990
    24  C    0.158016
    25  C   -0.170815
    26  C   -0.218514
    27  H    0.226053
    28  H    0.224022
    29  H    0.278519
    30  H    0.275888
    31  H    0.223899
    32  N    0.488587
    33  O   -0.458665
    34  O   -0.459757
 Sum of Mulliken charges =  -0.00000

 Dipole moment (field-independent basis, Debye):
    X=              0.5723    Y=             -4.7178    Z=              1.8864  Tot=              5.1131
 Quadrupole moment (field-independent basis, Debye-Ang):
   XX=            -97.7149   YY=            -93.6211   ZZ=            -92.8021
   XY=             15.0645   XZ=             -3.3997   YZ=              1.5449

 Normal termination of Gaussian 16 at Wed May  5 23:31:36 2021.
