 Gaussian 16, Revision A.03,
 Gaussian 16:  EM64L-G16RevA.03 25-Dec-2016

 -------------
 #p 6-31g* mp2
 -------------

 ------------------------------------------------------
 Input file generated by CHIRIPA (05-May-2021 14:55:25)
 ------------------------------------------------------
 Symbolic Z-matrix:
 Charge =  0 Multiplicity = 1

                         Standard orientation:
 ---------------------------------------------------------------------
 Center     Atomic      Atomic             Coordinates (Angstroms)
 Number     Number       Type             X           Y           Z
 ---------------------------------------------------------------------
      1          6           0        2.983396   -2.737885    0.411930
      2          6           0        1.831105   -2.210797   -0.180459
      3          6           0        1.745698   -0.847380   -0.477691
      4          6           0        2.836223   -0.036266   -0.167627
      5          6           0        3.997915   -0.531537    0.422686
      6          6           0        4.061223   -1.898053    0.711084
      7          1           0        3.041159   -3.798224    0.639396
      8          1           0        0.992510   -2.860650   -0.413896
      9          1           0        0.865664   -0.412961   -0.936210
     10          1           0        4.817632    0.141249    0.643684
     11          1           0        4.957369   -2.304633    1.171151
     12          7           0        2.757504    1.408763   -0.477618
     13          8           0        3.731965    2.102265   -0.194569
     14          8           0        1.722833    1.820512   -0.997767
     15          6           0       -3.140597    0.870462   -0.090518
     16          6           0       -2.755042    1.884100    0.987382
     17          6           0       -1.741276    2.916268    0.492709
     18          1           0       -2.235315    0.357576   -0.443162
     19          1           0       -3.553894    1.405896   -0.956481
     20          1           0       -2.343876    1.346813    1.851604
     21          1           0       -3.661372    2.394498    1.337636
     22          1           0       -2.145993    3.477968   -0.355406
     23          1           0       -0.821011    2.424332    0.161482
     24          1           0       -1.479723    3.631018    1.279210
     25          6           0       -4.153347   -0.167936    0.388852
     26          6           0       -4.538902   -1.181574   -0.689048
     27          6           0       -5.552667   -2.213742   -0.194375
     28          1           0       -3.740050   -0.703370    1.254815
     29          1           0       -5.058629    0.344951    0.741496
     30          1           0       -3.632572   -1.691971   -1.039303
     31          1           0       -4.950068   -0.644287   -1.553271
     32          1           0       -6.472932   -1.721804    0.136852
     33          1           0       -5.147950   -2.775441    0.653740
     34          1           0       -5.814220   -2.928491   -0.980876
 ---------------------------------------------------------------------

 SCF Done:  E(RHF) =  -669.536097720     A.U. after   15 cycles
 E2 =    -0.2091335579D+01 EUMP2 =    -0.67162743329900D+03

 The electronic state is 1-A.
 Alpha  occ. eigenvalues --  -20.60943 -20.60932 -15.85966 -11.31293 -11.27862
 Alpha  occ. eigenvalues --  -11.27853 -11.27593 -11.26867 -11.26857 -11.21720
 Alpha  occ. eigenvalues --  -11.21370 -11.21236 -11.21212 -11.21146 -11.20113
 Alpha  occ. eigenvalues --   -1.59996  -1.39553  -1.19462  -1.08865  -1.08302
 Alpha  occ. eigenvalues --   -1.04860  -1.03294  -0.95732  -0.95687  -0.86721
 Alpha  occ. eigenvalues --   -0.86260  -0.82540  -0.79383  -0.78091  -0.77589
 Alpha  occ. eigenvalues --   -0.72190  -0.71307  -0.70572  -0.65120  -0.64955
 Alpha  occ. eigenvalues --   -0.64856  -0.62210  -0.60694  -0.59144  -0.57319
 Alpha  occ. eigenvalues --   -0.55363  -0.54994  -0.53191  -0.52953  -0.52389
 Alpha  occ. eigenvalues --   -0.52118  -0.49665  -0.48950  -0.48938  -0.47672
 Alpha  occ. eigenvalues --   -0.46455  -0.45644  -0.45563  -0.44856  -0.43571
 Alpha  occ. eigenvalues --   -0.37440  -0.36461
 Alpha virt. eigenvalues --    0.04893   0.11181   0.16362   0.20353   0.22818
 Alpha virt. eigenvalues --    0.24098   0.25578   0.27215   0.27622   0.28381
 Alpha virt. eigenvalues --    0.29144   0.30378   0.31554   0.31867   0.32210

 Mulliken charges:
               1
     1  C   -0.170563
     2  C   -0.218815
     3  C   -0.172952
     4  C    0.158312
     5  C   -0.170654
     6  C   -0.218574
     7  H    0.226042
     8  H    0.223869
     9  H    0.277553
    10  H    0.275885
    11  H    0.223864
    12  N    0.489517
    13  O   -0.458448
    14  O   -0.460874
    15  C   -0.296029
    16  C   -0.300149
    17  C   -0.484228
    18  H    0.142450
    19  H    0.151696
    20  H    0.148111
    21  H    0.150005
    22  H    0.154149
    23  H    0.175541
    24  H    0.158610
    25  C   -0.298129
    26  C   -0.298141
    27  C   -0.475488
    28  H    0.147145
    29  H    0.151001
    30  H    0.145891
    31  H    0.153711
    32  H    0.156635
    33  H    0.153527
    34  H    0.159532
 Sum of Mulliken charges =  -0.00000

 Dipole moment (field-independent basis, Debye):
    X=              0.4481    Y=             -5.0186    Z=              1.0609  Tot=              5.1490
 Quadrupole moment (field-independent basis, Debye-Ang):
   XX=            -88.9673   YY=            -95.0944   ZZ=            -95.3044
   XY=            -15.0643   XZ=              5.6203   YZ=              0.8896

 Normal termination of Gaussian 16 at Thu May  6 14:25:24 2021.
