 Gaussian 16, Revision A.03,
 Gaussian 16:  EM64L-G16RevA.03 25-Dec-2016

 -------------
 #p 6-31g* mp2
 -------------

 ------------------------------------------------------
 Input file generated by CHIRIPA (05-May-2021 14:57:21)
 ------------------------------------------------------
 Symbolic Z-matrix:
 Charge =  0 Multiplicity = 1

                         Standard orientation:
 ---------------------------------------------------------------------
 Center     Atomic      Atomic             Coordinates (Angstroms)
 Number     Number       Type             X           Y           Z
 ---------------------------------------------------------------------
      1          6           0        3.182469    2.511313    0.014903
      2          6           0        2.154032    1.662204   -0.406821
      3          6           0        2.367705    0.284330   -0.508582
      4          6           0        3.627763   -0.212714   -0.179201
      5          6           0        4.672496    0.607462    0.244040
      6          6           0        4.436208    1.982166    0.338417
      7          1           0        3.007699    3.580447    0.091086
      8          1           0        1.179351    2.070357   -0.658719
      9          1           0        1.589238   -0.395799   -0.832360
     10          1           0        5.633458    0.171202    0.488268
     11          1           0        5.236763    2.639208    0.666217
     12          7           0        3.865940   -1.669729   -0.283023
     13          8           0        4.985042   -2.082811    0.012968
     14          8           0        2.929010   -2.371067   -0.658423
     15          6           0       -1.169401    0.084668    0.870100
     16          6           0       -1.885148   -1.108913    1.010068
     17          6           0       -3.225981   -1.182539    0.621104
     18          6           0       -3.822379   -0.038255    0.093643
     19          6           0       -3.135913    1.165468   -0.058359
     20          6           0       -1.795963    1.216054    0.337272
     21          1           0       -0.128152    0.132913    1.174847
     22          1           0       -1.401128   -1.989140    1.423555
     23          1           0       -3.803603   -2.093750    0.718393
     24          1           0       -3.645560    2.026301   -0.473863
     25          1           0       -1.242569    2.144349    0.227411
     26          7           0       -5.241391   -0.104005   -0.321665
     27          8           0       -5.743894    0.918142   -0.783557
     28          8           0       -5.824241   -1.176440   -0.177429
 ---------------------------------------------------------------------

 SCF Done:  E(RHF) =  -868.336959044     A.U. after   16 cycles
 E2 =    -0.2601406488D+01 EUMP2 =    -0.87093836553171D+03

 The electronic state is 1-A.
 Alpha  occ. eigenvalues --  -20.61602 -20.61583 -20.61034 -20.61021 -15.86655
 Alpha  occ. eigenvalues --  -15.86088 -11.32145 -11.31555 -11.28755 -11.28692
 Alpha  occ. eigenvalues --  -11.28481 -11.28196 -11.28078 -11.27865 -11.27839
 Alpha  occ. eigenvalues --  -11.27700 -11.27313 -11.27073  -1.60671  -1.60103
 Alpha  occ. eigenvalues --   -1.40220  -1.39654  -1.20343  -1.19744  -1.09701
 Alpha  occ. eigenvalues --   -1.09130  -1.05771  -1.05161  -0.96515  -0.95938
 Alpha  occ. eigenvalues --   -0.87159  -0.86559  -0.83354  -0.82764  -0.78392
 Alpha  occ. eigenvalues --   -0.77791  -0.72867  -0.72304  -0.72004  -0.71465
 Alpha  occ. eigenvalues --   -0.71427  -0.70809  -0.65985  -0.65863  -0.65382
 Alpha  occ. eigenvalues --   -0.65146  -0.63091  -0.62472  -0.56232  -0.55726
 Alpha  occ. eigenvalues --   -0.54028  -0.53852  -0.53474  -0.53221  -0.49636
 Alpha  occ. eigenvalues --   -0.49615  -0.49071  -0.49051  -0.45599  -0.45036
 Alpha  occ. eigenvalues --   -0.38311  -0.37800  -0.37315  -0.36761
 Alpha virt. eigenvalues --    0.04090   0.04742   0.10208   0.10778   0.15441
 Alpha virt. eigenvalues --    0.16134   0.19159   0.22010   0.24880   0.27129
 Alpha virt. eigenvalues --    0.27854   0.28912   0.29580   0.31221   0.31717

 Mulliken charges:
               1
     1  C   -0.170380
     2  C   -0.226287
     3  C   -0.181184
     4  C    0.159499
     5  C   -0.169545
     6  C   -0.217938
     7  H    0.228253
     8  H    0.223302
     9  H    0.279483
    10  H    0.278809
    11  H    0.227297
    12  N    0.488000
    13  O   -0.456921
    14  O   -0.460640
    15  C   -0.179876
    16  C   -0.218381
    17  C   -0.169369
    18  C    0.159056
    19  C   -0.169841
    20  C   -0.224747
    21  H    0.231079
    22  H    0.231205
    23  H    0.278561
    24  H    0.275779
    25  H    0.215209
    26  N    0.488019
    27  O   -0.460378
    28  O   -0.458063
 Sum of Mulliken charges =  -0.00000

 Dipole moment (field-independent basis, Debye):
    X=              4.3057    Y=              5.2064    Z=              1.8670  Tot=              7.0094
 Quadrupole moment (field-independent basis, Debye-Ang):
   XX=           -143.5200   YY=           -102.7154   ZZ=           -105.3177
   XY=             19.3348   XZ=             -2.1097   YZ=             -2.4481

 Normal termination of Gaussian 16 at Thu May  6 01:43:12 2021.
