 Gaussian 16, Revision A.03,
 Gaussian 16:  EM64L-G16RevA.03 25-Dec-2016

 -------------
 #p 6-31g* mp2
 -------------

 ------------------------------------------------------
 Input file generated by CHIRIPA (05-May-2021 14:55:20)
 ------------------------------------------------------
 Symbolic Z-matrix:
 Charge =  0 Multiplicity = 1

                         Standard orientation:
 ---------------------------------------------------------------------
 Center     Atomic      Atomic             Coordinates (Angstroms)
 Number     Number       Type             X           Y           Z
 ---------------------------------------------------------------------
      1          6           0       -4.107848    2.304645   -0.209383
      2          6           0       -3.828247    1.486617   -1.309008
      3          6           0       -3.279483    0.213884   -1.125823
      4          6           0       -3.021798   -0.210856    0.176669
      5          6           0       -3.289280    0.580790    1.292482
      6          6           0       -3.837948    1.849923    1.085569
      7          1           0       -4.534104    3.291936   -0.360902
      8          1           0       -4.036818    1.837142   -2.315822
      9          1           0       -3.053238   -0.440033   -1.959264
     10          1           0       -3.070428    0.203778    2.284140
     11          1           0       -4.054063    2.483052    1.941423
     12          7           0       -2.440897   -1.556336    0.383159
     13          8           0       -2.223111   -1.907238    1.540774
     14          8           0       -2.214372   -2.234544   -0.616520
     15          6           0        3.404990   -0.486680   -0.051456
     16          6           0        2.251542   -0.312101   -1.039921
     17          6           0        1.087774   -1.264805   -0.764622
     18          1           0        3.761466   -1.525001   -0.093426
     19          1           0        3.031514   -0.325444    0.969286
     20          1           0        2.627383   -0.472257   -2.058602
     21          1           0        1.897898    0.725974   -0.995732
     22          1           0        0.685503   -1.101264    0.240383
     23          1           0        1.419134   -2.306303   -0.828527
     24          1           0        0.274262   -1.122932   -1.482905
     25          6           0        4.575906    0.458789   -0.313695
     26          6           0        5.729354    0.284210    0.674771
     27          6           0        6.893123    1.236914    0.399471
     28          1           0        4.949384    0.297553   -1.334436
     29          1           0        4.219431    1.497110   -0.271725
     30          1           0        6.082999   -0.753865    0.630581
     31          1           0        5.353514    0.444366    1.693451
     32          1           0        6.561763    2.278412    0.463376
     33          1           0        7.295393    1.073373   -0.605533
     34          1           0        7.706635    1.095042    1.117754
 ---------------------------------------------------------------------

 SCF Done:  E(RHF) =  -669.535754845     A.U. after   15 cycles
 E2 =    -0.2091922863D+01 EUMP2 =    -0.67162767770812D+03

 The electronic state is 1-A.
 Alpha  occ. eigenvalues --  -20.60852 -20.60841 -15.85857 -11.31233 -11.27802
 Alpha  occ. eigenvalues --  -11.27798 -11.27544 -11.26820 -11.26810 -11.21298
 Alpha  occ. eigenvalues --  -11.21024 -11.20992 -11.20856 -11.20846 -11.20094
 Alpha  occ. eigenvalues --   -1.59895  -1.39455  -1.19404  -1.08799  -1.07981
 Alpha  occ. eigenvalues --   -1.04809  -1.03034  -0.95641  -0.95453  -0.86466
 Alpha  occ. eigenvalues --   -0.86207  -0.82473  -0.79110  -0.77790  -0.77519
 Alpha  occ. eigenvalues --   -0.72097  -0.71207  -0.70515  -0.65061  -0.64813
 Alpha  occ. eigenvalues --   -0.64621  -0.62158  -0.60439  -0.58851  -0.57075
 Alpha  occ. eigenvalues --   -0.55312  -0.54749  -0.53137  -0.52903  -0.52139
 Alpha  occ. eigenvalues --   -0.51871  -0.49403  -0.48859  -0.48851  -0.47404
 Alpha  occ. eigenvalues --   -0.46160  -0.45317  -0.45260  -0.44889  -0.43182
 Alpha  occ. eigenvalues --   -0.37382  -0.36411
 Alpha virt. eigenvalues --    0.04988   0.11214   0.16460   0.21332   0.23267
 Alpha virt. eigenvalues --    0.24720   0.27064   0.27171   0.27885   0.27911
 Alpha virt. eigenvalues --    0.28694   0.30743   0.31592   0.31955   0.32219

 Mulliken charges:
               1
     1  C   -0.170765
     2  C   -0.218505
     3  C   -0.171362
     4  C    0.159224
     5  C   -0.171271
     6  C   -0.218521
     7  H    0.225751
     8  H    0.223641
     9  H    0.275489
    10  H    0.275605
    11  H    0.223569
    12  N    0.489321
    13  O   -0.460018
    14  O   -0.456964
    15  C   -0.297718
    16  C   -0.301369
    17  C   -0.475015
    18  H    0.150869
    19  H    0.149710
    20  H    0.149239
    21  H    0.145950
    22  H    0.154834
    23  H    0.160353
    24  H    0.162173
    25  C   -0.297547
    26  C   -0.299304
    27  C   -0.475370
    28  H    0.148531
    29  H    0.147235
    30  H    0.152490
    31  H    0.151618
    32  H    0.153859
    33  H    0.154712
    34  H    0.159554
 Sum of Mulliken charges =  -0.00000

 Dipole moment (field-independent basis, Debye):
    X=             -2.2243    Y=              4.6205    Z=             -0.7102  Tot=              5.1769
 Quadrupole moment (field-independent basis, Debye-Ang):
   XX=            -84.3768   YY=            -97.0002   ZZ=            -89.8079
   XY=            -15.2734   XZ=              1.7317   YZ=              2.4005

 Normal termination of Gaussian 16 at Thu May  6 14:06:28 2021.
