 Gaussian 16, Revision A.03,
 Gaussian 16:  EM64L-G16RevA.03 25-Dec-2016

 -------------
 #p 6-31g* mp2
 -------------

 ------------------------------------------------------
 Input file generated by CHIRIPA (05-May-2021 14:51:11)
 ------------------------------------------------------
 Symbolic Z-matrix:
 Charge =  0 Multiplicity = 1

                         Standard orientation:
 ---------------------------------------------------------------------
 Center     Atomic      Atomic             Coordinates (Angstroms)
 Number     Number       Type             X           Y           Z
 ---------------------------------------------------------------------
      1          6           0       -2.707207    0.642061   -0.100300
      2          6           0       -3.985490    1.473689   -0.211536
      3          6           0       -3.712093    2.930805   -0.585515
      4          1           0       -2.045685    1.096701    0.649791
      5          1           0       -2.168261    0.681099   -1.057070
      6          1           0       -4.522561    1.431963    0.744722
      7          1           0       -4.644129    1.016908   -0.961312
      8          1           0       -3.197230    2.990941   -1.549828
      9          1           0       -3.074971    3.408355    0.165899
     10          1           0       -4.639604    3.507079   -0.659622
     11          6           0       -2.964164   -0.816840    0.272941
     12          6           0       -1.685881   -1.648467    0.384178
     13          6           0       -1.959278   -3.105583    0.758156
     14          1           0       -3.503110   -0.855877    1.229711
     15          1           0       -3.625687   -1.271479   -0.477150
     16          1           0       -1.027243   -1.191687    1.133953
     17          1           0       -1.148810   -1.606742   -0.572081
     18          1           0       -2.596401   -3.583133    0.006742
     19          1           0       -2.474142   -3.165720    1.722469
     20          1           0       -1.031767   -3.681857    0.832263
     21          6           0        2.618142    0.790693    0.117319
     22          6           0        3.773951    1.790080    0.174899
     23          6           0        3.322887    3.192644    0.583733
     24          1           0        1.861615    1.155145   -0.591051
     25          1           0        2.130334    0.747808    1.100986
     26          1           0        4.260301    1.830041   -0.808200
     27          1           0        4.527903    1.423112    0.883071
     28          1           0        2.856395    3.173926    1.574004
     29          1           0        2.587272    3.583167   -0.126876
     30          1           0        4.164917    3.890953    0.618519
     31          6           0        3.053231   -0.615915   -0.289960
     32          6           0        1.897420   -1.615301   -0.347540
     33          6           0        2.348485   -3.017867   -0.756374
     34          1           0        3.541037   -0.573029   -1.273627
     35          1           0        3.809756   -0.980366    0.418410
     36          1           0        1.143469   -1.248333   -1.055712
     37          1           0        1.411071   -1.655263    0.635559
     38          1           0        3.084099   -3.408388   -0.045765
     39          1           0        2.814977   -2.999147   -1.746646
     40          1           0        1.506454   -3.716175   -0.791161
 ---------------------------------------------------------------------

 SCF Done:  E(RHF) =  -470.732050850     A.U. after   11 cycles
 E2 =    -0.1584069668D+01 EUMP2 =    -0.47231612051824D+03

 The electronic state is 1-A.
 Alpha  occ. eigenvalues --  -11.21587 -11.21585 -11.21495 -11.21480 -11.21373
 Alpha  occ. eigenvalues --  -11.21368 -11.21308 -11.21300 -11.21061 -11.21061
 Alpha  occ. eigenvalues --  -11.21054 -11.21049  -1.08439  -1.08356  -1.03578
 Alpha  occ. eigenvalues --   -1.03425  -0.95994  -0.95919  -0.87009  -0.86935
 Alpha  occ. eigenvalues --   -0.79842  -0.79364  -0.78405  -0.77960  -0.65123
 Alpha  occ. eigenvalues --   -0.64949  -0.61037  -0.60776  -0.59610  -0.59104
 Alpha  occ. eigenvalues --   -0.57775  -0.57301  -0.55270  -0.55220  -0.52729
 Alpha  occ. eigenvalues --   -0.52571  -0.52468  -0.52292  -0.49963  -0.49846
 Alpha  occ. eigenvalues --   -0.48342  -0.47522  -0.46900  -0.46384  -0.46090
 Alpha  occ. eigenvalues --   -0.45837  -0.45418  -0.45241  -0.43809  -0.43674
 Alpha virt. eigenvalues --    0.21148   0.23011   0.23351   0.24664   0.25366
 Alpha virt. eigenvalues --    0.25707   0.26641   0.27573   0.28895   0.29519
 Alpha virt. eigenvalues --    0.30445   0.30524   0.31216   0.31922   0.32303

 Mulliken charges:
               1
     1  C   -0.298088
     2  C   -0.299544
     3  C   -0.475670
     4  H    0.150051
     5  H    0.148476
     6  H    0.151948
     7  H    0.151824
     8  H    0.154873
     9  H    0.155341
    10  H    0.160196
    11  C   -0.298016
    12  C   -0.301240
    13  C   -0.478582
    14  H    0.148918
    15  H    0.149017
    16  H    0.152153
    17  H    0.156713
    18  H    0.154976
    19  H    0.154957
    20  H    0.161490
    21  C   -0.298180
    22  C   -0.299559
    23  C   -0.475672
    24  H    0.150029
    25  H    0.148723
    26  H    0.151914
    27  H    0.151839
    28  H    0.154895
    29  H    0.155368
    30  H    0.160193
    31  C   -0.297863
    32  C   -0.301820
    33  C   -0.478170
    34  H    0.148969
    35  H    0.149072
    36  H    0.153370
    37  H    0.155942
    38  H    0.155053
    39  H    0.154944
    40  H    0.161165
 Sum of Mulliken charges =  -0.00000

 Dipole moment (field-independent basis, Debye):
    X=              0.0042    Y=              0.0019    Z=             -0.0009  Tot=              0.0047
 Quadrupole moment (field-independent basis, Debye-Ang):
   XX=            -85.0412   YY=            -87.0849   ZZ=            -82.9625
   XY=              0.1178   XZ=              0.3061   YZ=             -0.0031

 Normal termination of Gaussian 16 at Wed May  5 18:16:19 2021.
