 Gaussian 16, Revision A.03,
 Gaussian 16:  EM64L-G16RevA.03 25-Dec-2016

 -------------
 #p 6-31g* mp2
 -------------

 ------------------------------------------------------
 Input file generated by CHIRIPA (05-May-2021 14:55:23)
 ------------------------------------------------------
 Symbolic Z-matrix:
 Charge =  0 Multiplicity = 1

                         Standard orientation:
 ---------------------------------------------------------------------
 Center     Atomic      Atomic             Coordinates (Angstroms)
 Number     Number       Type             X           Y           Z
 ---------------------------------------------------------------------
      1          6           0        2.243066    2.270343   -0.144479
      2          6           0        3.558605    2.378150    0.318399
      3          6           0        4.392952    1.256918    0.353812
      4          6           0        3.876756    0.037949   -0.083160
      5          6           0        2.570580   -0.101533   -0.549784
      6          6           0        1.754114    1.033027   -0.576332
      7          1           0        1.601871    3.146520   -0.168546
      8          1           0        3.941017    3.337789    0.654401
      9          1           0        5.415393    1.312080    0.707350
     10          1           0        2.217674   -1.071597   -0.878192
     11          1           0        0.732868    0.946337   -0.936313
     12          7           0        4.750577   -1.156104   -0.050362
     13          8           0        4.271914   -2.218664   -0.440855
     14          8           0        5.897595   -1.006832    0.365216
     15          6           0       -5.476777   -0.200954    0.405101
     16          6           0       -6.510183    0.238320   -0.632730
     17          6           0       -7.903429    0.433281   -0.033854
     18          1           0       -5.810932   -1.137422    0.872338
     19          1           0       -5.430657    0.549210    1.206676
     20          1           0       -6.553344   -0.511763   -1.432809
     21          1           0       -6.173435    1.173751   -1.097686
     22          1           0       -7.882162    1.196614    0.750665
     23          1           0       -8.264230   -0.498478    0.413638
     24          1           0       -8.626456    0.747217   -0.793154
     25          6           0       -4.079039   -0.399988   -0.178373
     26          6           0       -3.045631   -0.839262    0.859459
     27          6           0       -1.652386   -1.034223    0.260583
     28          1           0       -4.125159   -1.150152   -0.979947
     29          1           0       -3.744883    0.536480   -0.645609
     30          1           0       -3.382380   -1.774694    1.324415
     31          1           0       -3.002471   -0.089179    1.659538
     32          1           0       -1.291586   -0.102464   -0.186909
     33          1           0       -1.673653   -1.797557   -0.523937
     34          1           0       -0.929358   -1.348159    1.019882
 ---------------------------------------------------------------------

 SCF Done:  E(RHF) =  -669.535424601     A.U. after   15 cycles
 E2 =    -0.2090917413D+01 EUMP2 =    -0.67162634201446D+03

 The electronic state is 1-A.
 Alpha  occ. eigenvalues --  -20.60719 -20.60714 -15.85772 -11.31129 -11.27702
 Alpha  occ. eigenvalues --  -11.27679 -11.27441 -11.26721 -11.26675 -11.22213
 Alpha  occ. eigenvalues --  -11.21989 -11.21940 -11.21894 -11.21809 -11.21392
 Alpha  occ. eigenvalues --   -1.59795  -1.39348  -1.19301  -1.08941  -1.08700
 Alpha  occ. eigenvalues --   -1.04700  -1.04055  -0.96522  -0.95535  -0.87548
 Alpha  occ. eigenvalues --   -0.86101  -0.82367  -0.80126  -0.78739  -0.77411
 Alpha  occ. eigenvalues --   -0.71991  -0.71118  -0.70412  -0.65581  -0.64952
 Alpha  occ. eigenvalues --   -0.64722  -0.62091  -0.61424  -0.59878  -0.58116
 Alpha  occ. eigenvalues --   -0.55841  -0.55204  -0.53244  -0.53047  -0.53006
 Alpha  occ. eigenvalues --   -0.52689  -0.50448  -0.48752  -0.48745  -0.48430
 Alpha  occ. eigenvalues --   -0.47144  -0.46287  -0.46196  -0.44756  -0.44297
 Alpha  occ. eigenvalues --   -0.37287  -0.36292
 Alpha virt. eigenvalues --    0.05112   0.11322   0.16568   0.20429   0.22483
 Alpha virt. eigenvalues --    0.23836   0.25371   0.26314   0.27131   0.28105
 Alpha virt. eigenvalues --    0.28840   0.29700   0.31180   0.31469   0.32061

 Mulliken charges:
               1
     1  C   -0.172052
     2  C   -0.218521
     3  C   -0.171175
     4  C    0.158475
     5  C   -0.172789
     6  C   -0.220220
     7  H    0.225151
     8  H    0.223081
     9  H    0.275353
    10  H    0.276536
    11  H    0.228949
    12  N    0.488104
    13  O   -0.460425
    14  O   -0.460728
    15  C   -0.298668
    16  C   -0.299888
    17  C   -0.475962
    18  H    0.151485
    19  H    0.149642
    20  H    0.152829
    21  H    0.151075
    22  H    0.155282
    23  H    0.156222
    24  H    0.161169
    25  C   -0.298390
    26  C   -0.299606
    27  C   -0.479998
    28  H    0.151105
    29  H    0.146303
    30  H    0.156097
    31  H    0.152720
    32  H    0.144475
    33  H    0.158273
    34  H    0.166095
 Sum of Mulliken charges =  -0.00000

 Dipole moment (field-independent basis, Debye):
    X=             -3.2404    Y=              4.1409    Z=             -0.0666  Tot=              5.2585
 Quadrupole moment (field-independent basis, Debye-Ang):
   XX=           -116.7704   YY=            -92.3134   ZZ=            -94.8663
   XY=             19.2773   XZ=              1.6419   YZ=              0.9501

 Normal termination of Gaussian 16 at Thu May  6 14:17:19 2021.
