 Gaussian 16, Revision A.03,
 Gaussian 16:  EM64L-G16RevA.03 25-Dec-2016

 -------------
 #p 6-31g* mp2
 -------------

 ------------------------------------------------------
 Input file generated by CHIRIPA (05-May-2021 14:57:25)
 ------------------------------------------------------
 Symbolic Z-matrix:
 Charge =  0 Multiplicity = 1

                         Standard orientation:
 ---------------------------------------------------------------------
 Center     Atomic      Atomic             Coordinates (Angstroms)
 Number     Number       Type             X           Y           Z
 ---------------------------------------------------------------------
      1          6           0        1.863339    1.367899   -1.180844
      2          6           0        1.775131   -0.027932   -1.200750
      3          6           0        2.769851   -0.810755   -0.607229
      4          6           0        3.843701   -0.161722    0.000137
      5          6           0        3.959934    1.226969    0.036432
      6          6           0        2.953537    1.989798   -0.563404
      7          1           0        1.086081    1.968250   -1.644358
      8          1           0        0.929611   -0.513627   -1.679540
      9          1           0        2.726579   -1.893134   -0.608115
     10          1           0        4.814819    1.682463    0.521319
     11          1           0        3.024662    3.073633   -0.546422
     12          7           0        4.902948   -0.979879    0.631814
     13          8           0        5.838856   -0.383873    1.160483
     14          8           0        4.777220   -2.201663    0.586292
     15          6           0       -2.722594    2.342304    0.433839
     16          6           0       -3.726348    1.868585    1.285065
     17          6           0       -4.258151    0.587314    1.111633
     18          6           0       -3.760631   -0.196967    0.072081
     19          6           0       -2.761162    0.246633   -0.792541
     20          6           0       -2.244048    1.531247   -0.600424
     21          1           0       -2.315182    3.338925    0.575822
     22          1           0       -4.099911    2.496262    2.089129
     23          1           0       -5.035751    0.195535    1.756045
     24          1           0       -2.408982   -0.402259   -1.585212
     25          1           0       -1.464574    1.896518   -1.263027
     26          7           0       -4.315852   -1.555161   -0.121414
     27          8           0       -3.860477   -2.226533   -1.044740
     28          8           0       -5.195895   -1.922622    0.653914
 ---------------------------------------------------------------------

 SCF Done:  E(RHF) =  -868.336245914     A.U. after   16 cycles
 E2 =    -0.2600174211D+01 EUMP2 =    -0.87093642012438D+03

 The electronic state is 1-A.
 Alpha  occ. eigenvalues --  -20.61344 -20.61327 -20.61076 -20.61066 -15.86399
 Alpha  occ. eigenvalues --  -15.86132 -11.31889 -11.31639 -11.28565 -11.28426
 Alpha  occ. eigenvalues --  -11.28254 -11.28223 -11.28194 -11.28134 -11.27652
 Alpha  occ. eigenvalues --  -11.27452 -11.27328 -11.27318  -1.60410  -1.60146
 Alpha  occ. eigenvalues --   -1.39962  -1.39695  -1.20081  -1.19839  -1.09451
 Alpha  occ. eigenvalues --   -1.09240  -1.05523  -1.05253  -0.96263  -0.96046
 Alpha  occ. eigenvalues --   -0.86917  -0.86667  -0.83111  -0.82861  -0.78142
 Alpha  occ. eigenvalues --   -0.77854  -0.72615  -0.72349  -0.71735  -0.71470
 Alpha  occ. eigenvalues --   -0.71196  -0.71046  -0.65745  -0.65591  -0.65487
 Alpha  occ. eigenvalues --   -0.65270  -0.62895  -0.62578  -0.56055  -0.55845
 Alpha  occ. eigenvalues --   -0.53827  -0.53653  -0.53528  -0.53357  -0.49383
 Alpha  occ. eigenvalues --   -0.49362  -0.49121  -0.49092  -0.45341  -0.45068
 Alpha  occ. eigenvalues --   -0.38076  -0.37864  -0.37111  -0.36817
 Alpha virt. eigenvalues --    0.04420   0.04655   0.10499   0.10803   0.15818
 Alpha virt. eigenvalues --    0.16080   0.17821   0.22154   0.24719   0.25104
 Alpha virt. eigenvalues --    0.28013   0.28698   0.30180   0.31251   0.32989

 Mulliken charges:
               1
     1  C   -0.172144
     2  C   -0.216984
     3  C   -0.169832
     4  C    0.159331
     5  C   -0.170325
     6  C   -0.218518
     7  H    0.216724
     8  H    0.222005
     9  H    0.279579
    10  H    0.276934
    11  H    0.222755
    12  N    0.487870
    13  O   -0.459631
    14  O   -0.457749
    15  C   -0.170229
    16  C   -0.217827
    17  C   -0.169329
    18  C    0.159842
    19  C   -0.172424
    20  C   -0.216849
    21  H    0.225771
    22  H    0.226352
    23  H    0.278394
    24  H    0.271915
    25  H    0.214367
    26  N    0.488210
    27  O   -0.460908
    28  O   -0.457298
 Sum of Mulliken charges =  -0.00000

 Dipole moment (field-independent basis, Debye):
    X=             -1.8154    Y=              7.5431    Z=             -1.3336  Tot=              7.8723
 Quadrupole moment (field-independent basis, Debye-Ang):
   XX=           -144.7518   YY=           -104.8402   ZZ=           -102.5276
   XY=             -5.1275   XZ=            -13.3912   YZ=              2.7746

 Normal termination of Gaussian 16 at Fri May  7 03:28:18 2021.
