 Gaussian 16, Revision A.03,
 Gaussian 16:  EM64L-G16RevA.03 25-Dec-2016

 -------------
 #p 6-31g* mp2
 -------------

 ------------------------------------------------------
 Input file generated by CHIRIPA (05-May-2021 14:53:16)
 ------------------------------------------------------
 Symbolic Z-matrix:
 Charge =  0 Multiplicity = 1

                         Standard orientation:
 ---------------------------------------------------------------------
 Center     Atomic      Atomic             Coordinates (Angstroms)
 Number     Number       Type             X           Y           Z
 ---------------------------------------------------------------------
      1          6           0       -3.788722   -0.608092   -0.361735
      2          6           0       -4.062541   -1.848324    0.489637
      3          6           0       -4.485112   -3.057247   -0.345666
      4          1           0       -4.690681   -0.360247   -0.937919
      5          1           0       -3.003830   -0.840979   -1.094608
      6          1           0       -4.845710   -1.612754    1.221599
      7          1           0       -3.159887   -2.093133    1.064006
      8          1           0       -3.703416   -3.320232   -1.065660
      9          1           0       -5.398818   -2.837124   -0.907171
     10          1           0       -4.675804   -3.932671    0.282928
     11          6           0       -3.365252    0.608747    0.459058
     12          6           0       -3.091433    1.848979   -0.392314
     13          6           0       -2.668863    3.057902    0.442989
     14          1           0       -4.150145    0.841634    1.191931
     15          1           0       -2.463294    0.360902    1.035242
     16          1           0       -3.994088    2.093788   -0.966683
     17          1           0       -2.308264    1.613409   -1.124277
     18          1           0       -1.755157    2.837779    1.004494
     19          1           0       -3.450559    3.320887    1.162983
     20          1           0       -2.478171    3.933326   -0.185605
     21          6           0        0.988249    1.749441   -0.242622
     22          6           0        2.333617    2.131537   -0.220113
     23          6           0        3.342811    1.170653   -0.107083
     24          6           0        2.969145   -0.169410   -0.018236
     25          6           0        1.637604   -0.581601   -0.037892
     26          6           0        0.645141    0.396476   -0.151601
     27          1           0        0.210780    2.502556   -0.330690
     28          1           0        2.603022    3.181534   -0.290632
     29          1           0        4.392189    1.438667   -0.087213
     30          1           0        1.400058   -1.636017    0.034197
     31          1           0       -0.398869    0.096821   -0.168825
     32          7           0        4.028678   -1.195756    0.101782
     33          8           0        3.673297   -2.369830    0.178543
     34          8           0        5.194459   -0.806698    0.116820
 ---------------------------------------------------------------------

 SCF Done:  E(RHF) =  -669.534617714     A.U. after   15 cycles
 E2 =    -0.2093334982D+01 EUMP2 =    -0.67162795269638D+03

 The electronic state is 1-A.
 Alpha  occ. eigenvalues --  -20.60740 -20.60735 -15.85793 -11.31154 -11.27724
 Alpha  occ. eigenvalues --  -11.27720 -11.27398 -11.26720 -11.26689 -11.22928
 Alpha  occ. eigenvalues --  -11.22571 -11.22414 -11.22410 -11.22354 -11.21664
 Alpha  occ. eigenvalues --   -1.59816  -1.39370  -1.19323  -1.09553  -1.08710
 Alpha  occ. eigenvalues --   -1.04736  -1.04570  -0.97031  -0.95549  -0.88038
 Alpha  occ. eigenvalues --   -0.86127  -0.82387  -0.80652  -0.79295  -0.77446
 Alpha  occ. eigenvalues --   -0.72013  -0.71139  -0.70481  -0.66440  -0.64969
 Alpha  occ. eigenvalues --   -0.64579  -0.62199  -0.61786  -0.60405  -0.58601
 Alpha  occ. eigenvalues --   -0.56549  -0.55018  -0.53689  -0.53416  -0.53057
 Alpha  occ. eigenvalues --   -0.52804  -0.50930  -0.48934  -0.48767  -0.48762
 Alpha  occ. eigenvalues --   -0.47730  -0.46806  -0.46771  -0.44829  -0.44777
 Alpha  occ. eigenvalues --   -0.37286  -0.36329
 Alpha virt. eigenvalues --    0.05076   0.11215   0.16511   0.18429   0.22338
 Alpha virt. eigenvalues --    0.23922   0.25048   0.26069   0.26419   0.28788
 Alpha virt. eigenvalues --    0.29822   0.30580   0.30953   0.31034   0.31900

 Mulliken charges:
               1
     1  C   -0.301245
     2  C   -0.300128
     3  C   -0.476383
     4  H    0.154458
     5  H    0.146488
     6  H    0.154909
     7  H    0.150961
     8  H    0.155984
     9  H    0.156783
    10  H    0.163850
    11  C   -0.305249
    12  C   -0.305485
    13  C   -0.483593
    14  H    0.157303
    15  H    0.146230
    16  H    0.160033
    17  H    0.146485
    18  H    0.152295
    19  H    0.164146
    20  H    0.161347
    21  C   -0.178989
    22  C   -0.219611
    23  C   -0.170807
    24  C    0.158703
    25  C   -0.172547
    26  C   -0.228699
    27  H    0.235929
    28  H    0.223658
    29  H    0.275437
    30  H    0.275537
    31  H    0.235266
    32  N    0.488014
    33  O   -0.460577
    34  O   -0.460505
 Sum of Mulliken charges =  -0.00000

 Dipole moment (field-independent basis, Debye):
    X=             -4.0350    Y=              3.6053    Z=             -0.3927  Tot=              5.4253
 Quadrupole moment (field-independent basis, Debye-Ang):
   XX=           -112.5788   YY=            -94.1531   ZZ=            -95.8311
   XY=             13.7681   XZ=             -1.6662   YZ=             -0.4876

 Normal termination of Gaussian 16 at Thu May  6 17:13:51 2021.
