 Gaussian 16, Revision A.03,
 Gaussian 16:  EM64L-G16RevA.03 25-Dec-2016

 -------------
 #p 6-31g* mp2
 -------------

 ------------------------------------------------------
 Input file generated by CHIRIPA (05-May-2021 14:57:26)
 ------------------------------------------------------
 Symbolic Z-matrix:
 Charge =  0 Multiplicity = 1

                         Standard orientation:
 ---------------------------------------------------------------------
 Center     Atomic      Atomic             Coordinates (Angstroms)
 Number     Number       Type             X           Y           Z
 ---------------------------------------------------------------------
      1          6           0        4.512174    1.835948    0.046731
      2          6           0        4.879820    0.717265   -0.708191
      3          6           0        4.058170   -0.413130   -0.748798
      4          6           0        2.870564   -0.390498   -0.019162
      5          6           0        2.476768    0.708744    0.742337
      6          6           0        3.313934    1.828131    0.768313
      7          1           0        5.156478    2.709789    0.072593
      8          1           0        5.809812    0.720522   -1.269571
      9          1           0        4.318523   -1.292702   -1.324981
     10          1           0        1.543634    0.675852    1.291515
     11          1           0        3.025872    2.695497    1.355460
     12          7           0        1.992507   -1.581369   -0.054406
     13          8           0        0.951349   -1.536403    0.597212
     14          8           0        2.362069   -2.537191   -0.732982
     15          6           0       -2.901242   -2.287646    0.452919
     16          6           0       -2.373581   -1.386893    1.383906
     17          6           0       -2.431224   -0.009620    1.150783
     18          6           0       -3.026303    0.434167   -0.029143
     19          6           0       -3.560907   -0.438195   -0.975964
     20          6           0       -3.492179   -1.811263   -0.721974
     21          1           0       -2.852158   -3.355910    0.642119
     22          1           0       -1.914067   -1.754006    2.297208
     23          1           0       -2.030565    0.709844    1.854531
     24          1           0       -4.012820   -0.042178   -1.877276
     25          1           0       -3.902789   -2.508480   -1.446772
     26          7           0       -3.093194    1.889998   -0.286986
     27          8           0       -3.622653    2.255595   -1.334195
     28          8           0       -2.614899    2.637913    0.563010
 ---------------------------------------------------------------------

 SCF Done:  E(RHF) =  -868.339185154     A.U. after   16 cycles
 E2 =    -0.2599651033D+01 EUMP2 =    -0.87093883618710D+03

 The electronic state is 1-A.
 Alpha  occ. eigenvalues --  -20.61118 -20.61107 -20.60306 -20.60283 -15.86149
 Alpha  occ. eigenvalues --  -15.85338 -11.31320 -11.30369 -11.27867 -11.27862
 Alpha  occ. eigenvalues --  -11.27554 -11.26884 -11.26875 -11.26841 -11.26800
 Alpha  occ. eigenvalues --  -11.26474 -11.25850 -11.25756  -1.60186  -1.59378
 Alpha  occ. eigenvalues --   -1.39747  -1.38943  -1.19469  -1.18474  -1.08900
 Alpha  occ. eigenvalues --   -1.07921  -1.04840  -1.03835  -0.95772  -0.94828
 Alpha  occ. eigenvalues --   -0.86250  -0.85254  -0.82615  -0.81684  -0.77688
 Alpha  occ. eigenvalues --   -0.76787  -0.72398  -0.71570  -0.71493  -0.70694
 Alpha  occ. eigenvalues --   -0.70579  -0.69591  -0.65127  -0.64839  -0.64136
 Alpha  occ. eigenvalues --   -0.63848  -0.62196  -0.61225  -0.55347  -0.54326
 Alpha  occ. eigenvalues --   -0.53180  -0.52930  -0.52139  -0.51947  -0.49155
 Alpha  occ. eigenvalues --   -0.49119  -0.48342  -0.48288  -0.45193  -0.44426
 Alpha  occ. eigenvalues --   -0.37435  -0.36434  -0.36370  -0.35357
 Alpha virt. eigenvalues --    0.04833   0.05731   0.11222   0.12256   0.16375
 Alpha virt. eigenvalues --    0.17345   0.21197   0.22314   0.26717   0.27719
 Alpha virt. eigenvalues --    0.28629   0.29277   0.31011   0.31771   0.32258

 Mulliken charges:
               1
     1  C   -0.170133
     2  C   -0.218426
     3  C   -0.170932
     4  C    0.157967
     5  C   -0.169082
     6  C   -0.217659
     7  H    0.227136
     8  H    0.223908
     9  H    0.274954
    10  H    0.272432
    11  H    0.227196
    12  N    0.491892
    13  O   -0.468404
    14  O   -0.460818
    15  C   -0.165621
    16  C   -0.197552
    17  C   -0.172399
    18  C    0.157390
    19  C   -0.173136
    20  C   -0.217923
    21  H    0.226459
    22  H    0.224703
    23  H    0.266602
    24  H    0.271727
    25  H    0.221014
    26  N    0.488246
    27  O   -0.462261
    28  O   -0.467280
 Sum of Mulliken charges =  -0.00000

 Dipole moment (field-independent basis, Debye):
    X=              3.5581    Y=             -1.1276    Z=              1.0898  Tot=              3.8884
 Quadrupole moment (field-independent basis, Debye-Ang):
   XX=            -86.6621   YY=           -112.3072   ZZ=           -100.0306
   XY=             26.5423   XZ=             -2.6602   YZ=              2.7699

 Normal termination of Gaussian 16 at Fri May  7 03:32:52 2021.
