 Gaussian 16, Revision A.03,
 Gaussian 16:  EM64L-G16RevA.03 25-Dec-2016

 -------------
 #p 6-31g* mp2
 -------------

 ------------------------------------------------------
 Input file generated by CHIRIPA (05-May-2021 14:57:26)
 ------------------------------------------------------
 Symbolic Z-matrix:
 Charge =  0 Multiplicity = 1

                         Standard orientation:
 ---------------------------------------------------------------------
 Center     Atomic      Atomic             Coordinates (Angstroms)
 Number     Number       Type             X           Y           Z
 ---------------------------------------------------------------------
      1          6           0       -4.896247    0.643135   -1.182998
      2          6           0       -4.277792    1.512409   -0.278343
      3          6           0       -3.180352    1.088228    0.476801
      4          6           0       -2.725490   -0.217748    0.301248
      5          6           0       -3.320312   -1.107438   -0.592021
      6          6           0       -4.416379   -0.661713   -1.336678
      7          1           0       -5.748232    0.981017   -1.765538
      8          1           0       -4.648315    2.526319   -0.156918
      9          1           0       -2.682718    1.740356    1.184266
     10          1           0       -2.928305   -2.112382   -0.691197
     11          1           0       -4.894703   -1.338986   -2.038499
     12          7           0       -1.564406   -0.678213    1.095134
     13          8           0       -1.182797   -1.833652    0.922011
     14          8           0       -1.057943    0.125032    1.875474
     15          6           0        2.822584    2.656871    0.007774
     16          6           0        3.314267    2.055465   -1.155445
     17          6           0        3.371112    0.662889   -1.265209
     18          6           0        2.925965   -0.101285   -0.187632
     19          6           0        2.430827    0.468265    0.984435
     20          6           0        2.383208    1.862751    1.072125
     21          1           0        2.782009    3.739398    0.084468
     22          1           0        3.656175    2.669688   -1.983620
     23          1           0        3.747114    0.171142   -2.154156
     24          1           0        2.097193   -0.170363    1.793299
     25          1           0        2.000874    2.327069    1.976711
     26          7           0        2.981260   -1.576553   -0.292150
     27          8           0        2.583007   -2.227553    0.671298
     28          8           0        3.421806   -2.053936   -1.335539
 ---------------------------------------------------------------------

 SCF Done:  E(RHF) =  -868.338199642     A.U. after   16 cycles
 E2 =    -0.2600217824D+01 EUMP2 =    -0.87093841746580D+03

 The electronic state is 1-A.
 Alpha  occ. eigenvalues --  -20.60970 -20.60891 -20.59684 -20.59582 -15.85954
 Alpha  occ. eigenvalues --  -15.84685 -11.31299 -11.30115 -11.27904 -11.27823
 Alpha  occ. eigenvalues --  -11.27609 -11.26901 -11.26846 -11.26819 -11.26581
 Alpha  occ. eigenvalues --  -11.26546 -11.25870 -11.25687  -1.59989  -1.58711
 Alpha  occ. eigenvalues --   -1.39543  -1.38256  -1.19470  -1.18333  -1.08871
 Alpha  occ. eigenvalues --   -1.07740  -1.04870  -1.03723  -0.95710  -0.94543
 Alpha  occ. eigenvalues --   -0.86269  -0.85135  -0.82544  -0.81357  -0.77594
 Alpha  occ. eigenvalues --   -0.76368  -0.72177  -0.71314  -0.70905  -0.70580
 Alpha  occ. eigenvalues --   -0.70033  -0.69456  -0.65125  -0.64875  -0.63981
 Alpha  occ. eigenvalues --   -0.63742  -0.62217  -0.61041  -0.55375  -0.54302
 Alpha  occ. eigenvalues --   -0.53202  -0.52963  -0.52096  -0.51818  -0.48964
 Alpha  occ. eigenvalues --   -0.48898  -0.47694  -0.47641  -0.44952  -0.43630
 Alpha  occ. eigenvalues --   -0.37452  -0.36472  -0.36388  -0.35305
 Alpha virt. eigenvalues --    0.04905   0.06177   0.11183   0.12309   0.16421
 Alpha virt. eigenvalues --    0.17595   0.21309   0.22375   0.27222   0.28094
 Alpha virt. eigenvalues --    0.28414   0.29329   0.30881   0.31846   0.32467

 Mulliken charges:
               1
     1  C   -0.170710
     2  C   -0.218655
     3  C   -0.170856
     4  C    0.158718
     5  C   -0.170461
     6  C   -0.218603
     7  H    0.225799
     8  H    0.222344
     9  H    0.272136
    10  H    0.279322
    11  H    0.224879
    12  N    0.487894
    13  O   -0.447898
    14  O   -0.471626
    15  C   -0.173289
    16  C   -0.220343
    17  C   -0.173021
    18  C    0.153659
    19  C   -0.163681
    20  C   -0.219420
    21  H    0.220080
    22  H    0.218072
    23  H    0.271779
    24  H    0.290023
    25  H    0.224531
    26  N    0.487626
    27  O   -0.449506
    28  O   -0.468790
 Sum of Mulliken charges =  -0.00000

 Dipole moment (field-independent basis, Debye):
    X=             -4.5709    Y=              6.4804    Z=             -2.2123  Tot=              8.2330
 Quadrupole moment (field-independent basis, Debye-Ang):
   XX=            -85.1281   YY=           -103.4946   ZZ=           -102.3640
   XY=             12.0282   XZ=              6.7697   YZ=              1.8354

 Normal termination of Gaussian 16 at Thu May  6 13:09:42 2021.
