 Gaussian 16, Revision A.03,
 Gaussian 16:  EM64L-G16RevA.03 25-Dec-2016

 -------------
 #p 6-31g* mp2
 -------------

 ------------------------------------------------------
 Input file generated by CHIRIPA (05-May-2021 14:53:17)
 ------------------------------------------------------
 Symbolic Z-matrix:
 Charge =  0 Multiplicity = 1

                         Standard orientation:
 ---------------------------------------------------------------------
 Center     Atomic      Atomic             Coordinates (Angstroms)
 Number     Number       Type             X           Y           Z
 ---------------------------------------------------------------------
      1          6           0        3.597997    0.779040   -0.060690
      2          6           0        4.760554    1.735123   -0.329671
      3          6           0        4.360227    3.204758   -0.196615
      4          1           0        2.779197    1.002119   -0.758363
      5          1           0        3.206907    0.963486    0.949470
      6          1           0        5.150229    1.547986   -1.338507
      7          1           0        5.576756    1.509616    0.368596
      8          1           0        3.991149    3.413633    0.812718
      9          1           0        3.562198    3.452221   -0.904085
     10          1           0        5.206287    3.870686   -0.393040
     11          6           0        3.982546   -0.693767   -0.189875
     12          6           0        2.819989   -1.649849    0.079105
     13          6           0        3.220316   -3.119485   -0.053950
     14          1           0        4.373636   -0.878213   -1.200035
     15          1           0        4.801346   -0.916845    0.507798
     16          1           0        2.003787   -1.424343   -0.619162
     17          1           0        2.430314   -1.462713    1.087941
     18          1           0        4.018345   -3.366947    0.653519
     19          1           0        3.589394   -3.328360   -1.063284
     20          1           0        2.374256   -3.785412    0.142474
     21          6           0       -0.863758   -1.352949    0.572663
     22          6           0       -1.009568   -0.060858    1.088183
     23          6           0       -2.167381    0.679510    0.831525
     24          6           0       -3.163918    0.094268    0.051977
     25          6           0       -3.048198   -1.190785   -0.475790
     26          6           0       -1.881743   -1.912802   -0.206305
     27          1           0        0.039016   -1.920957    0.777024
     28          1           0       -0.220625    0.376469    1.693459
     29          1           0       -2.306341    1.681824    1.218146
     30          1           0       -3.851912   -1.599985   -1.075803
     31          1           0       -1.771238   -2.916045   -0.607973
     32          7           0       -4.394216    0.868349   -0.226526
     33          8           0       -5.257598    0.330167   -0.916142
     34          8           0       -4.471848    1.998597    0.250074
 ---------------------------------------------------------------------

 SCF Done:  E(RHF) =  -669.534949772     A.U. after   15 cycles
 E2 =    -0.2092136513D+01 EUMP2 =    -0.67162708628479D+03

 The electronic state is 1-A.
 Alpha  occ. eigenvalues --  -20.60702 -20.60697 -15.85756 -11.31098 -11.27676
 Alpha  occ. eigenvalues --  -11.27671 -11.27309 -11.26665 -11.26652 -11.22860
 Alpha  occ. eigenvalues --  -11.22330 -11.22251 -11.22231 -11.22188 -11.21591
 Alpha  occ. eigenvalues --   -1.59779  -1.39333  -1.19270  -1.09356  -1.08657
 Alpha  occ. eigenvalues --   -1.04672  -1.04444  -0.96856  -0.95501  -0.87868
 Alpha  occ. eigenvalues --   -0.86065  -0.82356  -0.80565  -0.79154  -0.77391
 Alpha  occ. eigenvalues --   -0.71973  -0.71103  -0.70366  -0.65971  -0.64915
 Alpha  occ. eigenvalues --   -0.64677  -0.62024  -0.61820  -0.60297  -0.58507
 Alpha  occ. eigenvalues --   -0.56108  -0.55112  -0.53561  -0.53281  -0.53001
 Alpha  occ. eigenvalues --   -0.52758  -0.50784  -0.48831  -0.48730  -0.48701
 Alpha  occ. eigenvalues --   -0.47580  -0.46662  -0.46570  -0.44744  -0.44679
 Alpha  occ. eigenvalues --   -0.37209  -0.36286
 Alpha virt. eigenvalues --    0.05124   0.11353   0.16554   0.19855   0.22330
 Alpha virt. eigenvalues --    0.23435   0.24810   0.25899   0.26309   0.28313
 Alpha virt. eigenvalues --    0.29175   0.30441   0.30667   0.31161   0.32143

 Mulliken charges:
               1
     1  C   -0.299644
     2  C   -0.300341
     3  C   -0.476407
     4  H    0.152578
     5  H    0.144868
     6  H    0.154104
     7  H    0.153085
     8  H    0.154516
     9  H    0.157009
    10  H    0.162911
    11  C   -0.297241
    12  C   -0.309866
    13  C   -0.476890
    14  H    0.153600
    15  H    0.152357
    16  H    0.156127
    17  H    0.143396
    18  H    0.160235
    19  H    0.160875
    20  H    0.154933
    21  C   -0.174374
    22  C   -0.222278
    23  C   -0.170929
    24  C    0.157992
    25  C   -0.170697
    26  C   -0.221858
    27  H    0.238475
    28  H    0.223564
    29  H    0.275250
    30  H    0.275138
    31  H    0.222973
    32  N    0.488064
    33  O   -0.460783
    34  O   -0.460743
 Sum of Mulliken charges =  -0.00000

 Dipole moment (field-independent basis, Debye):
    X=              4.6081    Y=             -2.6955    Z=              0.8910  Tot=              5.4124
 Quadrupole moment (field-independent basis, Debye-Ang):
   XX=           -121.3379   YY=            -93.6635   ZZ=            -92.8678
   XY=             10.8105   XZ=             -1.8148   YZ=              2.2827

 Normal termination of Gaussian 16 at Thu May  6 20:34:03 2021.
