 Gaussian 16, Revision A.03,
 Gaussian 16:  EM64L-G16RevA.03 25-Dec-2016

 -------------
 #p 6-31g* mp2
 -------------

 ------------------------------------------------------
 Input file generated by CHIRIPA (05-May-2021 14:53:12)
 ------------------------------------------------------
 Symbolic Z-matrix:
 Charge =  0 Multiplicity = 1

                         Standard orientation:
 ---------------------------------------------------------------------
 Center     Atomic      Atomic             Coordinates (Angstroms)
 Number     Number       Type             X           Y           Z
 ---------------------------------------------------------------------
      1          6           0        3.626796   -0.170668    0.434581
      2          6           0        4.760312   -1.041327   -0.108631
      3          6           0        4.980249   -2.308782    0.717794
      4          1           0        3.849186    0.102410    1.475214
      5          1           0        2.699736   -0.760102    0.457393
      6          1           0        5.684660   -0.450002   -0.131710
      7          1           0        4.535291   -1.312205   -1.148153
      8          1           0        4.073540   -2.922218    0.731027
      9          1           0        5.229440   -2.055117    1.753246
     10          1           0        5.795041   -2.916387    0.311852
     11          6           0        3.394802    1.100062   -0.380987
     12          6           0        2.261286    1.970721    0.162225
     13          6           0        2.041349    3.238177   -0.664201
     14          1           0        4.321862    1.689497   -0.403799
     15          1           0        3.172412    0.826984   -1.421620
     16          1           0        2.486307    2.241600    1.201747
     17          1           0        1.336938    1.379397    0.185304
     18          1           0        1.792158    2.984511   -1.699652
     19          1           0        2.948058    3.851613   -0.677433
     20          1           0        1.226557    3.845782   -0.258258
     21          6           0       -3.570917    1.963495    0.496148
     22          6           0       -4.455283    0.880552    0.536781
     23          6           0       -4.007482   -0.412885    0.252097
     24          6           0       -2.662753   -0.587966   -0.070925
     25          6           0       -1.757174    0.470728   -0.119734
     26          6           0       -2.227055    1.755494    0.168598
     27          1           0       -3.927356    2.964900    0.718714
     28          1           0       -5.499481    1.039114    0.790853
     29          1           0       -4.670540   -1.269149    0.276205
     30          1           0       -0.721922    0.281326   -0.376248
     31          1           0       -1.537981    2.594647    0.136272
     32          7           0       -2.177000   -1.952680   -0.374238
     33          8           0       -0.987516   -2.080469   -0.656084
     34          8           0       -2.994946   -2.868712   -0.324385
 ---------------------------------------------------------------------

 SCF Done:  E(RHF) =  -669.535625683     A.U. after   15 cycles
 E2 =    -0.2091680324D+01 EUMP2 =    -0.67162730600723D+03

 The electronic state is 1-A.
 Alpha  occ. eigenvalues --  -20.60802 -20.60795 -15.85851 -11.31185 -11.27753
 Alpha  occ. eigenvalues --  -11.27736 -11.27490 -11.26768 -11.26744 -11.22201
 Alpha  occ. eigenvalues --  -11.21767 -11.21582 -11.21402 -11.21274 -11.20749
 Alpha  occ. eigenvalues --   -1.59873  -1.39429  -1.19356  -1.08757  -1.08568
 Alpha  occ. eigenvalues --   -1.04757  -1.03698  -0.96130  -0.95598  -0.87152
 Alpha  occ. eigenvalues --   -0.86156  -0.82432  -0.79814  -0.78304  -0.77478
 Alpha  occ. eigenvalues --   -0.72072  -0.71194  -0.70480  -0.65230  -0.65003
 Alpha  occ. eigenvalues --   -0.64750  -0.62166  -0.61043  -0.59566  -0.57725
 Alpha  occ. eigenvalues --   -0.55402  -0.55251  -0.53087  -0.52906  -0.52859
 Alpha  occ. eigenvalues --   -0.52517  -0.50063  -0.48829  -0.48824  -0.48098
 Alpha  occ. eigenvalues --   -0.46841  -0.45850  -0.45713  -0.44839  -0.43926
 Alpha  occ. eigenvalues --   -0.37338  -0.36353
 Alpha virt. eigenvalues --    0.05040   0.11289   0.16532   0.19005   0.22976
 Alpha virt. eigenvalues --    0.23754   0.25069   0.26296   0.27047   0.28454
 Alpha virt. eigenvalues --    0.29688   0.30153   0.31399   0.31668   0.32599

 Mulliken charges:
               1
     1  C   -0.301575
     2  C   -0.299747
     3  C   -0.477072
     4  H    0.148295
     5  H    0.158292
     6  H    0.149841
     7  H    0.154600
     8  H    0.161527
     9  H    0.153434
    10  H    0.160033
    11  C   -0.298311
    12  C   -0.304932
    13  C   -0.477503
    14  H    0.150373
    15  H    0.152411
    16  H    0.155043
    17  H    0.145469
    18  H    0.157373
    19  H    0.160446
    20  H    0.152396
    21  C   -0.171015
    22  C   -0.218633
    23  C   -0.170647
    24  C    0.160828
    25  C   -0.179547
    26  C   -0.222217
    27  H    0.225765
    28  H    0.223464
    29  H    0.275519
    30  H    0.282751
    31  H    0.226886
    32  N    0.488037
    33  O   -0.461511
    34  O   -0.460071
 Sum of Mulliken charges =  -0.00000

 Dipole moment (field-independent basis, Debye):
    X=             -1.6062    Y=              4.7269    Z=              1.0531  Tot=              5.1022
 Quadrupole moment (field-independent basis, Debye-Ang):
   XX=            -80.6633   YY=           -100.9759   ZZ=            -95.5656
   XY=             -9.5240   XZ=             -3.4682   YZ=             -0.5143

 Normal termination of Gaussian 16 at Thu May  6 07:18:36 2021.
