 Gaussian 16, Revision A.03,
 Gaussian 16:  EM64L-G16RevA.03 25-Dec-2016

 -------------
 #p 6-31g* mp2
 -------------

 ------------------------------------------------------
 Input file generated by CHIRIPA (05-May-2021 14:51:13)
 ------------------------------------------------------
 Symbolic Z-matrix:
 Charge =  0 Multiplicity = 1

                         Standard orientation:
 ---------------------------------------------------------------------
 Center     Atomic      Atomic             Coordinates (Angstroms)
 Number     Number       Type             X           Y           Z
 ---------------------------------------------------------------------
      1          6           0       -2.148742   -0.527170    0.623461
      2          6           0       -1.981125   -1.911784    1.250146
      3          6           0       -0.660931   -2.062416    2.006579
      4          1           0       -1.309459   -0.336713   -0.059382
      5          1           0       -2.088446    0.234706    1.412957
      6          1           0       -2.043103   -2.670906    0.459887
      7          1           0       -2.821006   -2.099046    1.931431
      8          1           0       -0.593845   -1.326817    2.814659
      9          1           0        0.188478   -1.901926    1.334754
     10          1           0       -0.561825   -3.059661    2.446510
     11          6           0       -3.463702   -0.361166   -0.136178
     12          6           0       -3.631319    1.023448   -0.762863
     13          6           0       -4.951514    1.174079   -1.519296
     14          1           0       -3.523998   -1.123043   -0.925674
     15          1           0       -4.302985   -0.551624    0.546665
     16          1           0       -2.791439    1.210709   -1.444149
     17          1           0       -3.569342    1.782569    0.027396
     18          1           0       -5.800923    1.013589   -0.847471
     19          1           0       -5.018599    0.438480   -2.327377
     20          1           0       -5.050619    2.171325   -1.959228
     21          6           0        2.315696    0.962810    0.028069
     22          6           0        2.987209    2.270451    0.448940
     23          6           0        1.992883    3.298043    0.990389
     24          1           0        1.555725    1.177548   -0.735656
     25          1           0        1.781746    0.539007    0.889860
     26          1           0        3.520883    2.690953   -0.413026
     27          1           0        3.745802    2.052552    1.211614
     28          1           0        1.468540    2.902382    1.866241
     29          1           0        1.242342    3.544411    0.232371
     30          1           0        2.494252    4.225149    1.285284
     31          6           0        3.296748   -0.074474   -0.515351
     32          6           0        2.625236   -1.382114   -0.936222
     33          6           0        3.619561   -2.409706   -1.477671
     34          1           0        3.830699    0.349328   -1.377142
     35          1           0        4.056720   -0.289212    0.248373
     36          1           0        1.866642   -1.164214   -1.698896
     37          1           0        2.091562   -1.802617   -0.074257
     38          1           0        4.370103   -2.656074   -0.719654
     39          1           0        4.143905   -2.014045   -2.353524
     40          1           0        3.118193   -3.336812   -1.772567
 ---------------------------------------------------------------------

 SCF Done:  E(RHF) =  -470.733349975     A.U. after   11 cycles
 E2 =    -0.1583405184D+01 EUMP2 =    -0.47231675515939D+03

 The electronic state is 1-A.
 Alpha  occ. eigenvalues --  -11.21646 -11.21597 -11.21586 -11.21582 -11.21415
 Alpha  occ. eigenvalues --  -11.21371 -11.21350 -11.21307 -11.21103 -11.21060
 Alpha  occ. eigenvalues --  -11.21055 -11.21054  -1.08452  -1.08398  -1.03550
 Alpha  occ. eigenvalues --   -1.03509  -0.95988  -0.95965  -0.87015  -0.86974
 Alpha  occ. eigenvalues --   -0.79642  -0.79557  -0.78335  -0.78136  -0.65112
 Alpha  occ. eigenvalues --   -0.65009  -0.61025  -0.60843  -0.59366  -0.59324
 Alpha  occ. eigenvalues --   -0.57603  -0.57572  -0.55285  -0.55250  -0.52692
 Alpha  occ. eigenvalues --   -0.52661  -0.52438  -0.52369  -0.50016  -0.49857
 Alpha  occ. eigenvalues --   -0.48009  -0.47856  -0.46786  -0.46517  -0.46034
 Alpha  occ. eigenvalues --   -0.45743  -0.45672  -0.45331  -0.43796  -0.43764
 Alpha virt. eigenvalues --    0.20888   0.23229   0.23683   0.24308   0.25359
 Alpha virt. eigenvalues --    0.25818   0.27068   0.27937   0.28474   0.29692
 Alpha virt. eigenvalues --    0.30350   0.31524   0.31711   0.31868   0.32056

 Mulliken charges:
               1
     1  C   -0.300123
     2  C   -0.298849
     3  C   -0.485217
     4  H    0.152344
     5  H    0.149325
     6  H    0.151864
     7  H    0.151788
     8  H    0.154647
     9  H    0.163966
    10  H    0.160034
    11  C   -0.298362
    12  C   -0.299479
    13  C   -0.475689
    14  H    0.149366
    15  H    0.149544
    16  H    0.151517
    17  H    0.152142
    18  H    0.155197
    19  H    0.155085
    20  H    0.160152
    21  C   -0.301653
    22  C   -0.299736
    23  C   -0.475614
    24  H    0.149551
    25  H    0.153226
    26  H    0.151845
    27  H    0.152001
    28  H    0.155333
    29  H    0.155392
    30  H    0.160086
    31  C   -0.297753
    32  C   -0.308039
    33  C   -0.475012
    34  H    0.149588
    35  H    0.149806
    36  H    0.151170
    37  H    0.159475
    38  H    0.155490
    39  H    0.155331
    40  H    0.160260
 Sum of Mulliken charges =  -0.00000

 Dipole moment (field-independent basis, Debye):
    X=              0.0229    Y=              0.0025    Z=              0.0003  Tot=              0.0231
 Quadrupole moment (field-independent basis, Debye-Ang):
   XX=            -85.7503   YY=            -85.3431   ZZ=            -83.7052
   XY=              0.5018   XZ=             -0.5291   YZ=             -0.2311

 Normal termination of Gaussian 16 at Thu May  6 05:35:22 2021.
