 Gaussian 16, Revision A.03,
 Gaussian 16:  EM64L-G16RevA.03 25-Dec-2016

 -------------
 #p 6-31g* mp2
 -------------

 ------------------------------------------------------
 Input file generated by CHIRIPA (05-May-2021 14:57:25)
 ------------------------------------------------------
 Symbolic Z-matrix:
 Charge =  0 Multiplicity = 1

                         Standard orientation:
 ---------------------------------------------------------------------
 Center     Atomic      Atomic             Coordinates (Angstroms)
 Number     Number       Type             X           Y           Z
 ---------------------------------------------------------------------
      1          6           0       -2.011754   -2.332493   -1.011143
      2          6           0       -3.365338   -2.250333   -0.668244
      3          6           0       -3.904532   -1.053507   -0.187178
      4          6           0       -3.057598    0.046526   -0.061001
      5          6           0       -1.704940   -0.003831   -0.394272
      6          6           0       -1.187328   -1.210956   -0.873306
      7          1           0       -1.601278   -3.266217   -1.384058
      8          1           0       -4.007960   -3.119726   -0.774258
      9          1           0       -4.948859   -0.962106    0.085668
     10          1           0       -1.089231    0.879762   -0.277721
     11          1           0       -0.135742   -1.271849   -1.138832
     12          7           0       -3.616994    1.319004    0.447206
     13          8           0       -2.849832    2.273833    0.549190
     14          8           0       -4.812019    1.337449    0.733932
     15          6           0        2.735849    2.537754   -0.676636
     16          6           0        1.709879    1.954510    0.074186
     17          6           0        1.826274    0.639550    0.534490
     18          6           0        2.987595   -0.066370    0.224170
     19          6           0        4.027184    0.486951   -0.521741
     20          6           0        3.889194    1.803408   -0.971682
     21          1           0        2.637044    3.559829   -1.030186
     22          1           0        0.813047    2.522434    0.304835
     23          1           0        1.047345    0.163509    1.117648
     24          1           0        4.909285   -0.104257   -0.735722
     25          1           0        4.687584    2.253794   -1.554580
     26          7           0        3.122248   -1.459252    0.705987
     27          8           0        4.155425   -2.060000    0.419136
     28          8           0        2.192062   -1.923870    1.361365
 ---------------------------------------------------------------------

 SCF Done:  E(RHF) =  -868.338459283     A.U. after   16 cycles
 E2 =    -0.2601986653D+01 EUMP2 =    -0.87094044593588D+03

 The electronic state is 1-A.
 Alpha  occ. eigenvalues --  -20.61421 -20.61411 -20.61136 -20.61097 -15.86462
 Alpha  occ. eigenvalues --  -15.86160 -11.31802 -11.31347 -11.28329 -11.28321
 Alpha  occ. eigenvalues --  -11.27992 -11.27911 -11.27839 -11.27478 -11.27298
 Alpha  occ. eigenvalues --  -11.27263 -11.26813 -11.26795  -1.60499  -1.60185
 Alpha  occ. eigenvalues --   -1.40049  -1.39751  -1.19958  -1.19473  -1.09330
 Alpha  occ. eigenvalues --   -1.08878  -1.05373  -1.04837  -0.96178  -0.95760
 Alpha  occ. eigenvalues --   -0.86720  -0.86252  -0.83016  -0.82607  -0.78151
 Alpha  occ. eigenvalues --   -0.77643  -0.72668  -0.72388  -0.71840  -0.71499
 Alpha  occ. eigenvalues --   -0.71031  -0.70541  -0.65605  -0.65333  -0.65099
 Alpha  occ. eigenvalues --   -0.64805  -0.62874  -0.62005  -0.55768  -0.55303
 Alpha  occ. eigenvalues --   -0.53655  -0.53453  -0.53117  -0.52915  -0.49436
 Alpha  occ. eigenvalues --   -0.49426  -0.49159  -0.49107  -0.45454  -0.45195
 Alpha  occ. eigenvalues --   -0.37901  -0.37387  -0.36971  -0.36413
 Alpha virt. eigenvalues --    0.04372   0.04817   0.10604   0.11192   0.15786
 Alpha virt. eigenvalues --    0.16328   0.20338   0.21975   0.25688   0.27517
 Alpha virt. eigenvalues --    0.27906   0.29222   0.29600   0.31469   0.31957

 Mulliken charges:
               1
     1  C   -0.168501
     2  C   -0.218027
     3  C   -0.170336
     4  C    0.159566
     5  C   -0.181130
     6  C   -0.215962
     7  H    0.230631
     8  H    0.225111
     9  H    0.275753
    10  H    0.269849
    11  H    0.227164
    12  N    0.488687
    13  O   -0.469410
    14  O   -0.457138
    15  C   -0.170254
    16  C   -0.229643
    17  C   -0.182732
    18  C    0.155099
    19  C   -0.171061
    20  C   -0.218141
    21  H    0.231073
    22  H    0.238816
    23  H    0.279911
    24  H    0.276895
    25  H    0.226184
    26  N    0.487057
    27  O   -0.458347
    28  O   -0.461113
 Sum of Mulliken charges =  -0.00000

 Dipole moment (field-independent basis, Debye):
    X=              1.6062    Y=              0.3460    Z=             -3.5488  Tot=              3.9107
 Quadrupole moment (field-independent basis, Debye-Ang):
   XX=           -110.9354   YY=           -105.2557   ZZ=           -105.8092
   XY=             31.5034   XZ=             -2.5568   YZ=              1.4194

 Normal termination of Gaussian 16 at Fri May  7 12:40:21 2021.
