 Gaussian 16, Revision A.03,
 Gaussian 16:  EM64L-G16RevA.03 25-Dec-2016

 -------------
 #p 6-31g* mp2
 -------------

 ------------------------------------------------------
 Input file generated by CHIRIPA (05-May-2021 14:55:25)
 ------------------------------------------------------
 Symbolic Z-matrix:
 Charge =  0 Multiplicity = 1

                         Standard orientation:
 ---------------------------------------------------------------------
 Center     Atomic      Atomic             Coordinates (Angstroms)
 Number     Number       Type             X           Y           Z
 ---------------------------------------------------------------------
      1          6           0        0.438903    0.205813    2.090362
      2          6           0        1.285689    1.247761    1.698163
      3          6           0        2.270697    1.035594    0.728993
      4          6           0        2.381517   -0.236750    0.170290
      5          6           0        1.552974   -1.295090    0.540049
      6          6           0        0.575008   -1.060055    1.511074
      7          1           0       -0.323540    0.379512    2.843957
      8          1           0        1.182280    2.231880    2.146339
      9          1           0        2.939602    1.824392    0.406839
     10          1           0        1.680212   -2.265264    0.075300
     11          1           0       -0.081218   -1.871116    1.813718
     12          7           0        3.420574   -0.473466   -0.856709
     13          8           0        3.497814   -1.603559   -1.333742
     14          8           0        4.138072    0.475571   -1.165192
     15          6           0       -2.688374   -0.493742   -0.511043
     16          6           0       -3.860906   -1.378380   -0.086112
     17          6           0       -3.564037   -2.869851   -0.244782
     18          1           0       -2.435312   -0.709323   -1.558149
     19          1           0       -1.803916   -0.757945    0.085048
     20          1           0       -4.743256   -1.111638   -0.681868
     21          1           0       -4.111331   -1.160531    0.960045
     22          1           0       -2.699794   -3.157379    0.362684
     23          1           0       -3.335310   -3.108208   -1.288559
     24          1           0       -4.415582   -3.483831    0.064671
     25          6           0       -2.969913    0.999947   -0.358208
     26          6           0       -1.797381    1.884585   -0.783140
     27          6           0       -2.094250    3.376057   -0.624471
     28          1           0       -3.854371    1.264150   -0.954300
     29          1           0       -3.222975    1.215528    0.688897
     30          1           0       -1.546956    1.666736   -1.829298
     31          1           0       -0.915031    1.617843   -0.187385
     32          1           0       -2.322977    3.614413    0.419306
     33          1           0       -2.958493    3.663584   -1.231936
     34          1           0       -1.242706    3.990036   -0.933922
 ---------------------------------------------------------------------

 SCF Done:  E(RHF) =  -669.534052794     A.U. after   15 cycles
 E2 =    -0.2095219764D+01 EUMP2 =    -0.67162927255745D+03

 The electronic state is 1-A.
 Alpha  occ. eigenvalues --  -20.60863 -20.60858 -15.85918 -11.31343 -11.27916
 Alpha  occ. eigenvalues --  -11.27910 -11.27659 -11.26935 -11.26925 -11.22079
 Alpha  occ. eigenvalues --  -11.21775 -11.21710 -11.21651 -11.21641 -11.21416
 Alpha  occ. eigenvalues --   -1.59936  -1.39488  -1.19537  -1.08959  -1.08765
 Alpha  occ. eigenvalues --   -1.04949  -1.03921  -0.96391  -0.95735  -0.87408
 Alpha  occ. eigenvalues --   -0.86337  -0.82564  -0.79975  -0.78616  -0.77595
 Alpha  occ. eigenvalues --   -0.72136  -0.71259  -0.70624  -0.65542  -0.65180
 Alpha  occ. eigenvalues --   -0.64892  -0.62287  -0.61345  -0.59753  -0.57992
 Alpha  occ. eigenvalues --   -0.55719  -0.55432  -0.53424  -0.53025  -0.53018
 Alpha  occ. eigenvalues --   -0.52813  -0.50364  -0.48901  -0.48886  -0.48304
 Alpha  occ. eigenvalues --   -0.47041  -0.46137  -0.45997  -0.44880  -0.44154
 Alpha  occ. eigenvalues --   -0.37409  -0.36459
 Alpha virt. eigenvalues --    0.04921   0.10975   0.16337   0.19943   0.23163
 Alpha virt. eigenvalues --    0.23249   0.26029   0.26421   0.27497   0.28193
 Alpha virt. eigenvalues --    0.28619   0.30126   0.31311   0.31526   0.31897

 Mulliken charges:
               1
     1  C   -0.169870
     2  C   -0.219760
     3  C   -0.169580
     4  C    0.159619
     5  C   -0.169916
     6  C   -0.219485
     7  H    0.227029
     8  H    0.225168
     9  H    0.276573
    10  H    0.276831
    11  H    0.226013
    12  N    0.488058
    13  O   -0.459765
    14  O   -0.459926
    15  C   -0.306631
    16  C   -0.299579
    17  C   -0.474151
    18  H    0.152399
    19  H    0.153319
    20  H    0.154479
    21  H    0.147571
    22  H    0.146082
    23  H    0.159157
    24  H    0.162160
    25  C   -0.296396
    26  C   -0.309574
    27  C   -0.475412
    28  H    0.150892
    29  H    0.142414
    30  H    0.154291
    31  H    0.161210
    32  H    0.149571
    33  H    0.157012
    34  H    0.160195
 Sum of Mulliken charges =  -0.00000

 Dipole moment (field-independent basis, Debye):
    X=             -3.4996    Y=              0.8013    Z=              3.5800  Tot=              5.0701
 Quadrupole moment (field-independent basis, Debye-Ang):
   XX=           -112.5255   YY=            -92.1121   ZZ=            -93.1540
   XY=              4.7182   XZ=              8.8020   YZ=             -0.2884

 Normal termination of Gaussian 16 at Wed May  5 20:49:34 2021.
