 Gaussian 16, Revision A.03,
 Gaussian 16:  EM64L-G16RevA.03 25-Dec-2016

 -------------
 #p 6-31g* mp2
 -------------

 ------------------------------------------------------
 Input file generated by CHIRIPA (05-May-2021 14:57:27)
 ------------------------------------------------------
 Symbolic Z-matrix:
 Charge =  0 Multiplicity = 1

                         Standard orientation:
 ---------------------------------------------------------------------
 Center     Atomic      Atomic             Coordinates (Angstroms)
 Number     Number       Type             X           Y           Z
 ---------------------------------------------------------------------
      1          6           0       -2.974750    2.314674   -0.770071
      2          6           0       -2.503270    1.300113   -1.609651
      3          6           0       -2.260233    0.018332   -1.107138
      4          6           0       -2.500612   -0.214951    0.246038
      5          6           0       -2.970264    0.774981    1.107868
      6          6           0       -3.206334    2.049338    0.583622
      7          1           0       -3.160841    3.307508   -1.168877
      8          1           0       -2.322527    1.503303   -2.661360
      9          1           0       -1.895145   -0.785548   -1.734757
     10          1           0       -3.141036    0.542145    2.151919
     11          1           0       -3.572483    2.835326    1.237994
     12          7           0       -2.247008   -1.567985    0.789530
     13          8           0       -2.466719   -1.747938    1.985348
     14          8           0       -1.833323   -2.422921    0.009410
     15          6           0        3.449356    2.033814    1.015790
     16          6           0        2.661923    2.177183   -0.131343
     17          6           0        2.154087    1.052852   -0.789017
     18          6           0        2.454729   -0.205445   -0.269794
     19          6           0        3.236329   -0.380934    0.871082
     20          6           0        3.733545    0.757465    1.512466
     21          1           0        3.839730    2.912685    1.520359
     22          1           0        2.439599    3.167178   -0.519322
     23          1           0        1.541889    1.135035   -1.678891
     24          1           0        3.440899   -1.380832    1.234085
     25          1           0        4.344804    0.643103    2.403155
     26          7           0        1.922728   -1.403169   -0.957420
     27          8           0        2.201990   -2.500736   -0.479930
     28          8           0        1.236556   -1.221700   -1.960851
 ---------------------------------------------------------------------

 SCF Done:  E(RHF) =  -868.337399780     A.U. after   16 cycles
 E2 =    -0.2600787384D+01 EUMP2 =    -0.87093818716454D+03

 The electronic state is 1-A.
 Alpha  occ. eigenvalues --  -20.60625 -20.60534 -20.60233 -20.60155 -15.85633
 Alpha  occ. eigenvalues --  -15.85250 -11.31114 -11.30783 -11.27751 -11.27657
 Alpha  occ. eigenvalues --  -11.27475 -11.27465 -11.27274 -11.27260 -11.26781
 Alpha  occ. eigenvalues --  -11.26709 -11.26513 -11.26435  -1.59626  -1.59279
 Alpha  occ. eigenvalues --   -1.39189  -1.38819  -1.19300  -1.19010  -1.08673
 Alpha  occ. eigenvalues --   -1.08391  -1.04724  -1.04424  -0.95490  -0.95175
 Alpha  occ. eigenvalues --   -0.86119  -0.85819  -0.82328  -0.81993  -0.77358
 Alpha  occ. eigenvalues --   -0.76989  -0.71863  -0.71461  -0.70977  -0.70584
 Alpha  occ. eigenvalues --   -0.70417  -0.70108  -0.64959  -0.64736  -0.64653
 Alpha  occ. eigenvalues --   -0.64429  -0.62077  -0.61731  -0.55228  -0.54965
 Alpha  occ. eigenvalues --   -0.53052  -0.52848  -0.52746  -0.52504  -0.48620
 Alpha  occ. eigenvalues --   -0.48584  -0.48253  -0.48189  -0.44566  -0.44173
 Alpha  occ. eigenvalues --   -0.37295  -0.37048  -0.36343  -0.36022
 Alpha virt. eigenvalues --    0.05116   0.05574   0.11302   0.11612   0.16632
 Alpha virt. eigenvalues --    0.16924   0.21319   0.21797   0.27132   0.27608
 Alpha virt. eigenvalues --    0.28311   0.28825   0.30948   0.31261   0.32566

 Mulliken charges:
               1
     1  C   -0.172485
     2  C   -0.224602
     3  C   -0.170671
     4  C    0.154077
     5  C   -0.171223
     6  C   -0.219911
     7  H    0.222211
     8  H    0.223119
     9  H    0.292116
    10  H    0.274099
    11  H    0.220513
    12  N    0.485892
    13  O   -0.465320
    14  O   -0.448921
    15  C   -0.171229
    16  C   -0.218260
    17  C   -0.169666
    18  C    0.158303
    19  C   -0.169426
    20  C   -0.218399
    21  H    0.224554
    22  H    0.220196
    23  H    0.270149
    24  H    0.278552
    25  H    0.224128
    26  N    0.490464
    27  O   -0.450056
    28  O   -0.468206
 Sum of Mulliken charges =  -0.00000

 Dipole moment (field-independent basis, Debye):
    X=              1.1327    Y=              8.6019    Z=              0.4782  Tot=              8.6894
 Quadrupole moment (field-independent basis, Debye-Ang):
   XX=            -91.3803   YY=           -107.3316   ZZ=           -101.4087
   XY=             -3.6901   XZ=             10.8833   YZ=             -0.5136

 Normal termination of Gaussian 16 at Thu May  6 14:51:29 2021.
