 Gaussian 16, Revision A.03,
 Gaussian 16:  EM64L-G16RevA.03 25-Dec-2016

 -------------
 #p 6-31g* mp2
 -------------

 ------------------------------------------------------
 Input file generated by CHIRIPA (05-May-2021 14:53:12)
 ------------------------------------------------------
 Symbolic Z-matrix:
 Charge =  0 Multiplicity = 1

                         Standard orientation:
 ---------------------------------------------------------------------
 Center     Atomic      Atomic             Coordinates (Angstroms)
 Number     Number       Type             X           Y           Z
 ---------------------------------------------------------------------
      1          6           0        4.782820   -0.015613   -0.354815
      2          6           0        6.029434    0.443862    0.402034
      3          6           0        7.143812    0.921847   -0.529355
      4          1           0        5.058127   -0.824833   -1.044971
      5          1           0        4.413259    0.812373   -0.975508
      6          1           0        6.395731   -0.384310    1.022173
      7          1           0        5.751092    1.251953    1.090606
      8          1           0        6.801537    1.764419   -1.138882
      9          1           0        7.449839    0.118858   -1.207704
     10          1           0        8.025414    1.245670    0.032585
     11          6           0        3.659937   -0.496366    0.562646
     12          6           0        2.413323   -0.955842   -0.194203
     13          6           0        1.298945   -1.433827    0.737186
     14          1           0        4.029498   -1.324352    1.183339
     15          1           0        3.384631    0.312854    1.252801
     16          1           0        2.691665   -1.763932   -0.882776
     17          1           0        2.047026   -0.127669   -0.814342
     18          1           0        0.992918   -0.630838    1.415535
     19          1           0        1.641220   -2.276398    1.346713
     20          1           0        0.417344   -1.757650    0.175245
     21          6           0       -3.120285    2.711117    0.087950
     22          6           0       -4.365534    2.087208    0.216844
     23          6           0       -4.475827    0.696552    0.124871
     24          6           0       -3.315128   -0.042775   -0.097535
     25          6           0       -2.060212    0.549561   -0.230250
     26          6           0       -1.973620    1.941659   -0.134793
     27          1           0       -3.043812    3.791973    0.160749
     28          1           0       -5.257736    2.682254    0.389873
     29          1           0       -5.427288    0.187704    0.220868
     30          1           0       -1.188603   -0.070221   -0.402263
     31          1           0       -1.005226    2.423487   -0.235291
     32          7           0       -3.419345   -1.515763   -0.196746
     33          8           0       -2.381754   -2.144645   -0.393084
     34          8           0       -4.536649   -2.013519   -0.076292
 ---------------------------------------------------------------------

 SCF Done:  E(RHF) =  -669.535666700     A.U. after   15 cycles
 E2 =    -0.2091805562D+01 EUMP2 =    -0.67162747226229D+03

 The electronic state is 1-A.
 Alpha  occ. eigenvalues --  -20.60842 -20.60837 -15.85882 -11.31183 -11.27764
 Alpha  occ. eigenvalues --  -11.27711 -11.27507 -11.26770 -11.26755 -11.21726
 Alpha  occ. eigenvalues --  -11.21718 -11.21530 -11.21469 -11.21188 -11.20919
 Alpha  occ. eigenvalues --   -1.59906  -1.39464  -1.19362  -1.08771  -1.08546
 Alpha  occ. eigenvalues --   -1.04759  -1.03618  -0.96056  -0.95607  -0.87064
 Alpha  occ. eigenvalues --   -0.86157  -0.82450  -0.79680  -0.78362  -0.77503
 Alpha  occ. eigenvalues --   -0.72112  -0.71220  -0.70483  -0.65197  -0.65020
 Alpha  occ. eigenvalues --   -0.64775  -0.62168  -0.61006  -0.59377  -0.57648
 Alpha  occ. eigenvalues --   -0.55406  -0.55211  -0.53092  -0.52990  -0.52586
 Alpha  occ. eigenvalues --   -0.52407  -0.49991  -0.48868  -0.48852  -0.47966
 Alpha  occ. eigenvalues --   -0.46736  -0.45895  -0.45843  -0.44885  -0.43821
 Alpha  occ. eigenvalues --   -0.37348  -0.36355
 Alpha virt. eigenvalues --    0.05020   0.11283   0.16510   0.20408   0.22858
 Alpha virt. eigenvalues --    0.23923   0.26321   0.26938   0.27460   0.27770
 Alpha virt. eigenvalues --    0.29484   0.30272   0.31475   0.31648   0.31906

 Mulliken charges:
               1
     1  C   -0.297914
     2  C   -0.299595
     3  C   -0.475670
     4  H    0.151276
     5  H    0.146946
     6  H    0.153062
     7  H    0.150758
     8  H    0.154223
     9  H    0.156057
    10  H    0.160503
    11  C   -0.297648
    12  C   -0.300513
    13  C   -0.494714
    14  H    0.152021
    15  H    0.146823
    16  H    0.156744
    17  H    0.142411
    18  H    0.147869
    19  H    0.161159
    20  H    0.184250
    21  C   -0.170232
    22  C   -0.219156
    23  C   -0.170014
    24  C    0.155379
    25  C   -0.172818
    26  C   -0.222682
    27  H    0.225546
    28  H    0.223398
    29  H    0.275516
    30  H    0.287631
    31  H    0.223528
    32  N    0.490523
    33  O   -0.465094
    34  O   -0.459573
 Sum of Mulliken charges =  -0.00000

 Dipole moment (field-independent basis, Debye):
    X=              0.3360    Y=              5.0515    Z=              0.3528  Tot=              5.0750
 Quadrupole moment (field-independent basis, Debye-Ang):
   XX=            -92.8412   YY=            -94.7210   ZZ=            -95.9929
   XY=            -18.6898   XZ=             -1.5827   YZ=             -0.2421

 Normal termination of Gaussian 16 at Thu May  6 15:18:29 2021.
