 Gaussian 16, Revision A.03,
 Gaussian 16:  EM64L-G16RevA.03 25-Dec-2016

 -------------
 #p 6-31g* mp2
 -------------

 ------------------------------------------------------
 Input file generated by CHIRIPA (05-May-2021 14:53:13)
 ------------------------------------------------------
 Symbolic Z-matrix:
 Charge =  0 Multiplicity = 1

                         Standard orientation:
 ---------------------------------------------------------------------
 Center     Atomic      Atomic             Coordinates (Angstroms)
 Number     Number       Type             X           Y           Z
 ---------------------------------------------------------------------
      1          6           0       -3.064609    0.148534    0.145218
      2          6           0       -4.301547   -0.304907   -0.630901
      3          6           0       -4.968246    0.836255   -1.399704
      4          1           0       -3.350428    0.945994    0.844725
      5          1           0       -2.342701    0.590987   -0.555124
      6          1           0       -5.020326   -0.747629    0.070505
      7          1           0       -4.012786   -1.101512   -1.328506
      8          1           0       -4.270817    1.273645   -2.121427
      9          1           0       -5.284081    1.629539   -0.714467
     10          1           0       -5.850295    0.489905   -1.947327
     11          6           0       -2.387078   -0.981105    0.918908
     12          6           0       -1.150139   -0.527665    1.695027
     13          6           0       -0.483441   -1.668826    2.463829
     14          1           0       -3.108986   -1.423558    1.619250
     15          1           0       -2.101258   -1.778565    0.219401
     16          1           0       -1.438900    0.268941    2.392631
     17          1           0       -0.431361   -0.084942    0.993620
     18          1           0       -0.167606   -2.462110    1.778593
     19          1           0       -1.180870   -2.106216    3.185552
     20          1           0        0.398608   -1.322476    3.011453
     21          6           0        2.582745   -1.889227   -1.536729
     22          6           0        1.653112   -1.002149   -2.089355
     23          6           0        1.394046    0.227547   -1.476754
     24          6           0        2.085753    0.539308   -0.307295
     25          6           0        3.017785   -0.323264    0.267664
     26          6           0        3.260920   -1.547555   -0.362054
     27          1           0        2.777806   -2.842385   -2.019260
     28          1           0        1.124951   -1.264846   -3.001541
     29          1           0        0.679485    0.933038   -1.883082
     30          1           0        3.528663   -0.033469    1.177851
     31          1           0        3.983422   -2.234506    0.069378
     32          7           0        1.819924    1.838271    0.350299
     33          8           0        2.442507    2.089357    1.379855
     34          8           0        0.994019    2.580717   -0.176286
 ---------------------------------------------------------------------

 SCF Done:  E(RHF) =  -669.535163582     A.U. after   15 cycles
 E2 =    -0.2093807699D+01 EUMP2 =    -0.67162897128099D+03

 The electronic state is 1-A.
 Alpha  occ. eigenvalues --  -20.60840 -20.60834 -15.85879 -11.31253 -11.27833
 Alpha  occ. eigenvalues --  -11.27829 -11.27578 -11.26865 -11.26851 -11.21532
 Alpha  occ. eigenvalues --  -11.21355 -11.21264 -11.21185 -11.20977 -11.20963
 Alpha  occ. eigenvalues --   -1.59906  -1.39460  -1.19449  -1.08840  -1.08288
 Alpha  occ. eigenvalues --   -1.04848  -1.03402  -0.95857  -0.95666  -0.86875
 Alpha  occ. eigenvalues --   -0.86246  -0.82496  -0.79468  -0.78097  -0.77539
 Alpha  occ. eigenvalues --   -0.72102  -0.71245  -0.70546  -0.65098  -0.64938
 Alpha  occ. eigenvalues --   -0.64843  -0.62193  -0.60825  -0.59225  -0.57463
 Alpha  occ. eigenvalues --   -0.55344  -0.55169  -0.53168  -0.52937  -0.52547
 Alpha  occ. eigenvalues --   -0.52275  -0.49809  -0.48865  -0.48859  -0.47778
 Alpha  occ. eigenvalues --   -0.46516  -0.45656  -0.45583  -0.44807  -0.43653
 Alpha  occ. eigenvalues --   -0.37367  -0.36435
 Alpha virt. eigenvalues --    0.04967   0.11113   0.16474   0.21093   0.22869
 Alpha virt. eigenvalues --    0.24282   0.25900   0.27217   0.27399   0.28068
 Alpha virt. eigenvalues --    0.28626   0.30981   0.31388   0.31639   0.32011

 Mulliken charges:
               1
     1  C   -0.298017
     2  C   -0.299552
     3  C   -0.475134
     4  H    0.154488
     5  H    0.148816
     6  H    0.152018
     7  H    0.147710
     8  H    0.154234
     9  H    0.157775
    10  H    0.158935
    11  C   -0.297803
    12  C   -0.302228
    13  C   -0.475723
    14  H    0.149209
    15  H    0.144882
    16  H    0.158216
    17  H    0.151688
    18  H    0.151311
    19  H    0.154781
    20  H    0.160596
    21  C   -0.171351
    22  C   -0.217034
    23  C   -0.174227
    24  C    0.156401
    25  C   -0.170967
    26  C   -0.217503
    27  H    0.226001
    28  H    0.223787
    29  H    0.275837
    30  H    0.275933
    31  H    0.224061
    32  N    0.492726
    33  O   -0.459793
    34  O   -0.460073
 Sum of Mulliken charges =  -0.00000

 Dipole moment (field-independent basis, Debye):
    X=              0.9987    Y=             -4.4865    Z=             -2.2726  Tot=              5.1274
 Quadrupole moment (field-independent basis, Debye-Ang):
   XX=            -89.0033   YY=           -100.6773   ZZ=            -90.8424
   XY=            -10.0644   XZ=             -3.4555   YZ=              0.0602

 Normal termination of Gaussian 16 at Wed May  5 17:03:42 2021.
