 Gaussian 16, Revision A.03,
 Gaussian 16:  EM64L-G16RevA.03 25-Dec-2016

 -------------
 #p 6-31g* mp2
 -------------

 ------------------------------------------------------
 Input file generated by CHIRIPA (05-May-2021 14:53:12)
 ------------------------------------------------------
 Symbolic Z-matrix:
 Charge =  0 Multiplicity = 1

                         Standard orientation:
 ---------------------------------------------------------------------
 Center     Atomic      Atomic             Coordinates (Angstroms)
 Number     Number       Type             X           Y           Z
 ---------------------------------------------------------------------
      1          6           0        3.012570    0.584967   -0.570796
      2          6           0        3.349138    2.050149   -0.291604
      3          6           0        3.080176    2.957662   -1.492385
      4          1           0        3.599033    0.238459   -1.432735
      5          1           0        1.955474    0.507603   -0.860549
      6          1           0        4.404932    2.124551   -0.001123
      7          1           0        2.761947    2.393154    0.569890
      8          1           0        2.024824    2.913089   -1.780215
      9          1           0        3.677143    2.642960   -2.354472
     10          1           0        3.327656    4.000513   -1.270859
     11          6           0        3.276130   -0.334735    0.620175
     12          6           0        2.939563   -1.799918    0.340983
     13          6           0        3.208525   -2.707430    1.541764
     14          1           0        4.333227   -0.257371    0.909928
     15          1           0        2.689667    0.011773    1.482114
     16          1           0        3.526753   -2.142923   -0.520510
     17          1           0        1.883769   -1.874320    0.050502
     18          1           0        2.611558   -2.392728    2.403851
     19          1           0        4.263877   -2.662857    1.829594
     20          1           0        2.961044   -3.750282    1.320238
     21          6           0       -3.139241    1.915947    1.338967
     22          6           0       -4.095244    1.216515    0.595076
     23          6           0       -3.728311    0.099362   -0.161151
     24          6           0       -2.390521   -0.292423   -0.150600
     25          6           0       -1.414779    0.383662    0.580240
     26          6           0       -1.804413    1.498025    1.329192
     27          1           0       -3.433101    2.782694    1.923596
     28          1           0       -5.132618    1.538804    0.600791
     29          1           0       -4.447900   -0.460446   -0.746150
     30          1           0       -0.388342    0.038414    0.554769
     31          1           0       -1.059817    2.039291    1.905953
     32          7           0       -1.990049   -1.473625   -0.947333
     33          8           0       -0.804981   -1.798549   -0.921343
     34          8           0       -2.868811   -2.052163   -1.582715
 ---------------------------------------------------------------------

 SCF Done:  E(RHF) =  -669.536009089     A.U. after   15 cycles
 E2 =    -0.2092236577D+01 EUMP2 =    -0.67162824566625D+03

 The electronic state is 1-A.
 Alpha  occ. eigenvalues --  -20.60944 -20.60932 -15.85982 -11.31298 -11.27861
 Alpha  occ. eigenvalues --  -11.27856 -11.27593 -11.26869 -11.26859 -11.21716
 Alpha  occ. eigenvalues --  -11.21313 -11.21237 -11.21159 -11.20939 -11.20613
 Alpha  occ. eigenvalues --   -1.60004  -1.39561  -1.19466  -1.08869  -1.08289
 Alpha  occ. eigenvalues --   -1.04863  -1.03324  -0.95810  -0.95713  -0.86827
 Alpha  occ. eigenvalues --   -0.86264  -0.82551  -0.79398  -0.78070  -0.77580
 Alpha  occ. eigenvalues --   -0.72209  -0.71318  -0.70578  -0.65133  -0.65041
 Alpha  occ. eigenvalues --   -0.64775  -0.62200  -0.60725  -0.59181  -0.57385
 Alpha  occ. eigenvalues --   -0.55377  -0.55111  -0.53193  -0.52953  -0.52487
 Alpha  occ. eigenvalues --   -0.52214  -0.49783  -0.48983  -0.48951  -0.47697
 Alpha  occ. eigenvalues --   -0.46443  -0.45615  -0.45436  -0.44968  -0.43601
 Alpha  occ. eigenvalues --   -0.37443  -0.36462
 Alpha virt. eigenvalues --    0.04910   0.11160   0.16431   0.19206   0.22846
 Alpha virt. eigenvalues --    0.24286   0.25837   0.26840   0.27826   0.28089
 Alpha virt. eigenvalues --    0.29792   0.30973   0.31647   0.31940   0.32197

 Mulliken charges:
               1
     1  C   -0.302264
     2  C   -0.297958
     3  C   -0.475502
     4  H    0.154036
     5  H    0.151851
     6  H    0.153165
     7  H    0.143244
     8  H    0.154595
     9  H    0.157863
    10  H    0.158765
    11  C   -0.297861
    12  C   -0.314183
    13  C   -0.474515
    14  H    0.149277
    15  H    0.138687
    16  H    0.152806
    17  H    0.179173
    18  H    0.150164
    19  H    0.151766
    20  H    0.164029
    21  C   -0.170341
    22  C   -0.218657
    23  C   -0.170408
    24  C    0.157187
    25  C   -0.175130
    26  C   -0.220162
    27  H    0.226139
    28  H    0.223909
    29  H    0.275845
    30  H    0.282812
    31  H    0.224266
    32  N    0.494802
    33  O   -0.468574
    34  O   -0.458825
 Sum of Mulliken charges =  -0.00000

 Dipole moment (field-independent basis, Debye):
    X=             -1.5321    Y=              4.0375    Z=              2.6526  Tot=              5.0681
 Quadrupole moment (field-independent basis, Debye-Ang):
   XX=            -82.6439   YY=            -98.3669   ZZ=            -96.5048
   XY=             -9.3167   XZ=             -5.8740   YZ=             -0.3451

 Normal termination of Gaussian 16 at Thu May  6 00:56:43 2021.
