 Gaussian 16, Revision A.03,
 Gaussian 16:  EM64L-G16RevA.03 25-Dec-2016

 -------------
 #p 6-31g* mp2
 -------------

 ------------------------------------------------------
 Input file generated by CHIRIPA (05-May-2021 14:53:17)
 ------------------------------------------------------
 Symbolic Z-matrix:
 Charge =  0 Multiplicity = 1

                         Standard orientation:
 ---------------------------------------------------------------------
 Center     Atomic      Atomic             Coordinates (Angstroms)
 Number     Number       Type             X           Y           Z
 ---------------------------------------------------------------------
      1          6           0       -4.189531   -0.316076   -0.162406
      2          6           0       -5.689433   -0.566703   -0.002826
      3          6           0       -6.267627   -1.428123   -1.125965
      4          1           0       -4.006406    0.169906   -1.130514
      5          1           0       -3.664817   -1.281034   -0.192850
      6          1           0       -6.211018    0.398477    0.028698
      7          1           0       -5.869028   -1.051971    0.965098
      8          1           0       -5.773673   -2.404713   -1.155674
      9          1           0       -6.117606   -0.946024   -2.097394
     10          1           0       -7.341016   -1.594782   -0.992092
     11          6           0       -3.596946    0.543580    0.952745
     12          6           0       -2.097044    0.794207    0.793165
     13          6           0       -1.518849    1.655627    1.916303
     14          1           0       -4.121659    1.508538    0.983189
     15          1           0       -3.780070    0.057599    1.920852
     16          1           0       -1.917449    1.279475   -0.174759
     17          1           0       -1.575458   -0.170972    0.761641
     18          1           0       -1.668870    1.173529    2.887733
     19          1           0       -2.012803    2.632217    1.946012
     20          1           0       -0.445461    1.822286    1.782431
     21          6           0        1.333451    1.434335   -1.370812
     22          6           0        2.633940    1.894497   -1.139517
     23          6           0        3.588587    1.059260   -0.551659
     24          6           0        3.206730   -0.236127   -0.206047
     25          6           0        1.919035   -0.723751   -0.423665
     26          6           0        0.980771    0.128980   -1.012778
     27          1           0        0.598221    2.089962   -1.827962
     28          1           0        2.910655    2.907775   -1.416543
     29          1           0        4.602457    1.389778   -0.361280
     30          1           0        1.672892   -1.738875   -0.136689
     31          1           0       -0.028465   -0.231084   -1.191219
     32          7           0        4.208700   -1.129615    0.416956
     33          8           0        3.847208   -2.266599    0.712302
     34          8           0        5.336563   -0.676030    0.598124
 ---------------------------------------------------------------------

 SCF Done:  E(RHF) =  -669.535020769     A.U. after   15 cycles
 E2 =    -0.2092498967D+01 EUMP2 =    -0.67162751973632D+03

 The electronic state is 1-A.
 Alpha  occ. eigenvalues --  -20.60751 -20.60746 -15.85803 -11.31170 -11.27723
 Alpha  occ. eigenvalues --  -11.27709 -11.27466 -11.26760 -11.26679 -11.22494
 Alpha  occ. eigenvalues --  -11.22156 -11.22095 -11.22038 -11.21655 -11.21544
 Alpha  occ. eigenvalues --   -1.59826  -1.39379  -1.19336  -1.09130  -1.08729
 Alpha  occ. eigenvalues --   -1.04743  -1.04169  -0.96586  -0.95567  -0.87606
 Alpha  occ. eigenvalues --   -0.86137  -0.82402  -0.80288  -0.78974  -0.77428
 Alpha  occ. eigenvalues --   -0.72021  -0.71148  -0.70444  -0.65756  -0.64983
 Alpha  occ. eigenvalues --   -0.64747  -0.62106  -0.61571  -0.59953  -0.58217
 Alpha  occ. eigenvalues --   -0.55865  -0.55235  -0.53324  -0.53127  -0.52910
 Alpha  occ. eigenvalues --   -0.52796  -0.50532  -0.48810  -0.48777  -0.48510
 Alpha  occ. eigenvalues --   -0.47321  -0.46468  -0.46410  -0.44785  -0.44426
 Alpha  occ. eigenvalues --   -0.37301  -0.36309
 Alpha virt. eigenvalues --    0.05064   0.11267   0.16508   0.20338   0.22541
 Alpha virt. eigenvalues --    0.23911   0.25230   0.25591   0.27287   0.27944
 Alpha virt. eigenvalues --    0.28799   0.30390   0.31240   0.31392   0.31763

 Mulliken charges:
               1
     1  C   -0.299116
     2  C   -0.299889
     3  C   -0.476177
     4  H    0.146296
     5  H    0.148133
     6  H    0.153027
     7  H    0.154163
     8  H    0.155840
     9  H    0.154656
    10  H    0.162415
    11  C   -0.298212
    12  C   -0.299618
    13  C   -0.478182
    14  H    0.151175
    15  H    0.153425
    16  H    0.141522
    17  H    0.149447
    18  H    0.159164
    19  H    0.155329
    20  H    0.164930
    21  C   -0.173299
    22  C   -0.218679
    23  C   -0.171486
    24  C    0.158832
    25  C   -0.173972
    26  C   -0.214467
    27  H    0.225464
    28  H    0.223355
    29  H    0.275462
    30  H    0.275093
    31  H    0.228240
    32  N    0.488078
    33  O   -0.460497
    34  O   -0.460452
 Sum of Mulliken charges =  -0.00000

 Dipole moment (field-independent basis, Debye):
    X=             -3.6520    Y=              3.1542    Z=             -2.1105  Tot=              5.2669
 Quadrupole moment (field-independent basis, Debye-Ang):
   XX=           -115.2668   YY=            -93.5710   ZZ=            -94.7377
   XY=             13.4757   XZ=             -7.0804   YZ=             -1.2451

 Normal termination of Gaussian 16 at Thu May  6 20:33:18 2021.
