 Gaussian 16, Revision A.03,
 Gaussian 16:  EM64L-G16RevA.03 25-Dec-2016

 -------------
 #p 6-31g* mp2
 -------------

 ------------------------------------------------------
 Input file generated by CHIRIPA (05-May-2021 14:55:23)
 ------------------------------------------------------
 Symbolic Z-matrix:
 Charge =  0 Multiplicity = 1

                         Standard orientation:
 ---------------------------------------------------------------------
 Center     Atomic      Atomic             Coordinates (Angstroms)
 Number     Number       Type             X           Y           Z
 ---------------------------------------------------------------------
      1          6           0        4.492262   -1.701223    0.258194
      2          6           0        3.170721   -1.791475   -0.191144
      3          6           0        2.397130   -0.638921   -0.357655
      4          6           0        2.979541    0.593129   -0.064159
      5          6           0        4.293438    0.715731    0.385213
      6          6           0        5.048422   -0.450114    0.544434
      7          1           0        5.085979   -2.601717    0.384713
      8          1           0        2.736183   -2.761765   -0.414210
      9          1           0        1.371578   -0.679953   -0.704032
     10          1           0        4.699031    1.697057    0.599479
     11          1           0        6.074490   -0.377001    0.893552
     12          7           0        2.170424    1.820322   -0.236578
     13          8           0        2.706810    2.893861    0.028828
     14          8           0        1.015173    1.685419   -0.633861
     15          6           0       -3.461693   -0.866364   -0.373906
     16          6           0       -2.341369   -1.488155    0.460500
     17          6           0       -1.303192   -2.216947   -0.393224
     18          1           0       -3.954486   -1.654334   -0.959742
     19          1           0       -3.024138   -0.165591   -1.098377
     20          1           0       -2.781027   -2.186510    1.184113
     21          1           0       -1.851310   -0.698642    1.044563
     22          1           0       -0.837537   -1.527827   -1.105179
     23          1           0       -1.772536   -3.024150   -0.964836
     24          1           0       -0.511511   -2.653805    0.223426
     25          6           0       -4.507314   -0.134271    0.465406
     26          6           0       -5.627639    0.487520   -0.369000
     27          6           0       -6.665815    1.216313    0.484724
     28          1           0       -4.944870   -0.835044    1.189877
     29          1           0       -4.014521    0.653699    1.051242
     30          1           0       -6.117697   -0.301992   -0.953063
     31          1           0       -5.187980    1.185875   -1.092612
     32          1           0       -6.196471    2.023515    1.056337
     33          1           0       -7.131470    0.527192    1.196679
     34          1           0       -7.457496    1.653170   -0.131926
 ---------------------------------------------------------------------

 SCF Done:  E(RHF) =  -669.535779860     A.U. after   15 cycles
 E2 =    -0.2091312186D+01 EUMP2 =    -0.67162709204545D+03

 The electronic state is 1-A.
 Alpha  occ. eigenvalues --  -20.60784 -20.60776 -15.85832 -11.31143 -11.27729
 Alpha  occ. eigenvalues --  -11.27662 -11.27469 -11.26738 -11.26711 -11.21603
 Alpha  occ. eigenvalues --  -11.21492 -11.21296 -11.21175 -11.21082 -11.20775
 Alpha  occ. eigenvalues --   -1.59856  -1.39412  -1.19323  -1.08731  -1.08246
 Alpha  occ. eigenvalues --   -1.04719  -1.03443  -0.95931  -0.95567  -0.86961
 Alpha  occ. eigenvalues --   -0.86118  -0.82403  -0.79512  -0.78027  -0.77453
 Alpha  occ. eigenvalues --   -0.72055  -0.71177  -0.70444  -0.64977  -0.64902
 Alpha  occ. eigenvalues --   -0.64695  -0.62120  -0.60793  -0.59314  -0.57515
 Alpha  occ. eigenvalues --   -0.55362  -0.55087  -0.53060  -0.52842  -0.52630
 Alpha  occ. eigenvalues --   -0.52336  -0.49836  -0.48811  -0.48805  -0.47824
 Alpha  occ. eigenvalues --   -0.46495  -0.45586  -0.45462  -0.44827  -0.43678
 Alpha  occ. eigenvalues --   -0.37312  -0.36318
 Alpha virt. eigenvalues --    0.05063   0.11322   0.16546   0.20489   0.23113
 Alpha virt. eigenvalues --    0.24111   0.26317   0.26807   0.27414   0.28036
 Alpha virt. eigenvalues --    0.29129   0.29916   0.31515   0.31956   0.32447

 Mulliken charges:
               1
     1  C   -0.170414
     2  C   -0.223776
     3  C   -0.177431
     4  C    0.157203
     5  C   -0.170008
     6  C   -0.219189
     7  H    0.225479
     8  H    0.224664
     9  H    0.288630
    10  H    0.275379
    11  H    0.223245
    12  N    0.487145
    13  O   -0.460197
    14  O   -0.462203
    15  C   -0.300103
    16  C   -0.299110
    17  C   -0.485082
    18  H    0.147214
    19  H    0.157399
    20  H    0.151090
    21  H    0.159516
    22  H    0.157814
    23  H    0.157709
    24  H    0.153019
    25  C   -0.299097
    26  C   -0.300117
    27  C   -0.475876
    28  H    0.147388
    29  H    0.153956
    30  H    0.150228
    31  H    0.155044
    32  H    0.156848
    33  H    0.153764
    34  H    0.159870
 Sum of Mulliken charges =  -0.00000

 Dipole moment (field-independent basis, Debye):
    X=              2.7682    Y=             -4.2388    Z=              0.6080  Tot=              5.0990
 Quadrupole moment (field-independent basis, Debye-Ang):
   XX=            -75.3724   YY=            -98.6194   ZZ=            -95.4379
   XY=             -8.1952   XZ=              3.4459   YZ=              1.2887

 Normal termination of Gaussian 16 at Wed May  5 17:32:20 2021.
