 Gaussian 16, Revision A.03,
 Gaussian 16:  EM64L-G16RevA.03 25-Dec-2016

 -------------
 #p 6-31g* mp2
 -------------

 ------------------------------------------------------
 Input file generated by CHIRIPA (05-May-2021 14:55:20)
 ------------------------------------------------------
 Symbolic Z-matrix:
 Charge =  0 Multiplicity = 1

                         Standard orientation:
 ---------------------------------------------------------------------
 Center     Atomic      Atomic             Coordinates (Angstroms)
 Number     Number       Type             X           Y           Z
 ---------------------------------------------------------------------
      1          6           0       -2.306193    1.970570   -1.366032
      2          6           0       -3.676350    1.728044   -1.223298
      3          6           0       -4.129648    0.570992   -0.582753
      4          6           0       -3.180854   -0.326173   -0.094720
      5          6           0       -1.809112   -0.112733   -0.221439
      6          6           0       -1.378582    1.051028   -0.865529
      7          1           0       -1.962904    2.872001   -1.865000
      8          1           0       -4.399019    2.440415   -1.611012
      9          1           0       -5.184535    0.358359   -0.458584
     10          1           0       -1.112687   -0.841374    0.175415
     11          1           0       -0.313888    1.236769   -0.974945
     12          7           0       -3.648688   -1.554643    0.585273
     13          8           0       -2.792564   -2.329415    1.006483
     14          8           0       -4.862642   -1.719486    0.684166
     15          6           0        4.084337   -0.487619   -0.127383
     16          6           0        5.537028   -0.692127   -0.558482
     17          6           0        5.744243   -1.988727   -1.341862
     18          1           0        3.766465   -1.342501    0.485054
     19          1           0        3.441553   -0.485378   -1.018573
     20          1           0        6.177041   -0.692598    0.333144
     21          1           0        5.851539    0.163434   -1.169805
     22          1           0        5.129851   -1.993723   -2.248006
     23          1           0        5.457203   -2.854618   -0.736517
     24          1           0        6.789705   -2.114861   -1.640126
     25          6           0        3.861261    0.804306    0.656769
     26          6           0        2.408569    1.008814    1.087868
     27          6           0        2.201354    2.305414    1.871247
     28          1           0        4.504044    0.802065    1.547959
     29          1           0        4.179132    1.659189    0.044331
     30          1           0        2.094059    0.153254    1.699191
     31          1           0        1.768556    1.009284    0.196241
     32          1           0        2.488394    3.171305    1.265902
     33          1           0        2.815746    2.310409    2.777392
     34          1           0        1.155892    2.431549    2.169511
 ---------------------------------------------------------------------

 SCF Done:  E(RHF) =  -669.535537783     A.U. after   15 cycles
 E2 =    -0.2091177821D+01 EUMP2 =    -0.67162671560428D+03

 The electronic state is 1-A.
 Alpha  occ. eigenvalues --  -20.60734 -20.60729 -15.85787 -11.31146 -11.27722
 Alpha  occ. eigenvalues --  -11.27703 -11.27463 -11.26737 -11.26704 -11.22437
 Alpha  occ. eigenvalues --  -11.21993 -11.21978 -11.21866 -11.21726 -11.21354
 Alpha  occ. eigenvalues --   -1.59810  -1.39363  -1.19320  -1.08998  -1.08718
 Alpha  occ. eigenvalues --   -1.04723  -1.04074  -0.96491  -0.95553  -0.87508
 Alpha  occ. eigenvalues --   -0.86123  -0.82389  -0.80167  -0.78804  -0.77428
 Alpha  occ. eigenvalues --   -0.72006  -0.71133  -0.70430  -0.65661  -0.64972
 Alpha  occ. eigenvalues --   -0.64725  -0.62120  -0.61435  -0.59867  -0.58105
 Alpha  occ. eigenvalues --   -0.55772  -0.55227  -0.53194  -0.53052  -0.52911
 Alpha  occ. eigenvalues --   -0.52822  -0.50432  -0.48772  -0.48761  -0.48454
 Alpha  occ. eigenvalues --   -0.47200  -0.46334  -0.46250  -0.44770  -0.44320
 Alpha  occ. eigenvalues --   -0.37305  -0.36322
 Alpha virt. eigenvalues --    0.05098   0.11314   0.16557   0.19688   0.22683
 Alpha virt. eigenvalues --    0.23802   0.25151   0.26258   0.27512   0.28251
 Alpha virt. eigenvalues --    0.28952   0.29870   0.31279   0.31395   0.32160

 Mulliken charges:
               1
     1  C   -0.171709
     2  C   -0.218581
     3  C   -0.171042
     4  C    0.158490
     5  C   -0.173100
     6  C   -0.223337
     7  H    0.225795
     8  H    0.223212
     9  H    0.275459
    10  H    0.276383
    11  H    0.230790
    12  N    0.488138
    13  O   -0.460431
    14  O   -0.460680
    15  C   -0.298836
    16  C   -0.300049
    17  C   -0.476162
    18  H    0.152734
    19  H    0.145954
    20  H    0.153532
    21  H    0.151668
    22  H    0.154994
    23  H    0.157151
    24  H    0.161552
    25  C   -0.297828
    26  C   -0.304619
    27  C   -0.476772
    28  H    0.153285
    29  H    0.149442
    30  H    0.157237
    31  H    0.141103
    32  H    0.154046
    33  H    0.159932
    34  H    0.162249
 Sum of Mulliken charges =  -0.00000

 Dipole moment (field-independent basis, Debye):
    X=              1.8127    Y=              4.3122    Z=             -2.3087  Tot=              5.2164
 Quadrupole moment (field-independent basis, Debye-Ang):
   XX=           -100.1999   YY=            -98.3390   ZZ=            -94.3796
   XY=            -15.9079   XZ=              8.9485   YZ=             -0.8107

 Normal termination of Gaussian 16 at Thu May  6 01:23:53 2021.
