 Gaussian 16, Revision A.03,
 Gaussian 16:  EM64L-G16RevA.03 25-Dec-2016

 -------------
 #p 6-31g* mp2
 -------------

 ------------------------------------------------------
 Input file generated by CHIRIPA (05-May-2021 14:53:15)
 ------------------------------------------------------
 Symbolic Z-matrix:
 Charge =  0 Multiplicity = 1

                         Standard orientation:
 ---------------------------------------------------------------------
 Center     Atomic      Atomic             Coordinates (Angstroms)
 Number     Number       Type             X           Y           Z
 ---------------------------------------------------------------------
      1          6           0       -3.575241   -0.546011   -0.485502
      2          6           0       -3.599245   -1.844769    0.321119
      3          6           0       -4.165244   -3.022964   -0.472163
      4          1           0       -4.595198   -0.309634   -0.818306
      5          1           0       -2.977190   -0.698209   -1.394658
      6          1           0       -4.195927   -1.689759    1.229172
      7          1           0       -2.579142   -2.077980    0.652204
      8          1           0       -3.566255   -3.206068   -1.370097
      9          1           0       -5.192226   -2.815641   -0.789851
     10          1           0       -4.173178   -3.941156    0.123422
     11          6           0       -3.012047    0.640952    0.294023
     12          6           0       -2.988042    1.939710   -0.512598
     13          6           0       -2.422044    3.117905    0.280683
     14          1           0       -3.610098    0.793150    1.203179
     15          1           0       -1.992090    0.404575    0.626827
     16          1           0       -4.008145    2.172921   -0.843684
     17          1           0       -2.391360    1.784701   -1.420651
     18          1           0       -1.395062    2.910582    0.598372
     19          1           0       -3.021033    3.301009    1.178618
     20          1           0       -2.414109    4.036097   -0.314901
     21          6           0        1.868522    2.385445    0.047380
     22          6           0        2.862341    1.935554   -0.828087
     23          6           0        3.260681    0.595467   -0.821647
     24          6           0        2.641281   -0.271288    0.077447
     25          6           0        1.648208    0.146637    0.962002
     26          6           0        1.265691    1.491128    0.938060
     27          1           0        1.565227    3.428167    0.035579
     28          1           0        3.332246    2.627848   -1.520882
     29          1           0        4.027498    0.220430   -1.488546
     30          1           0        1.198091   -0.567134    1.641224
     31          1           0        0.493610    1.837715    1.619098
     32          7           0        3.054610   -1.692309    0.093529
     33          8           0        2.493463   -2.435947    0.895247
     34          8           0        3.931899   -2.035559   -0.695889
 ---------------------------------------------------------------------

 SCF Done:  E(RHF) =  -669.535403485     A.U. after   15 cycles
 E2 =    -0.2092256117D+01 EUMP2 =    -0.67162765960241D+03

 The electronic state is 1-A.
 Alpha  occ. eigenvalues --  -20.60819 -20.60814 -15.85873 -11.31255 -11.27831
 Alpha  occ. eigenvalues --  -11.27827 -11.27559 -11.26836 -11.26821 -11.22182
 Alpha  occ. eigenvalues --  -11.21934 -11.21867 -11.21729 -11.21628 -11.21078
 Alpha  occ. eigenvalues --   -1.59894  -1.39447  -1.19432  -1.08839  -1.08794
 Alpha  occ. eigenvalues --   -1.04839  -1.03913  -0.96389  -0.95650  -0.87411
 Alpha  occ. eigenvalues --   -0.86233  -0.82483  -0.80001  -0.78601  -0.77528
 Alpha  occ. eigenvalues --   -0.72091  -0.71218  -0.70527  -0.65485  -0.65084
 Alpha  occ. eigenvalues --   -0.64832  -0.62221  -0.61270  -0.59773  -0.57978
 Alpha  occ. eigenvalues --   -0.55693  -0.55323  -0.53166  -0.53075  -0.52998
 Alpha  occ. eigenvalues --   -0.52742  -0.50332  -0.48854  -0.48845  -0.48299
 Alpha  occ. eigenvalues --   -0.47013  -0.46146  -0.46034  -0.44849  -0.44159
 Alpha  occ. eigenvalues --   -0.37393  -0.36418
 Alpha virt. eigenvalues --    0.04978   0.11080   0.16382   0.20044   0.22855
 Alpha virt. eigenvalues --    0.23991   0.25455   0.26367   0.26805   0.28687
 Alpha virt. eigenvalues --    0.29114   0.30294   0.31166   0.31411   0.31846

 Mulliken charges:
               1
     1  C   -0.298722
     2  C   -0.300593
     3  C   -0.475985
     4  H    0.150260
     5  H    0.151758
     6  H    0.151162
     7  H    0.154212
     8  H    0.157241
     9  H    0.154340
    10  H    0.162580
    11  C   -0.299642
    12  C   -0.298685
    13  C   -0.479316
    14  H    0.149446
    15  H    0.145430
    16  H    0.154738
    17  H    0.154320
    18  H    0.145602
    19  H    0.157379
    20  H    0.161136
    21  C   -0.171079
    22  C   -0.218808
    23  C   -0.170705
    24  C    0.158307
    25  C   -0.172585
    26  C   -0.219362
    27  H    0.227199
    28  H    0.223876
    29  H    0.275917
    30  H    0.276101
    31  H    0.226921
    32  N    0.488055
    33  O   -0.460312
    34  O   -0.460185
 Sum of Mulliken charges =  -0.00000

 Dipole moment (field-independent basis, Debye):
    X=             -1.4932    Y=              4.9343    Z=             -0.1281  Tot=              5.1569
 Quadrupole moment (field-independent basis, Debye-Ang):
   XX=            -99.6371   YY=            -98.7232   ZZ=            -92.5902
   XY=             14.0528   XZ=             -3.4397   YZ=             -0.8120

 Normal termination of Gaussian 16 at Wed May  5 23:31:52 2021.
