 Gaussian 16, Revision A.03,
 Gaussian 16:  EM64L-G16RevA.03 25-Dec-2016

 -------------
 #p 6-31g* mp2
 -------------

 ------------------------------------------------------
 Input file generated by CHIRIPA (05-May-2021 14:53:13)
 ------------------------------------------------------
 Symbolic Z-matrix:
 Charge =  0 Multiplicity = 1

                         Standard orientation:
 ---------------------------------------------------------------------
 Center     Atomic      Atomic             Coordinates (Angstroms)
 Number     Number       Type             X           Y           Z
 ---------------------------------------------------------------------
      1          6           0       -3.158770    1.067212   -0.075675
      2          6           0       -1.903115    1.828157   -0.502615
      3          6           0       -2.033419    3.339308   -0.309644
      4          1           0       -4.018188    1.438916   -0.650289
      5          1           0       -3.370460    1.286065    0.980112
      6          1           0       -1.693067    1.606846   -1.556900
      7          1           0       -1.046552    1.454465    0.072946
      8          1           0       -2.219701    3.578696    0.742303
      9          1           0       -2.869890    3.731942   -0.896803
     10          1           0       -1.124622    3.863650   -0.621116
     11          6           0       -3.043861   -0.444602   -0.262601
     12          6           0       -4.299516   -1.205548    0.164339
     13          6           0       -4.169212   -2.716698   -0.028633
     14          1           0       -2.832171   -0.663455   -1.318388
     15          1           0       -2.184443   -0.816307    0.312013
     16          1           0       -5.156079   -0.831855   -0.411222
     17          1           0       -4.509564   -0.984236    1.218624
     18          1           0       -3.332741   -3.109332    0.558527
     19          1           0       -3.982929   -2.956086   -1.080580
     20          1           0       -5.078009   -3.241040    0.282839
     21          6           0        2.504773   -2.747559   -0.163557
     22          6           0        1.609965   -2.179341    0.749112
     23          6           0        1.555960   -0.792970    0.921185
     24          6           0        2.414987   -0.001096    0.160726
     25          6           0        3.317432   -0.537291   -0.756541
     26          6           0        3.354153   -1.926170   -0.912152
     27          1           0        2.540013   -3.825500   -0.290832
     28          1           0        0.949145   -2.814792    1.331832
     29          1           0        0.872869   -0.326659    1.620726
     30          1           0        3.963726    0.121982   -1.323181
     31          1           0        4.050084   -2.364688   -1.621677
     32          7           0        2.366964    1.467921    0.334177
     33          8           0        3.134274    2.143762   -0.347812
     34          8           0        1.562921    1.915679    1.148834
 ---------------------------------------------------------------------

 SCF Done:  E(RHF) =  -669.536309756     A.U. after   15 cycles
 E2 =    -0.2092145921D+01 EUMP2 =    -0.67162845567660D+03

 The electronic state is 1-A.
 Alpha  occ. eigenvalues --  -20.60948 -20.60941 -15.85960 -11.31274 -11.27845
 Alpha  occ. eigenvalues --  -11.27833 -11.27567 -11.26848 -11.26837 -11.21669
 Alpha  occ. eigenvalues --  -11.21369 -11.21299 -11.21050 -11.20898 -11.20197
 Alpha  occ. eigenvalues --   -1.59995  -1.39554  -1.19442  -1.08846  -1.08218
 Alpha  occ. eigenvalues --   -1.04839  -1.03224  -0.95705  -0.95679  -0.86713
 Alpha  occ. eigenvalues --   -0.86240  -0.82528  -0.79347  -0.78002  -0.77567
 Alpha  occ. eigenvalues --   -0.72189  -0.71302  -0.70552  -0.65103  -0.64888
 Alpha  occ. eigenvalues --   -0.64813  -0.62191  -0.60617  -0.59110  -0.57270
 Alpha  occ. eigenvalues --   -0.55343  -0.55002  -0.53162  -0.52933  -0.52353
 Alpha  occ. eigenvalues --   -0.52121  -0.49668  -0.48967  -0.48942  -0.47646
 Alpha  occ. eigenvalues --   -0.46425  -0.45659  -0.45474  -0.44697  -0.43487
 Alpha  occ. eigenvalues --   -0.37412  -0.36428
 Alpha virt. eigenvalues --    0.04903   0.11153   0.16367   0.20728   0.23012
 Alpha virt. eigenvalues --    0.24511   0.25629   0.27274   0.27761   0.28189
 Alpha virt. eigenvalues --    0.29292   0.30224   0.31675   0.31830   0.32666

 Mulliken charges:
               1
     1  C   -0.298353
     2  C   -0.306741
     3  C   -0.473506
     4  H    0.148779
     5  H    0.149219
     6  H    0.147460
     7  H    0.161549
     8  H    0.155999
     9  H    0.149121
    10  H    0.169387
    11  C   -0.295895
    12  C   -0.299527
    13  C   -0.474298
    14  H    0.149417
    15  H    0.140813
    16  H    0.153545
    17  H    0.151868
    18  H    0.149101
    19  H    0.155151
    20  H    0.160707
    21  C   -0.170469
    22  C   -0.218277
    23  C   -0.170965
    24  C    0.159356
    25  C   -0.170786
    26  C   -0.218397
    27  H    0.226121
    28  H    0.223865
    29  H    0.275551
    30  H    0.275744
    31  H    0.223810
    32  N    0.488425
    33  O   -0.458616
    34  O   -0.459156
 Sum of Mulliken charges =  -0.00000

 Dipole moment (field-independent basis, Debye):
    X=              0.3547    Y=             -5.0736    Z=             -0.6072  Tot=              5.1222
 Quadrupole moment (field-independent basis, Debye-Ang):
   XX=            -91.7848   YY=            -96.3167   ZZ=            -92.2358
   XY=            -12.3471   XZ=             -4.1026   YZ=             -1.2713

 Normal termination of Gaussian 16 at Thu May  6 08:54:15 2021.
