 Gaussian 16, Revision A.03,
 Gaussian 16:  EM64L-G16RevA.03 25-Dec-2016

 -------------
 #p 6-31g* mp2
 -------------

 ------------------------------------------------------
 Input file generated by CHIRIPA (05-May-2021 14:51:13)
 ------------------------------------------------------
 Symbolic Z-matrix:
 Charge =  0 Multiplicity = 1

                         Standard orientation:
 ---------------------------------------------------------------------
 Center     Atomic      Atomic             Coordinates (Angstroms)
 Number     Number       Type             X           Y           Z
 ---------------------------------------------------------------------
      1          6           0       -3.463719   -0.535907    0.129452
      2          6           0       -3.905113   -1.735270   -0.710002
      3          6           0       -3.336845   -3.058189   -0.195463
      4          1           0       -2.366253   -0.486521    0.138164
      5          1           0       -3.777919   -0.690636    1.170957
      6          1           0       -3.591386   -1.577686   -1.749887
      7          1           0       -5.001659   -1.781695   -0.716875
      8          1           0       -3.660571   -3.242050    0.834099
      9          1           0       -2.242286   -3.036882   -0.204781
     10          1           0       -3.664985   -3.902212   -0.810126
     11          6           0       -4.023727    0.793829   -0.372466
     12          6           0       -3.582333    1.993193    0.466988
     13          6           0       -4.150600    3.316112   -0.047551
     14          1           0       -3.709526    0.948559   -1.413971
     15          1           0       -5.121192    0.744443   -0.381178
     16          1           0       -2.485787    2.039618    0.473861
     17          1           0       -3.896059    1.835609    1.506873
     18          1           0       -5.245160    3.294805   -0.038233
     19          1           0       -3.826874    3.499973   -1.077113
     20          1           0       -3.822461    4.160135    0.567112
     21          6           0        3.253416   -0.687874    0.296573
     22          6           0        1.812814   -0.201854    0.459162
     23          6           0        0.843767   -1.331521    0.809299
     24          1           0        3.287691   -1.458067   -0.486098
     25          1           0        3.576359   -1.173836    1.227671
     26          1           0        1.493152    0.284273   -0.471490
     27          1           0        1.781995    0.567407    1.241404
     28          1           0        1.135418   -1.811899    1.748862
     29          1           0        0.844935   -2.096642    0.026236
     30          1           0       -0.180315   -0.961838    0.920881
     31          6           0        4.234030    0.429951   -0.053559
     32          6           0        5.674632   -0.056069   -0.216147
     33          6           0        6.643678    1.073598   -0.566285
     34          1           0        3.911086    0.915913   -0.984657
     35          1           0        4.199753    1.200143    0.729112
     36          1           0        5.705450   -0.825330   -0.998389
     37          1           0        5.994292   -0.542196    0.714504
     38          1           0        6.642511    1.838719    0.216778
     39          1           0        6.352027    1.553976   -1.505848
     40          1           0        7.667760    0.703915   -0.677868
 ---------------------------------------------------------------------

 SCF Done:  E(RHF) =  -470.733313900     A.U. after   11 cycles
 E2 =    -0.1582736375D+01 EUMP2 =    -0.47231605027471D+03

 The electronic state is 1-A.
 Alpha  occ. eigenvalues --  -11.21647 -11.21619 -11.21600 -11.21575 -11.21431
 Alpha  occ. eigenvalues --  -11.21391 -11.21371 -11.21330 -11.21098 -11.21085
 Alpha  occ. eigenvalues --  -11.21068 -11.21010  -1.08460  -1.08417  -1.03563
 Alpha  occ. eigenvalues --   -1.03506  -0.96011  -0.95956  -0.87031  -0.86971
 Alpha  occ. eigenvalues --   -0.79645  -0.79552  -0.78273  -0.78236  -0.65098
 Alpha  occ. eigenvalues --   -0.65052  -0.60974  -0.60894  -0.59438  -0.59277
 Alpha  occ. eigenvalues --   -0.57671  -0.57528  -0.55300  -0.55238  -0.52760
 Alpha  occ. eigenvalues --   -0.52639  -0.52491  -0.52312  -0.49961  -0.49886
 Alpha  occ. eigenvalues --   -0.47967  -0.47869  -0.46677  -0.46582  -0.45813
 Alpha  occ. eigenvalues --   -0.45771  -0.45736  -0.45693  -0.43780  -0.43734
 Alpha virt. eigenvalues --    0.21301   0.23081   0.23714   0.24538   0.26081
 Alpha virt. eigenvalues --    0.26574   0.27036   0.27138   0.27953   0.29071
 Alpha virt. eigenvalues --    0.30620   0.31244   0.31668   0.31820   0.32165

 Mulliken charges:
               1
     1  C   -0.306942
     2  C   -0.298938
     3  C   -0.478019
     4  H    0.157673
     5  H    0.149302
     6  H    0.151557
     7  H    0.151819
     8  H    0.155005
     9  H    0.158273
    10  H    0.159855
    11  C   -0.297510
    12  C   -0.299857
    13  C   -0.475656
    14  H    0.149353
    15  H    0.149732
    16  H    0.151780
    17  H    0.151908
    18  H    0.155209
    19  H    0.155172
    20  H    0.160258
    21  C   -0.298447
    22  C   -0.299523
    23  C   -0.484429
    24  H    0.149701
    25  H    0.149784
    26  H    0.151404
    27  H    0.152204
    28  H    0.156033
    29  H    0.154967
    30  H    0.168122
    31  C   -0.298280
    32  C   -0.299676
    33  C   -0.475722
    34  H    0.149458
    35  H    0.149724
    36  H    0.151973
    37  H    0.152010
    38  H    0.155219
    39  H    0.155177
    40  H    0.160326
 Sum of Mulliken charges =  -0.00000

 Dipole moment (field-independent basis, Debye):
    X=              0.0172    Y=             -0.0008    Z=              0.0113  Tot=              0.0206
 Quadrupole moment (field-independent basis, Debye-Ang):
   XX=            -84.9113   YY=            -86.3476   ZZ=            -83.5300
   XY=             -0.1274   XZ=             -0.2006   YZ=              0.5247

 Normal termination of Gaussian 16 at Wed May  5 23:14:18 2021.
