 Gaussian 16, Revision A.03,
 Gaussian 16:  EM64L-G16RevA.03 25-Dec-2016

 -------------
 #p 6-31g* mp2
 -------------

 ------------------------------------------------------
 Input file generated by CHIRIPA (05-May-2021 14:53:18)
 ------------------------------------------------------
 Symbolic Z-matrix:
 Charge =  0 Multiplicity = 1

                         Standard orientation:
 ---------------------------------------------------------------------
 Center     Atomic      Atomic             Coordinates (Angstroms)
 Number     Number       Type             X           Y           Z
 ---------------------------------------------------------------------
      1          6           0        3.856444   -0.473336    0.211080
      2          6           0        5.318675   -0.783853    0.532706
      3          6           0        5.509897   -2.180132    1.125693
      4          1           0        3.257757   -0.569325    1.127216
      5          1           0        3.474945   -1.226695   -0.491986
      6          1           0        5.697708   -0.029333    1.233883
      7          1           0        5.913982   -0.686926   -0.384263
      8          1           0        5.158141   -2.946632    0.427592
      9          1           0        4.940638   -2.285303    2.054932
     10          1           0        6.562511   -2.381154    1.348074
     11          6           0        3.649163    0.918965   -0.382436
     12          6           0        2.186932    1.229482   -0.704062
     13          6           0        1.995710    2.625761   -1.297049
     14          1           0        4.030662    1.672325    0.320630
     15          1           0        4.247850    1.014954   -1.298572
     16          1           0        1.591625    1.132555    0.212907
     17          1           0        1.807899    0.474962   -1.405239
     18          1           0        2.564969    2.730932   -2.226288
     19          1           0        2.347466    3.392262   -0.598948
     20          1           0        0.943096    2.826783   -1.519430
     21          6           0       -2.698336    2.115016    1.102044
     22          6           0       -3.684020    1.235831    1.562457
     23          6           0       -3.822548   -0.034939    0.996328
     24          6           0       -2.954456   -0.395374   -0.033134
     25          6           0       -1.962515    0.458104   -0.513674
     26          6           0       -1.842238    1.724036    0.067272
     27          1           0       -2.597813    3.100301    1.547582
     28          1           0       -4.350277    1.536780    2.365935
     29          1           0       -4.576915   -0.735406    1.333513
     30          1           0       -1.313113    0.129737   -1.316090
     31          1           0       -1.075830    2.404744   -0.292310
     32          7           0       -3.091448   -1.738121   -0.640314
     33          8           0       -2.314199   -2.031717   -1.546031
     34          8           0       -3.973476   -2.471545   -0.199006
 ---------------------------------------------------------------------

 SCF Done:  E(RHF) =  -669.535531544     A.U. after   15 cycles
 E2 =    -0.2091603408D+01 EUMP2 =    -0.67162713495207D+03

 The electronic state is 1-A.
 Alpha  occ. eigenvalues --  -20.60734 -20.60729 -15.85787 -11.31142 -11.27721
 Alpha  occ. eigenvalues --  -11.27701 -11.27457 -11.26734 -11.26689 -11.22272
 Alpha  occ. eigenvalues --  -11.21996 -11.21825 -11.21764 -11.21599 -11.21137
 Alpha  occ. eigenvalues --   -1.59809  -1.39363  -1.19317  -1.08825  -1.08713
 Alpha  occ. eigenvalues --   -1.04721  -1.03970  -0.96425  -0.95550  -0.87440
 Alpha  occ. eigenvalues --   -0.86116  -0.82384  -0.80047  -0.78584  -0.77430
 Alpha  occ. eigenvalues --   -0.72006  -0.71132  -0.70427  -0.65454  -0.64970
 Alpha  occ. eigenvalues --   -0.64746  -0.62144  -0.61349  -0.59807  -0.58015
 Alpha  occ. eigenvalues --   -0.55687  -0.55218  -0.53242  -0.53053  -0.52954
 Alpha  occ. eigenvalues --   -0.52584  -0.50338  -0.48764  -0.48761  -0.48353
 Alpha  occ. eigenvalues --   -0.47060  -0.46133  -0.46021  -0.44770  -0.44210
 Alpha  occ. eigenvalues --   -0.37302  -0.36308
 Alpha virt. eigenvalues --    0.05090   0.11316   0.16520   0.19527   0.22785
 Alpha virt. eigenvalues --    0.23819   0.25824   0.26195   0.26821   0.28214
 Alpha virt. eigenvalues --    0.29132   0.29587   0.31070   0.31580   0.32072

 Mulliken charges:
               1
     1  C   -0.299487
     2  C   -0.300109
     3  C   -0.476117
     4  H    0.150368
     5  H    0.153531
     6  H    0.151206
     7  H    0.152489
     8  H    0.157445
     9  H    0.155598
    10  H    0.160652
    11  C   -0.298368
    12  C   -0.305580
    13  C   -0.479340
    14  H    0.149579
    15  H    0.151665
    16  H    0.152491
    17  H    0.155049
    18  H    0.162015
    19  H    0.157199
    20  H    0.149992
    21  C   -0.172402
    22  C   -0.218606
    23  C   -0.170977
    24  C    0.158337
    25  C   -0.172947
    26  C   -0.224546
    27  H    0.225944
    28  H    0.223166
    29  H    0.275439
    30  H    0.276820
    31  H    0.232573
    32  N    0.488166
    33  O   -0.460553
    34  O   -0.460692
 Sum of Mulliken charges =  -0.00000

 Dipole moment (field-independent basis, Debye):
    X=              0.6551    Y=              4.6687    Z=              2.1425  Tot=              5.1785
 Quadrupole moment (field-independent basis, Debye-Ang):
   XX=            -94.6155   YY=            -99.8334   ZZ=            -92.7671
   XY=            -13.2317   XZ=             -9.5429   YZ=             -0.8452

 Normal termination of Gaussian 16 at Thu May  6 06:03:13 2021.
