 Gaussian 16, Revision A.03,
 Gaussian 16:  EM64L-G16RevA.03 25-Dec-2016

 -------------
 #p 6-31g* mp2
 -------------

 ------------------------------------------------------
 Input file generated by CHIRIPA (05-May-2021 14:51:09)
 ------------------------------------------------------
 Symbolic Z-matrix:
 Charge =  0 Multiplicity = 1

                         Standard orientation:
 ---------------------------------------------------------------------
 Center     Atomic      Atomic             Coordinates (Angstroms)
 Number     Number       Type             X           Y           Z
 ---------------------------------------------------------------------
      1          6           0        3.902470    0.737905   -0.416096
      2          6           0        3.790642    1.888214    0.585038
      3          6           0        4.490678    3.159916    0.104915
      4          1           0        4.963880    0.525372   -0.603669
      5          1           0        3.472477    1.053917   -1.376636
      6          1           0        4.219468    1.569650    1.543809
      7          1           0        2.729375    2.097906    0.770395
      8          1           0        4.057926    3.504635   -0.839804
      9          1           0        5.556485    2.973378   -0.061996
     10          1           0        4.398310    3.969369    0.835746
     11          6           0        3.207558   -0.540319    0.049701
     12          6           0        3.319386   -1.690628   -0.951433
     13          6           0        2.619351   -2.962330   -0.471311
     14          1           0        3.637551   -0.856331    1.010241
     15          1           0        2.146148   -0.327786    0.237274
     16          1           0        4.380653   -1.900320   -1.136790
     17          1           0        2.890561   -1.372065   -1.910205
     18          1           0        1.553544   -2.775792   -0.304400
     19          1           0        3.052103   -3.307049    0.473409
     20          1           0        2.711719   -3.771783   -1.202142
     21          6           0       -2.886601   -0.431743    0.022576
     22          6           0       -2.146049   -0.934222    1.262368
     23          6           0       -0.810604   -1.597862    0.924785
     24          1           0       -3.056809   -1.274267   -0.661622
     25          1           0       -2.246552    0.282271   -0.514002
     26          1           0       -2.787847   -1.646029    1.797196
     27          1           0       -1.977753   -0.090438    1.943780
     28          1           0       -0.148934   -0.892761    0.411339
     29          1           0       -0.963632   -2.457189    0.263921
     30          1           0       -0.298069   -1.949653    1.825569
     31          6           0       -4.223428    0.234157    0.343820
     32          6           0       -4.963980    0.736636   -0.895972
     33          6           0       -6.299425    1.400276   -0.558389
     34          1           0       -4.863476   -0.479858    0.880397
     35          1           0       -4.053219    1.076682    1.028017
     36          1           0       -5.132276   -0.107147   -1.577385
     37          1           0       -4.322181    1.448442   -1.430801
     38          1           0       -6.146397    2.259604    0.102473
     39          1           0       -6.961094    0.695176   -0.044943
     40          1           0       -6.811959    1.752067   -1.459174
 ---------------------------------------------------------------------

 SCF Done:  E(RHF) =  -470.732477558     A.U. after   11 cycles
 E2 =    -0.1583476103D+01 EUMP2 =    -0.47231595366101D+03

 The electronic state is 1-A.
 Alpha  occ. eigenvalues --  -11.21647 -11.21632 -11.21588 -11.21507 -11.21451
 Alpha  occ. eigenvalues --  -11.21389 -11.21350 -11.21273 -11.21138 -11.21095
 Alpha  occ. eigenvalues --  -11.21063 -11.20871  -1.08479  -1.08372  -1.03592
 Alpha  occ. eigenvalues --   -1.03453  -0.96049  -0.95899  -0.87083  -0.86910
 Alpha  occ. eigenvalues --   -0.79728  -0.79468  -0.78313  -0.78156  -0.65139
 Alpha  occ. eigenvalues --   -0.64992  -0.61009  -0.60854  -0.59406  -0.59274
 Alpha  occ. eigenvalues --   -0.57652  -0.57516  -0.55423  -0.55131  -0.52773
 Alpha  occ. eigenvalues --   -0.52601  -0.52504  -0.52283  -0.50103  -0.49742
 Alpha  occ. eigenvalues --   -0.48105  -0.47748  -0.46730  -0.46535  -0.45926
 Alpha  occ. eigenvalues --   -0.45767  -0.45693  -0.45388  -0.43812  -0.43717
 Alpha virt. eigenvalues --    0.21719   0.23006   0.23762   0.24670   0.25868
 Alpha virt. eigenvalues --    0.26385   0.27166   0.27514   0.27772   0.29306
 Alpha virt. eigenvalues --    0.30631   0.31129   0.31661   0.31833   0.32171

 Mulliken charges:
               1
     1  C   -0.297743
     2  C   -0.299411
     3  C   -0.475647
     4  H    0.149639
     5  H    0.149009
     6  H    0.152011
     7  H    0.151126
     8  H    0.155032
     9  H    0.155274
    10  H    0.160086
    11  C   -0.304947
    12  C   -0.298780
    13  C   -0.484802
    14  H    0.149252
    15  H    0.155931
    16  H    0.151396
    17  H    0.150944
    18  H    0.168449
    19  H    0.153971
    20  H    0.158850
    21  C   -0.298507
    22  C   -0.300461
    23  C   -0.481790
    24  H    0.149815
    25  H    0.149122
    26  H    0.152283
    27  H    0.152138
    28  H    0.159302
    29  H    0.155530
    30  H    0.162456
    31  C   -0.298317
    32  C   -0.299662
    33  C   -0.475737
    34  H    0.149728
    35  H    0.149734
    36  H    0.152017
    37  H    0.151862
    38  H    0.155228
    39  H    0.155268
    40  H    0.160351
 Sum of Mulliken charges =  -0.00000

 Dipole moment (field-independent basis, Debye):
    X=             -0.0626    Y=             -0.0104    Z=              0.0253  Tot=              0.0683
 Quadrupole moment (field-independent basis, Debye-Ang):
   XX=            -85.1789   YY=            -85.1783   ZZ=            -84.6470
   XY=              0.2995   XZ=              0.6662   YZ=              0.0503

 Normal termination of Gaussian 16 at Thu May  6 00:33:47 2021.
