 Gaussian 16, Revision A.03,
 Gaussian 16:  EM64L-G16RevA.03 25-Dec-2016

 -------------
 #p 6-31g* mp2
 -------------

 ------------------------------------------------------
 Input file generated by CHIRIPA (05-May-2021 14:57:26)
 ------------------------------------------------------
 Symbolic Z-matrix:
 Charge =  0 Multiplicity = 1

                         Standard orientation:
 ---------------------------------------------------------------------
 Center     Atomic      Atomic             Coordinates (Angstroms)
 Number     Number       Type             X           Y           Z
 ---------------------------------------------------------------------
      1          6           0        3.872014    2.026433    0.185826
      2          6           0        3.294965    1.435169    1.314517
      3          6           0        2.695639    0.175069    1.227903
      4          6           0        2.691253   -0.468412   -0.008706
      5          6           0        3.257831    0.094506   -1.151249
      6          6           0        3.851641    1.355397   -1.041291
      7          1           0        4.335443    3.005616    0.262177
      8          1           0        3.309316    1.953984    2.268808
      9          1           0        2.241540   -0.305762    2.085816
     10          1           0        3.228019   -0.447126   -2.088886
     11          1           0        4.299012    1.812159   -1.919512
     12          7           0        2.059692   -1.802842   -0.112757
     13          8           0        2.068920   -2.349106   -1.213733
     14          8           0        1.567406   -2.277238    0.908634
     15          6           0       -2.642385    2.760434   -0.189067
     16          6           0       -1.482780    1.999856   -0.006419
     17          6           0       -1.555620    0.607391    0.094975
     18          6           0       -2.810129    0.005635    0.009020
     19          6           0       -3.983524    0.735980   -0.172722
     20          6           0       -3.886862    2.127184   -0.271490
     21          1           0       -2.576549    3.841645   -0.266812
     22          1           0       -0.514952    2.488949    0.057946
     23          1           0       -0.673822   -0.005633    0.236583
     24          1           0       -4.934069    0.220003   -0.233147
     25          1           0       -4.789096    2.715321   -0.413315
     26          7           0       -2.899851   -1.467838    0.114971
     27          8           0       -4.017091   -1.973987    0.036089
     28          8           0       -1.851234   -2.088698    0.274893
 ---------------------------------------------------------------------

 SCF Done:  E(RHF) =  -868.335603974     A.U. after   16 cycles
 E2 =    -0.2602136682D+01 EUMP2 =    -0.87093774065606D+03

 The electronic state is 1-A.
 Alpha  occ. eigenvalues --  -20.60728 -20.60654 -20.60093 -20.60001 -15.85741
 Alpha  occ. eigenvalues --  -15.85101 -11.31549 -11.30816 -11.28149 -11.28108
 Alpha  occ. eigenvalues --  -11.27930 -11.27428 -11.27424 -11.27258 -11.27238
 Alpha  occ. eigenvalues --  -11.27199 -11.26536 -11.26519  -1.59748  -1.59131
 Alpha  occ. eigenvalues --   -1.39290  -1.38667  -1.19751  -1.19027  -1.09058
 Alpha  occ. eigenvalues --   -1.08364  -1.05186  -1.04482  -0.95811  -0.95137
 Alpha  occ. eigenvalues --   -0.86558  -0.85865  -0.82623  -0.81956  -0.77609
 Alpha  occ. eigenvalues --   -0.76948  -0.71938  -0.71387  -0.71020  -0.70802
 Alpha  occ. eigenvalues --   -0.70472  -0.70135  -0.65363  -0.65155  -0.64668
 Alpha  occ. eigenvalues --   -0.64492  -0.62502  -0.61825  -0.55647  -0.54994
 Alpha  occ. eigenvalues --   -0.53523  -0.53250  -0.52795  -0.52583  -0.48723
 Alpha  occ. eigenvalues --   -0.48678  -0.48114  -0.48052  -0.44558  -0.43992
 Alpha  occ. eigenvalues --   -0.37762  -0.37035  -0.36825  -0.36098
 Alpha virt. eigenvalues --    0.04894   0.05601   0.10763   0.11551   0.16309
 Alpha virt. eigenvalues --    0.17021   0.21015   0.21510   0.26812   0.27138
 Alpha virt. eigenvalues --    0.27932   0.28298   0.30343   0.31142   0.32051

 Mulliken charges:
               1
     1  C   -0.173958
     2  C   -0.220743
     3  C   -0.179272
     4  C    0.152975
     5  C   -0.171693
     6  C   -0.219107
     7  H    0.225826
     8  H    0.224391
     9  H    0.279265
    10  H    0.278492
    11  H    0.224720
    12  N    0.488034
    13  O   -0.455827
    14  O   -0.448226
    15  C   -0.171762
    16  C   -0.220601
    17  C   -0.172634
    18  C    0.159024
    19  C   -0.170803
    20  C   -0.218698
    21  H    0.222363
    22  H    0.220191
    23  H    0.275857
    24  H    0.275636
    25  H    0.221948
    26  N    0.485977
    27  O   -0.464556
    28  O   -0.446818
 Sum of Mulliken charges =  -0.00000

 Dipole moment (field-independent basis, Debye):
    X=              2.6870    Y=              9.5107    Z=             -0.0006  Tot=              9.8829
 Quadrupole moment (field-independent basis, Debye-Ang):
   XX=            -90.4421   YY=           -110.2886   ZZ=           -100.8232
   XY=             -3.2895   XZ=              1.2777   YZ=             -0.1278

 Normal termination of Gaussian 16 at Thu May  6 14:48:11 2021.
