 Gaussian 16, Revision A.03,
 Gaussian 16:  EM64L-G16RevA.03 25-Dec-2016

 -------------
 #p 6-31g* mp2
 -------------

 ------------------------------------------------------
 Input file generated by CHIRIPA (05-May-2021 14:57:22)
 ------------------------------------------------------
 Symbolic Z-matrix:
 Charge =  0 Multiplicity = 1

                         Standard orientation:
 ---------------------------------------------------------------------
 Center     Atomic      Atomic             Coordinates (Angstroms)
 Number     Number       Type             X           Y           Z
 ---------------------------------------------------------------------
      1          6           0       -2.195827    2.265202    0.771320
      2          6           0       -2.851506    2.252951   -0.464178
      3          6           0       -3.496934    1.097264   -0.914021
      4          6           0       -3.466741   -0.033363   -0.099121
      5          6           0       -2.821989   -0.052504    1.136686
      6          6           0       -2.183184    1.114464    1.566408
      7          1           0       -1.697015    3.167349    1.112954
      8          1           0       -2.862953    3.145160   -1.083756
      9          1           0       -4.012055    1.060119   -1.866223
     10          1           0       -2.827727   -0.957381    1.732155
     11          1           0       -1.674762    1.121079    2.526360
     12          7           0       -4.146521   -1.262808   -0.564698
     13          8           0       -4.105442   -2.245824    0.171935
     14          8           0       -4.707540   -1.220152   -1.657436
     15          6           0        5.752175    0.002611   -0.744760
     16          6           0        5.288017   -1.179186   -0.157875
     17          6           0        3.961606   -1.285658    0.270897
     18          6           0        3.122927   -0.185881    0.096553
     19          6           0        3.555636    1.005043   -0.484613
     20          6           0        4.886030    1.089038   -0.905972
     21          1           0        6.784111    0.076591   -1.074961
     22          1           0        5.958432   -2.024524   -0.031406
     23          1           0        3.576028   -2.188680    0.728387
     24          1           0        2.863669    1.830815   -0.597308
     25          1           0        5.243750    2.008083   -1.361426
     26          7           0        1.716606   -0.286701    0.546550
     27          8           0        0.997706    0.696474    0.381661
     28          8           0        1.359860   -1.346988    1.055628
 ---------------------------------------------------------------------

 SCF Done:  E(RHF) =  -868.338146033     A.U. after   16 cycles
 E2 =    -0.2599956887D+01 EUMP2 =    -0.87093810291913D+03

 The electronic state is 1-A.
 Alpha  occ. eigenvalues --  -20.61300 -20.61266 -20.59605 -20.59584 -15.86325
 Alpha  occ. eigenvalues --  -15.84640 -11.31582 -11.29729 -11.28163 -11.28115
 Alpha  occ. eigenvalues --  -11.27853 -11.27139 -11.27105 -11.26339 -11.26174
 Alpha  occ. eigenvalues --  -11.25982 -11.25354 -11.25160  -1.60360  -1.58677
 Alpha  occ. eigenvalues --   -1.39917  -1.38238  -1.19744  -1.17864  -1.09159
 Alpha  occ. eigenvalues --   -1.07325  -1.05131  -1.03241  -0.96013  -0.94213
 Alpha  occ. eigenvalues --   -0.86534  -0.84676  -0.82848  -0.81067  -0.77912
 Alpha  occ. eigenvalues --   -0.76143  -0.72555  -0.71674  -0.70876  -0.70850
 Alpha  occ. eigenvalues --   -0.69990  -0.69034  -0.65399  -0.65133  -0.63548
 Alpha  occ. eigenvalues --   -0.63298  -0.62482  -0.60632  -0.55634  -0.53810
 Alpha  occ. eigenvalues --   -0.53465  -0.53223  -0.51617  -0.51382  -0.49310
 Alpha  occ. eigenvalues --   -0.49225  -0.47637  -0.47606  -0.45346  -0.43706
 Alpha  occ. eigenvalues --   -0.37715  -0.36729  -0.35785  -0.34746
 Alpha virt. eigenvalues --    0.04614   0.06392   0.10927   0.12878   0.16139
 Alpha virt. eigenvalues --    0.17960   0.21083   0.22753   0.26989   0.27964
 Alpha virt. eigenvalues --    0.28662   0.29611   0.30653   0.32148   0.32254

 Mulliken charges:
               1
     1  C   -0.162650
     2  C   -0.219408
     3  C   -0.173465
     4  C    0.157057
     5  C   -0.166640
     6  C   -0.195965
     7  H    0.219041
     8  H    0.215581
     9  H    0.269428
    10  H    0.274357
    11  H    0.221236
    12  N    0.488173
    13  O   -0.461909
    14  O   -0.466268
    15  C   -0.170300
    16  C   -0.218412
    17  C   -0.170356
    18  C    0.158120
    19  C   -0.170939
    20  C   -0.218359
    21  H    0.226930
    22  H    0.225169
    23  H    0.277139
    24  H    0.272892
    25  H    0.223730
    26  N    0.489312
    27  O   -0.464543
    28  O   -0.458952
 Sum of Mulliken charges =  -0.00000

 Dipole moment (field-independent basis, Debye):
    X=              7.7979    Y=              4.6010    Z=              0.2414  Tot=              9.0573
 Quadrupole moment (field-independent basis, Debye-Ang):
   XX=            -92.2448   YY=           -100.7005   ZZ=           -102.5445
   XY=            -16.6243   XZ=             -9.5462   YZ=             -4.0590

 Normal termination of Gaussian 16 at Fri May  7 06:22:32 2021.
