 Gaussian 16, Revision A.03,
 Gaussian 16:  EM64L-G16RevA.03 25-Dec-2016

 -------------
 #p 6-31g* mp2
 -------------

 ------------------------------------------------------
 Input file generated by CHIRIPA (05-May-2021 14:55:25)
 ------------------------------------------------------
 Symbolic Z-matrix:
 Charge =  0 Multiplicity = 1

                         Standard orientation:
 ---------------------------------------------------------------------
 Center     Atomic      Atomic             Coordinates (Angstroms)
 Number     Number       Type             X           Y           Z
 ---------------------------------------------------------------------
      1          6           0        0.644114   -0.792798    0.464917
      2          6           0        1.011923    0.456263   -0.046046
      3          6           0        2.355185    0.754650   -0.293354
      4          6           0        3.308780   -0.223890   -0.016938
      5          6           0        2.973860   -1.477529    0.492482
      6          6           0        1.624527   -1.754013    0.732079
      7          1           0       -0.401722   -1.016084    0.654037
      8          1           0        0.252668    1.204685   -0.254474
      9          1           0        2.667758    1.713542   -0.688629
     10          1           0        3.753347   -2.203265    0.690278
     11          1           0        1.341799   -2.724898    1.128931
     12          7           0        4.734045    0.080405   -0.274671
     13          8           0        5.555062   -0.798851   -0.022726
     14          8           0        5.003162    1.192405   -0.723746
     15          6           0       -3.306696    0.755127    0.127652
     16          6           0       -3.542049    2.265953    0.127780
     17          6           0       -2.276661    3.061326    0.450219
     18          1           0       -2.920786    0.450486    1.110104
     19          1           0       -2.523844    0.513079   -0.604434
     20          1           0       -4.325200    2.504927    0.858658
     21          1           0       -3.927624    2.567006   -0.854725
     22          1           0       -1.492417    2.852040   -0.284466
     23          1           0       -1.892251    2.789608    1.438652
     24          1           0       -2.467606    4.138996    0.444958
     25          6           0       -4.562435   -0.053580   -0.193032
     26          6           0       -4.327082   -1.564407   -0.193160
     27          6           0       -5.592470   -2.359780   -0.515600
     28          1           0       -5.345288    0.188467    0.539054
     29          1           0       -4.948346    0.251061   -1.175483
     30          1           0       -3.941507   -1.865459    0.789344
     31          1           0       -3.543932   -1.803380   -0.924039
     32          1           0       -5.976881   -2.088062   -1.504033
     33          1           0       -6.376714   -2.150493    0.219085
     34          1           0       -5.401525   -3.437450   -0.510339
 ---------------------------------------------------------------------

 SCF Done:  E(RHF) =  -669.535608245     A.U. after   15 cycles
 E2 =    -0.2092056192D+01 EUMP2 =    -0.67162766443699D+03

 The electronic state is 1-A.
 Alpha  occ. eigenvalues --  -20.60674 -20.60669 -15.85726 -11.31064 -11.27635
 Alpha  occ. eigenvalues --  -11.27620 -11.27319 -11.26637 -11.26574 -11.22714
 Alpha  occ. eigenvalues --  -11.22655 -11.22608 -11.22390 -11.22265 -11.21858
 Alpha  occ. eigenvalues --   -1.59751  -1.39305  -1.19229  -1.09541  -1.08622
 Alpha  occ. eigenvalues --   -1.04641  -1.04561  -0.97030  -0.95464  -0.88042
 Alpha  occ. eigenvalues --   -0.86029  -0.82300  -0.80651  -0.79393  -0.77355
 Alpha  occ. eigenvalues --   -0.71945  -0.71074  -0.70319  -0.66168  -0.64876
 Alpha  occ. eigenvalues --   -0.64649  -0.62098  -0.61857  -0.60379  -0.58654
 Alpha  occ. eigenvalues --   -0.56325  -0.55116  -0.53676  -0.53488  -0.52960
 Alpha  occ. eigenvalues --   -0.52695  -0.50958  -0.48957  -0.48702  -0.48685
 Alpha  occ. eigenvalues --   -0.47666  -0.46886  -0.46816  -0.44839  -0.44717
 Alpha  occ. eigenvalues --   -0.37201  -0.36237
 Alpha virt. eigenvalues --    0.05173   0.11385   0.16667   0.19266   0.22231
 Alpha virt. eigenvalues --    0.22968   0.24656   0.25295   0.26192   0.28500
 Alpha virt. eigenvalues --    0.29607   0.30284   0.30890   0.31452   0.31862

 Mulliken charges:
               1
     1  C   -0.177392
     2  C   -0.226603
     3  C   -0.173496
     4  C    0.158655
     5  C   -0.171254
     6  C   -0.218911
     7  H    0.231007
     8  H    0.234661
     9  H    0.275431
    10  H    0.275004
    11  H    0.222901
    12  N    0.488079
    13  O   -0.460917
    14  O   -0.460733
    15  C   -0.305014
    16  C   -0.300028
    17  C   -0.481468
    18  H    0.147711
    19  H    0.145792
    20  H    0.156884
    21  H    0.156234
    22  H    0.149243
    23  H    0.157804
    24  H    0.168107
    25  C   -0.298036
    26  C   -0.302076
    27  C   -0.476046
    28  H    0.153367
    29  H    0.153587
    30  H    0.149100
    31  H    0.151078
    32  H    0.157822
    33  H    0.157400
    34  H    0.162109
 Sum of Mulliken charges =  -0.00000

 Dipole moment (field-independent basis, Debye):
    X=             -5.3881    Y=             -0.9861    Z=              0.9100  Tot=              5.5526
 Quadrupole moment (field-independent basis, Debye-Ang):
   XX=           -127.6523   YY=            -90.2200   ZZ=            -94.0924
   XY=             -4.5824   XZ=              3.2382   YZ=             -1.9813

 Normal termination of Gaussian 16 at Thu May  6 19:21:38 2021.
