 Gaussian 16, Revision A.03,
 Gaussian 16:  EM64L-G16RevA.03 25-Dec-2016

 -------------
 #p 6-31g* mp2
 -------------

 ------------------------------------------------------
 Input file generated by CHIRIPA (05-May-2021 14:55:22)
 ------------------------------------------------------
 Symbolic Z-matrix:
 Charge =  0 Multiplicity = 1

                         Standard orientation:
 ---------------------------------------------------------------------
 Center     Atomic      Atomic             Coordinates (Angstroms)
 Number     Number       Type             X           Y           Z
 ---------------------------------------------------------------------
      1          6           0       -0.936687   -1.929112   -1.011829
      2          6           0       -0.730175   -0.547536   -0.940269
      3          6           0       -1.720731    0.292577   -0.423011
      4          6           0       -2.911099   -0.285254    0.015653
      5          6           0       -3.146728   -1.657983   -0.042529
      6          6           0       -2.142179   -2.478957   -0.563521
      7          1           0       -0.161765   -2.574298   -1.415098
      8          1           0        0.205037   -0.117744   -1.287692
      9          1           0       -1.587217    1.365473   -0.356039
     10          1           0       -4.089416   -2.057177    0.311593
     11          1           0       -2.305323   -3.551558   -0.617882
     12          7           0       -3.967163    0.594005    0.565228
     13          8           0       -5.007080    0.060245    0.945111
     14          8           0       -3.734993    1.800278    0.605695
     15          6           0        3.844303    0.098580    0.608638
     16          6           0        4.712640   -0.989210   -0.024361
     17          6           0        5.387929   -1.885440    1.014172
     18          1           0        4.464805    0.711857    1.276329
     19          1           0        3.078903   -0.373986    1.239700
     20          1           0        5.475307   -0.514788   -0.655136
     21          1           0        4.090038   -1.599851   -0.690771
     22          1           0        4.639004   -2.385256    1.636985
     23          1           0        6.032143   -1.294027    1.672823
     24          1           0        6.003691   -2.655988    0.539878
     25          6           0        3.162537    1.002647   -0.416833
     26          6           0        2.294201    2.090437    0.216166
     27          6           0        1.618911    2.986667   -0.822368
     28          1           0        3.927937    1.475212   -1.047895
     29          1           0        2.542035    0.389370   -1.084525
     30          1           0        2.916802    2.701078    0.882576
     31          1           0        1.531534    1.616014    0.846941
     32          1           0        0.974697    2.395253   -1.481018
     33          1           0        2.367836    3.486482   -1.445181
     34          1           0        1.003149    3.757213   -0.348074
 ---------------------------------------------------------------------

 SCF Done:  E(RHF) =  -669.535290081     A.U. after   15 cycles
 E2 =    -0.2092392309D+01 EUMP2 =    -0.67162768239007D+03

 The electronic state is 1-A.
 Alpha  occ. eigenvalues --  -20.60752 -20.60747 -15.85805 -11.31174 -11.27752
 Alpha  occ. eigenvalues --  -11.27730 -11.27494 -11.26768 -11.26728 -11.22401
 Alpha  occ. eigenvalues --  -11.22321 -11.22313 -11.22104 -11.21929 -11.21655
 Alpha  occ. eigenvalues --   -1.59827  -1.39380  -1.19350  -1.09244  -1.08744
 Alpha  occ. eigenvalues --   -1.04761  -1.04289  -0.96745  -0.95578  -0.87755
 Alpha  occ. eigenvalues --   -0.86154  -0.82414  -0.80345  -0.79052  -0.77460
 Alpha  occ. eigenvalues --   -0.72024  -0.71150  -0.70462  -0.66008  -0.65003
 Alpha  occ. eigenvalues --   -0.64704  -0.62280  -0.61488  -0.60097  -0.58341
 Alpha  occ. eigenvalues --   -0.56061  -0.55254  -0.53404  -0.53161  -0.53081
 Alpha  occ. eigenvalues --   -0.52852  -0.50697  -0.48794  -0.48777  -0.48643
 Alpha  occ. eigenvalues --   -0.47393  -0.46582  -0.46496  -0.44785  -0.44549
 Alpha  occ. eigenvalues --   -0.37334  -0.36351
 Alpha virt. eigenvalues --    0.05061   0.11268   0.16482   0.18554   0.22818
 Alpha virt. eigenvalues --    0.23479   0.25115   0.26075   0.26683   0.28804
 Alpha virt. eigenvalues --    0.29531   0.29847   0.31072   0.31289   0.31648

 Mulliken charges:
               1
     1  C   -0.173004
     2  C   -0.226728
     3  C   -0.175528
     4  C    0.159145
     5  C   -0.170881
     6  C   -0.218598
     7  H    0.225539
     8  H    0.234955
     9  H    0.278337
    10  H    0.275593
    11  H    0.223395
    12  N    0.488076
    13  O   -0.460621
    14  O   -0.460258
    15  C   -0.299342
    16  C   -0.299045
    17  C   -0.476209
    18  H    0.153648
    19  H    0.151198
    20  H    0.153955
    21  H    0.146716
    22  H    0.155561
    23  H    0.157611
    24  H    0.161436
    25  C   -0.300399
    26  C   -0.304814
    27  C   -0.479556
    28  H    0.153972
    29  H    0.139042
    30  H    0.158339
    31  H    0.154033
    32  H    0.145812
    33  H    0.160237
    34  H    0.168384
 Sum of Mulliken charges =  -0.00000

 Dipole moment (field-independent basis, Debye):
    X=              3.9065    Y=             -2.9896    Z=             -1.8274  Tot=              5.2476
 Quadrupole moment (field-independent basis, Debye-Ang):
   XX=           -114.0778   YY=            -89.6123   ZZ=            -95.9721
   XY=             11.9239   XZ=              5.1355   YZ=              0.3361

 Normal termination of Gaussian 16 at Wed May  5 19:03:22 2021.
