 Gaussian 16, Revision A.03,
 Gaussian 16:  EM64L-G16RevA.03 25-Dec-2016

 -------------
 #p 6-31g* mp2
 -------------

 ------------------------------------------------------
 Input file generated by CHIRIPA (05-May-2021 14:57:22)
 ------------------------------------------------------
 Symbolic Z-matrix:
 Charge =  0 Multiplicity = 1

                         Standard orientation:
 ---------------------------------------------------------------------
 Center     Atomic      Atomic             Coordinates (Angstroms)
 Number     Number       Type             X           Y           Z
 ---------------------------------------------------------------------
      1          6           0       -3.641858    2.385024    0.147182
      2          6           0       -4.549134    1.322218    0.208956
      3          6           0       -4.102693    0.000979    0.111154
      4          6           0       -2.735946   -0.222138   -0.048575
      5          6           0       -1.807259    0.815454   -0.113644
      6          6           0       -2.276224    2.128701   -0.013637
      7          1           0       -3.997413    3.408290    0.224013
      8          1           0       -5.610271    1.518298    0.333804
      9          1           0       -4.783241   -0.840610    0.155869
     10          1           0       -0.755441    0.588550   -0.238586
     11          1           0       -1.569333    2.952119   -0.061937
     12          7           0       -2.251396   -1.616644   -0.153280
     13          8           0       -1.042247   -1.786665   -0.293591
     14          8           0       -3.089931   -2.513232   -0.093055
     15          6           0        2.267250   -2.461252    0.243593
     16          6           0        2.357846   -1.871111   -1.021337
     17          6           0        2.661183   -0.512528   -1.150906
     18          6           0        2.868839    0.229507    0.010796
     19          6           0        2.785592   -0.329589    1.285069
     20          6           0        2.481035   -1.689967    1.390736
     21          1           0        2.031136   -3.517329    0.334962
     22          1           0        2.192312   -2.467658   -1.913960
     23          1           0        2.737512   -0.030184   -2.117827
     24          1           0        2.955813    0.290820    2.156581
     25          1           0        2.411326   -2.145608    2.374391
     26          7           0        3.190613    1.668728   -0.113722
     27          8           0        3.369161    2.300730    0.925187
     28          8           0        3.258180    2.137536   -1.247869
 ---------------------------------------------------------------------

 SCF Done:  E(RHF) =  -868.339540691     A.U. after   16 cycles
 E2 =    -0.2600337059D+01 EUMP2 =    -0.87093987775065D+03

 The electronic state is 1-A.
 Alpha  occ. eigenvalues --  -20.61109 -20.61090 -20.60645 -20.60640 -15.86130
 Alpha  occ. eigenvalues --  -15.85688 -11.31275 -11.30700 -11.27833 -11.27771
 Alpha  occ. eigenvalues --  -11.27499 -11.27229 -11.27195 -11.26800 -11.26729
 Alpha  occ. eigenvalues --  -11.26709 -11.26082 -11.26010  -1.60184  -1.59742
 Alpha  occ. eigenvalues --   -1.39741  -1.39299  -1.19422  -1.18797  -1.08862
 Alpha  occ. eigenvalues --   -1.08220  -1.04781  -1.04140  -0.95737  -0.95130
 Alpha  occ. eigenvalues --   -0.86190  -0.85548  -0.82569  -0.81988  -0.77643
 Alpha  occ. eigenvalues --   -0.77113  -0.72387  -0.71902  -0.71495  -0.71086
 Alpha  occ. eigenvalues --   -0.70521  -0.69841  -0.65073  -0.64769  -0.64431
 Alpha  occ. eigenvalues --   -0.64127  -0.62127  -0.61519  -0.55291  -0.54566
 Alpha  occ. eigenvalues --   -0.53136  -0.52884  -0.52418  -0.52229  -0.49130
 Alpha  occ. eigenvalues --   -0.49113  -0.48681  -0.48628  -0.45202  -0.44784
 Alpha  occ. eigenvalues --   -0.37396  -0.36609  -0.36378  -0.35715
 Alpha virt. eigenvalues --    0.04822   0.05435   0.11273   0.11947   0.16372
 Alpha virt. eigenvalues --    0.17091   0.21411   0.22119   0.27211   0.27950
 Alpha virt. eigenvalues --    0.28134   0.29008   0.30938   0.31682   0.32219

 Mulliken charges:
               1
     1  C   -0.170349
     2  C   -0.218833
     3  C   -0.171393
     4  C    0.156342
     5  C   -0.172514
     6  C   -0.219539
     7  H    0.227391
     8  H    0.223487
     9  H    0.274415
    10  H    0.276624
    11  H    0.230829
    12  N    0.491530
    13  O   -0.468129
    14  O   -0.461837
    15  C   -0.152340
    16  C   -0.206142
    17  C   -0.177353
    18  C    0.151347
    19  C   -0.175150
    20  C   -0.218031
    21  H    0.230189
    22  H    0.225128
    23  H    0.272003
    24  H    0.271621
    25  H    0.222035
    26  N    0.486346
    27  O   -0.463807
    28  O   -0.463871
 Sum of Mulliken charges =  -0.00000

 Dipole moment (field-independent basis, Debye):
    X=             -2.9728    Y=             -0.4367    Z=              0.7807  Tot=              3.1045
 Quadrupole moment (field-independent basis, Debye-Ang):
   XX=            -99.0940   YY=           -109.1197   ZZ=           -100.8421
   XY=            -27.5184   XZ=             -0.0049   YZ=              0.0416

 Normal termination of Gaussian 16 at Wed May  5 20:58:21 2021.
