 Gaussian 16, Revision A.03,
 Gaussian 16:  EM64L-G16RevA.03 25-Dec-2016

 -------------
 #p 6-31g* mp2
 -------------

 ------------------------------------------------------
 Input file generated by CHIRIPA (05-May-2021 14:55:21)
 ------------------------------------------------------
 Symbolic Z-matrix:
 Charge =  0 Multiplicity = 1

                         Standard orientation:
 ---------------------------------------------------------------------
 Center     Atomic      Atomic             Coordinates (Angstroms)
 Number     Number       Type             X           Y           Z
 ---------------------------------------------------------------------
      1          6           0        2.550125    1.858061    0.802682
      2          6           0        1.506119    1.180027    1.440524
      3          6           0        1.214193   -0.146544    1.109562
      4          6           0        1.990025   -0.767290    0.131784
      5          6           0        3.036697   -0.118531   -0.521577
      6          6           0        3.310741    1.207765   -0.174609
      7          1           0        2.769954    2.888467    1.065998
      8          1           0        0.913749    1.682544    2.199879
      9          1           0        0.411697   -0.695089    1.587596
     10          1           0        3.609647   -0.645935   -1.274565
     11          1           0        4.122130    1.731858   -0.671618
     12          7           0        1.690442   -2.171526   -0.227063
     13          8           0        2.388770   -2.696057   -1.091841
     14          8           0        0.762972   -2.721047    0.363246
     15          6           0       -2.123845    1.053102   -0.704630
     16          6           0       -1.570007    2.342243   -0.096877
     17          6           0       -0.598014    3.065523   -1.029556
     18          1           0       -1.288504    0.385117   -0.955517
     19          1           0       -2.629772    1.289886   -1.650868
     20          1           0       -1.066475    2.103288    0.848624
     21          1           0       -2.406774    3.007159    0.152768
     22          1           0       -1.092301    3.332374   -1.969274
     23          1           0        0.255614    2.423366   -1.269466
     24          1           0       -0.214259    3.984325   -0.575248
     25          6           0       -3.097019    0.318688    0.215858
     26          6           0       -3.650857   -0.970453   -0.391895
     27          6           0       -4.622850   -1.693733    0.540784
     28          1           0       -2.591092    0.081904    1.162096
     29          1           0       -3.932361    0.986673    0.466746
     30          1           0       -2.814090   -1.635369   -0.641540
     31          1           0       -4.154389   -0.731497   -1.337396
     32          1           0       -5.476478   -1.051576    0.780695
     33          1           0       -4.128564   -1.960583    1.480504
     34          1           0       -5.006605   -2.612535    0.086476
 ---------------------------------------------------------------------

 SCF Done:  E(RHF) =  -669.534238563     A.U. after   15 cycles
 E2 =    -0.2095444364D+01 EUMP2 =    -0.67162968292748D+03

 The electronic state is 1-A.
 Alpha  occ. eigenvalues --  -20.60898 -20.60891 -15.85948 -11.31329 -11.27884
 Alpha  occ. eigenvalues --  -11.27877 -11.27602 -11.26895 -11.26871 -11.21875
 Alpha  occ. eigenvalues --  -11.21486 -11.21428 -11.21345 -11.21334 -11.20815
 Alpha  occ. eigenvalues --   -1.59969  -1.39522  -1.19505  -1.08895  -1.08488
 Alpha  occ. eigenvalues --   -1.04912  -1.03550  -0.96026  -0.95710  -0.87039
 Alpha  occ. eigenvalues --   -0.86298  -0.82559  -0.79653  -0.78297  -0.77595
 Alpha  occ. eigenvalues --   -0.72163  -0.71295  -0.70587  -0.65229  -0.65124
 Alpha  occ. eigenvalues --   -0.64894  -0.62251  -0.60984  -0.59412  -0.57624
 Alpha  occ. eigenvalues --   -0.55403  -0.55345  -0.53142  -0.53002  -0.52706
 Alpha  occ. eigenvalues --   -0.52421  -0.49963  -0.48925  -0.48919  -0.47937
 Alpha  occ. eigenvalues --   -0.46672  -0.45838  -0.45736  -0.44912  -0.43829
 Alpha  occ. eigenvalues --   -0.37419  -0.36429
 Alpha virt. eigenvalues --    0.04911   0.11052   0.16323   0.20041   0.22967
 Alpha virt. eigenvalues --    0.24173   0.25286   0.26795   0.27252   0.28517
 Alpha virt. eigenvalues --    0.29455   0.30112   0.31548   0.31651   0.32210

 Mulliken charges:
               1
     1  C   -0.169792
     2  C   -0.215578
     3  C   -0.170774
     4  C    0.157977
     5  C   -0.171284
     6  C   -0.219273
     7  H    0.226778
     8  H    0.224950
     9  H    0.276887
    10  H    0.276183
    11  H    0.224438
    12  N    0.488019
    13  O   -0.459495
    14  O   -0.460857
    15  C   -0.300873
    16  C   -0.297233
    17  C   -0.478288
    18  H    0.152466
    19  H    0.151411
    20  H    0.141459
    21  H    0.151733
    22  H    0.156614
    23  H    0.161483
    24  H    0.151851
    25  C   -0.297011
    26  C   -0.302697
    27  C   -0.475436
    28  H    0.142319
    29  H    0.148919
    30  H    0.163163
    31  H    0.151157
    32  H    0.152361
    33  H    0.155769
    34  H    0.162654
 Sum of Mulliken charges =  -0.00000

 Dipole moment (field-independent basis, Debye):
    X=              1.1597    Y=              4.8149    Z=              1.2032  Tot=              5.0966
 Quadrupole moment (field-independent basis, Debye-Ang):
   XX=            -87.8923   YY=           -103.4366   ZZ=            -92.8028
   XY=              8.7915   XZ=              0.7473   YZ=             -0.1401

 Normal termination of Gaussian 16 at Thu May  6 10:54:12 2021.
