 Gaussian 16, Revision A.03,
 Gaussian 16:  EM64L-G16RevA.03 25-Dec-2016

 -------------
 #p 6-31g* mp2
 -------------

 ------------------------------------------------------
 Input file generated by CHIRIPA (05-May-2021 14:53:17)
 ------------------------------------------------------
 Symbolic Z-matrix:
 Charge =  0 Multiplicity = 1

                         Standard orientation:
 ---------------------------------------------------------------------
 Center     Atomic      Atomic             Coordinates (Angstroms)
 Number     Number       Type             X           Y           Z
 ---------------------------------------------------------------------
      1          6           0        3.777159   -0.844621    0.538341
      2          6           0        2.410677   -1.226446   -0.031676
      3          6           0        1.708322   -2.307473    0.790438
      4          1           0        4.410888   -1.740759    0.585969
      5          1           0        3.650770   -0.495840    1.572640
      6          1           0        2.539434   -1.573095   -1.065055
      7          1           0        1.780192   -0.329257   -0.078131
      8          1           0        1.550772   -1.967637    1.819171
      9          1           0        2.314329   -3.218542    0.826639
     10          1           0        0.733329   -2.565216    0.365212
     11          6           0        4.491667    0.234981   -0.272626
     12          6           0        5.858150    0.616806    0.297392
     13          6           0        6.560504    1.697833   -0.524723
     14          1           0        4.618056   -0.113800   -1.306924
     15          1           0        3.857938    1.131119   -0.320253
     16          1           0        6.488635   -0.280383    0.343846
     17          1           0        5.729392    0.963455    1.330770
     18          1           0        5.954498    2.608902   -0.560924
     19          1           0        6.718054    1.357997   -1.553455
     20          1           0        7.535497    1.955576   -0.099497
     21          6           0       -3.071955   -2.249506   -0.494383
     22          6           0       -1.964636   -1.430730   -0.739273
     23          6           0       -2.040804   -0.051088   -0.526355
     24          6           0       -3.245290    0.478637   -0.066034
     25          6           0       -4.365959   -0.310848    0.187155
     26          6           0       -4.266976   -1.687941   -0.032765
     27          1           0       -3.003924   -3.320254   -0.662503
     28          1           0       -1.035285   -1.864094   -1.097809
     29          1           0       -1.198924    0.605970   -0.707823
     30          1           0       -5.278877    0.150169    0.544173
     31          1           0       -5.128546   -2.321382    0.158272
     32          7           0       -3.338004    1.937853    0.163079
     33          8           0       -4.410559    2.380043    0.568949
     34          8           0       -2.336360    2.611766   -0.067551
 ---------------------------------------------------------------------

 SCF Done:  E(RHF) =  -669.535419473     A.U. after   15 cycles
 E2 =    -0.2091380948D+01 EUMP2 =    -0.67162680042080D+03

 The electronic state is 1-A.
 Alpha  occ. eigenvalues --  -20.60767 -20.60762 -15.85820 -11.31183 -11.27756
 Alpha  occ. eigenvalues --  -11.27750 -11.27496 -11.26768 -11.26742 -11.22285
 Alpha  occ. eigenvalues --  -11.21812 -11.21798 -11.21779 -11.21637 -11.21171
 Alpha  occ. eigenvalues --   -1.59842  -1.39396  -1.19357  -1.08821  -1.08751
 Alpha  occ. eigenvalues --   -1.04761  -1.03944  -0.96384  -0.95587  -0.87403
 Alpha  occ. eigenvalues --   -0.86157  -0.82419  -0.80027  -0.78600  -0.77469
 Alpha  occ. eigenvalues --   -0.72039  -0.71165  -0.70465  -0.65440  -0.65008
 Alpha  occ. eigenvalues --   -0.64801  -0.62167  -0.61323  -0.59771  -0.57995
 Alpha  occ. eigenvalues --   -0.55641  -0.55259  -0.53286  -0.53038  -0.52937
 Alpha  occ. eigenvalues --   -0.52562  -0.50303  -0.48798  -0.48793  -0.48333
 Alpha  occ. eigenvalues --   -0.47051  -0.46146  -0.46041  -0.44802  -0.44189
 Alpha  occ. eigenvalues --   -0.37334  -0.36347
 Alpha virt. eigenvalues --    0.05062   0.11204   0.16488   0.19791   0.22755
 Alpha virt. eigenvalues --    0.23927   0.25478   0.26230   0.26815   0.28211
 Alpha virt. eigenvalues --    0.28939   0.29926   0.31208   0.31432   0.32255

 Mulliken charges:
               1
     1  C   -0.298301
     2  C   -0.302727
     3  C   -0.477454
     4  H    0.150565
     5  H    0.152585
     6  H    0.150161
     7  H    0.150483
     8  H    0.160977
     9  H    0.157435
    10  H    0.150936
    11  C   -0.299418
    12  C   -0.300127
    13  C   -0.476190
    14  H    0.149057
    15  H    0.152474
    16  H    0.151634
    17  H    0.153335
    18  H    0.157143
    19  H    0.154953
    20  H    0.161090
    21  C   -0.171723
    22  C   -0.219182
    23  C   -0.172955
    24  C    0.158694
    25  C   -0.170692
    26  C   -0.218508
    27  H    0.225720
    28  H    0.227426
    29  H    0.276495
    30  H    0.275606
    31  H    0.223457
    32  N    0.488108
    33  O   -0.460424
    34  O   -0.460630
 Sum of Mulliken charges =  -0.00000

 Dipole moment (field-independent basis, Debye):
    X=              0.4440    Y=             -5.1045    Z=             -0.7500  Tot=              5.1784
 Quadrupole moment (field-independent basis, Debye-Ang):
   XX=            -91.9534   YY=           -100.4149   ZZ=            -94.9045
   XY=             16.9406   XZ=              1.2132   YZ=              0.5337

 Normal termination of Gaussian 16 at Wed May  5 18:45:50 2021.
