 Gaussian 16, Revision A.03,
 Gaussian 16:  EM64L-G16RevA.03 25-Dec-2016

 -------------
 #p 6-31g* mp2
 -------------

 ------------------------------------------------------
 Input file generated by CHIRIPA (05-May-2021 14:53:16)
 ------------------------------------------------------
 Symbolic Z-matrix:
 Charge =  0 Multiplicity = 1

                         Standard orientation:
 ---------------------------------------------------------------------
 Center     Atomic      Atomic             Coordinates (Angstroms)
 Number     Number       Type             X           Y           Z
 ---------------------------------------------------------------------
      1          6           0        3.255198   -0.649612   -0.280207
      2          6           0        2.411827   -1.295546    0.819557
      3          6           0        1.013326   -1.685436    0.340001
      4          1           0        2.734058    0.240730   -0.657899
      5          1           0        3.337545   -1.345973   -1.126195
      6          1           0        2.332251   -0.598720    1.663783
      7          1           0        2.935125   -2.184344    1.194807
      8          1           0        1.075008   -2.399547   -0.487551
      9          1           0        0.468709   -0.804913   -0.015910
     10          1           0        0.427600   -2.145352    1.142037
     11          6           0        4.655940   -0.254292    0.183874
     12          6           0        5.499310    0.391642   -0.915891
     13          6           0        6.897812    0.781532   -0.436334
     14          1           0        4.573593    0.442069    1.029861
     15          1           0        5.177080   -1.144633    0.561565
     16          1           0        4.976013    1.280440   -1.291141
     17          1           0        5.578887   -0.305184   -1.760116
     18          1           0        7.442429   -0.098991   -0.080423
     19          1           0        6.836130    1.495643    0.391217
     20          1           0        7.483538    1.241448   -1.238371
     21          6           0       -1.629537    2.289556    0.732051
     22          6           0       -2.679518    2.492833   -0.169470
     23          6           0       -3.495287    1.427203   -0.561262
     24          6           0       -3.231508    0.165877   -0.029504
     25          6           0       -2.193086   -0.068531    0.870509
     26          6           0       -1.390095    1.011776    1.248253
     27          1           0       -1.000792    3.123064    1.030948
     28          1           0       -2.867805    3.484087   -0.571974
     29          1           0       -4.314942    1.556445   -1.257596
     30          1           0       -2.029968   -1.068121    1.254735
     31          1           0       -0.575378    0.850960    1.948552
     32          7           0       -4.088363   -0.970026   -0.436841
     33          8           0       -3.835226   -2.071582    0.046000
     34          8           0       -4.996878   -0.737285   -1.231238
 ---------------------------------------------------------------------

 SCF Done:  E(RHF) =  -669.534278246     A.U. after   15 cycles
 E2 =    -0.2092640425D+01 EUMP2 =    -0.67162691867124D+03

 The electronic state is 1-A.
 Alpha  occ. eigenvalues --  -20.60742 -20.60737 -15.85796 -11.31164 -11.27748
 Alpha  occ. eigenvalues --  -11.27716 -11.27505 -11.26764 -11.26737 -11.22140
 Alpha  occ. eigenvalues --  -11.21959 -11.21842 -11.21771 -11.21474 -11.21389
 Alpha  occ. eigenvalues --   -1.59817  -1.39370  -1.19360  -1.08868  -1.08749
 Alpha  occ. eigenvalues --   -1.04779  -1.03952  -0.96408  -0.95577  -0.87427
 Alpha  occ. eigenvalues --   -0.86155  -0.82415  -0.80029  -0.78672  -0.77449
 Alpha  occ. eigenvalues --   -0.72015  -0.71141  -0.70466  -0.65521  -0.65007
 Alpha  occ. eigenvalues --   -0.64758  -0.62185  -0.61313  -0.59767  -0.58015
 Alpha  occ. eigenvalues --   -0.55737  -0.55258  -0.53294  -0.53086  -0.52771
 Alpha  occ. eigenvalues --   -0.52704  -0.50297  -0.48775  -0.48767  -0.48331
 Alpha  occ. eigenvalues --   -0.47061  -0.46209  -0.46143  -0.44772  -0.44217
 Alpha  occ. eigenvalues --   -0.37354  -0.36264
 Alpha virt. eigenvalues --    0.05075   0.11224   0.16476   0.20210   0.22653
 Alpha virt. eigenvalues --    0.23873   0.26010   0.26223   0.27002   0.27946
 Alpha virt. eigenvalues --    0.28832   0.29655   0.31252   0.31477   0.31845

 Mulliken charges:
               1
     1  C   -0.298509
     2  C   -0.299717
     3  C   -0.485042
     4  H    0.148232
     5  H    0.152854
     6  H    0.143844
     7  H    0.155327
     8  H    0.162330
     9  H    0.161633
    10  H    0.155025
    11  C   -0.298246
    12  C   -0.299793
    13  C   -0.475835
    14  H    0.147253
    15  H    0.151286
    16  H    0.150955
    17  H    0.153602
    18  H    0.156202
    19  H    0.154403
    20  H    0.161226
    21  C   -0.171835
    22  C   -0.218882
    23  C   -0.171026
    24  C    0.158123
    25  C   -0.168901
    26  C   -0.221186
    27  H    0.225389
    28  H    0.223321
    29  H    0.275594
    30  H    0.278896
    31  H    0.226068
    32  N    0.488164
    33  O   -0.460117
    34  O   -0.460638
 Sum of Mulliken charges =  -0.00000

 Dipole moment (field-independent basis, Debye):
    X=              3.0728    Y=              3.9543    Z=              1.3593  Tot=              5.1891
 Quadrupole moment (field-independent basis, Debye-Ang):
   XX=           -114.1584   YY=            -91.1270   ZZ=            -93.7382
   XY=            -15.1787   XZ=             -3.4514   YZ=             -1.6534

 Normal termination of Gaussian 16 at Thu May  6 17:16:03 2021.
