 Gaussian 16, Revision A.03,
 Gaussian 16:  EM64L-G16RevA.03 25-Dec-2016

 -------------
 #p 6-31g* mp2
 -------------

 ------------------------------------------------------
 Input file generated by CHIRIPA (05-May-2021 14:55:21)
 ------------------------------------------------------
 Symbolic Z-matrix:
 Charge =  0 Multiplicity = 1

                         Standard orientation:
 ---------------------------------------------------------------------
 Center     Atomic      Atomic             Coordinates (Angstroms)
 Number     Number       Type             X           Y           Z
 ---------------------------------------------------------------------
      1          6           0       -0.923882    2.376711    0.640941
      2          6           0       -1.666104    2.434953   -0.543219
      3          6           0       -2.558536    1.410545   -0.872916
      4          6           0       -2.684412    0.337885    0.008474
      5          6           0       -1.958972    0.251113    1.195696
      6          6           0       -1.072423    1.286897    1.505096
      7          1           0       -0.232904    3.176915    0.889173
      8          1           0       -1.552791    3.280101   -1.216221
      9          1           0       -3.145541    1.430272   -1.783110
     10          1           0       -2.093486   -0.604186    1.846687
     11          1           0       -0.497304    1.239007    2.425416
     12          7           0       -3.626076   -0.752632   -0.329818
     13          8           0       -3.718773   -1.686828    0.463481
     14          8           0       -4.253625   -0.652534   -1.381863
     15          6           0        3.644986   -0.017223   -0.111459
     16          6           0        5.141561   -0.254064   -0.316779
     17          6           0        5.943614    1.046445   -0.373178
     18          1           0        3.265063    0.614515   -0.926019
     19          1           0        3.494532    0.548074    0.818702
     20          1           0        5.289055   -0.819945   -1.245563
     21          1           0        5.517927   -0.885470    0.498262
     22          1           0        5.826049    1.612193    0.556719
     23          1           0        5.595878    1.678091   -1.197013
     24          1           0        7.010884    0.853843   -0.520491
     25          6           0        2.829802   -1.307874   -0.052965
     26          6           0        1.333227   -1.071033    0.152355
     27          6           0        0.531174   -2.371542    0.208755
     28          1           0        2.980257   -1.873171   -0.983125
     29          1           0        3.209726   -1.939612    0.761595
     30          1           0        0.956862   -0.439627   -0.662685
     31          1           0        1.185734   -0.505152    1.081140
     32          1           0        0.878911   -3.003187    1.032589
     33          1           0        0.648739   -2.937289   -0.721143
     34          1           0       -0.536094   -2.178940    0.356067
 ---------------------------------------------------------------------

 SCF Done:  E(RHF) =  -669.534267869     A.U. after   15 cycles
 E2 =    -0.2094556755D+01 EUMP2 =    -0.67162882462421D+03

 The electronic state is 1-A.
 Alpha  occ. eigenvalues --  -20.60864 -20.60852 -15.85892 -11.31227 -11.27789
 Alpha  occ. eigenvalues --  -11.27769 -11.27514 -11.26807 -11.26785 -11.21905
 Alpha  occ. eigenvalues --  -11.21735 -11.21704 -11.21559 -11.21414 -11.21007
 Alpha  occ. eigenvalues --   -1.59921  -1.39477  -1.19406  -1.08804  -1.08677
 Alpha  occ. eigenvalues --   -1.04821  -1.03727  -0.96189  -0.95635  -0.87201
 Alpha  occ. eigenvalues --   -0.86203  -0.82479  -0.79804  -0.78508  -0.77530
 Alpha  occ. eigenvalues --   -0.72112  -0.71242  -0.70511  -0.65328  -0.65054
 Alpha  occ. eigenvalues --   -0.64815  -0.62191  -0.61128  -0.59587  -0.57861
 Alpha  occ. eigenvalues --   -0.55477  -0.55296  -0.53231  -0.52943  -0.52721
 Alpha  occ. eigenvalues --   -0.52519  -0.50123  -0.48875  -0.48868  -0.48115
 Alpha  occ. eigenvalues --   -0.46857  -0.46035  -0.45976  -0.44888  -0.43974
 Alpha  occ. eigenvalues --   -0.37339  -0.36303
 Alpha virt. eigenvalues --    0.04992   0.11143   0.16435   0.20833   0.22737
 Alpha virt. eigenvalues --    0.24094   0.25971   0.26818   0.27232   0.28124
 Alpha virt. eigenvalues --    0.28592   0.29941   0.31304   0.31631   0.31795

 Mulliken charges:
               1
     1  C   -0.170526
     2  C   -0.218860
     3  C   -0.171608
     4  C    0.160373
     5  C   -0.170764
     6  C   -0.214414
     7  H    0.225957
     8  H    0.223551
     9  H    0.275573
    10  H    0.276051
    11  H    0.223103
    12  N    0.488519
    13  O   -0.460744
    14  O   -0.459308
    15  C   -0.296889
    16  C   -0.299639
    17  C   -0.475627
    18  H    0.148366
    19  H    0.144094
    20  H    0.153624
    21  H    0.152662
    22  H    0.153383
    23  H    0.154406
    24  H    0.161630
    25  C   -0.298463
    26  C   -0.297481
    27  C   -0.482375
    28  H    0.151265
    29  H    0.149343
    30  H    0.153643
    31  H    0.143312
    32  H    0.153844
    33  H    0.158579
    34  H    0.165418
 Sum of Mulliken charges =  -0.00000

 Dipole moment (field-independent basis, Debye):
    X=              3.2499    Y=              3.8410    Z=              1.1484  Tot=              5.1608
 Quadrupole moment (field-independent basis, Debye-Ang):
   XX=           -113.6168   YY=            -92.2134   ZZ=            -90.3542
   XY=            -10.5770   XZ=             -1.9089   YZ=             -1.7737

 Normal termination of Gaussian 16 at Thu May  6 04:37:07 2021.
