 Gaussian 16, Revision A.03,
 Gaussian 16:  EM64L-G16RevA.03 25-Dec-2016

 -------------
 #p 6-31g* mp2
 -------------

 ------------------------------------------------------
 Input file generated by CHIRIPA (05-May-2021 14:51:12)
 ------------------------------------------------------
 Symbolic Z-matrix:
 Charge =  0 Multiplicity = 1

                         Standard orientation:
 ---------------------------------------------------------------------
 Center     Atomic      Atomic             Coordinates (Angstroms)
 Number     Number       Type             X           Y           Z
 ---------------------------------------------------------------------
      1          6           0       -2.893030    0.870332   -0.316306
      2          6           0       -2.505346    2.244077    0.231885
      3          6           0       -1.234220    2.799835   -0.410894
      4          1           0       -2.062154    0.170105   -0.154216
      5          1           0       -3.032677    0.943302   -1.403766
      6          1           0       -2.367822    2.168840    1.318182
      7          1           0       -3.337316    2.941067    0.068643
      8          1           0       -1.363423    2.903548   -1.493091
      9          1           0       -0.388421    2.126934   -0.236452
     10          1           0       -0.975403    3.782505   -0.004405
     11          6           0       -4.161762    0.301537    0.316558
     12          6           0       -4.549446   -1.072208   -0.231632
     13          6           0       -5.820572   -1.627966    0.411146
     14          1           0       -4.022115    0.228567    1.404018
     15          1           0       -4.992638    1.001764    0.154468
     16          1           0       -3.717477   -1.769198   -0.068391
     17          1           0       -4.686970   -0.996971   -1.317930
     18          1           0       -6.666371   -0.955065    0.236705
     19          1           0       -5.691370   -1.731679    1.493344
     20          1           0       -6.079389   -2.610636    0.004658
     21          6           0        4.279622   -0.642256   -0.120191
     22          6           0        5.070013    0.552904    0.413533
     23          6           0        6.573416    0.425589    0.165813
     24          1           0        4.653837   -1.561280    0.351300
     25          1           0        4.467160   -0.745188   -1.197979
     26          1           0        4.879952    0.654388    1.489728
     27          1           0        4.693744    1.469211   -0.059140
     28          1           0        6.781954    0.347282   -0.906092
     29          1           0        6.969221   -0.472171    0.651575
     30          1           0        7.119145    1.290656    0.555296
     31          6           0        2.775170   -0.529613    0.119938
     32          6           0        1.984779   -1.724773   -0.413786
     33          6           0        0.481377   -1.597458   -0.166065
     34          1           0        2.587631   -0.426682    1.197727
     35          1           0        2.400955    0.389411   -0.351552
     36          1           0        2.361048   -2.641080    0.058887
     37          1           0        2.174839   -1.826257   -1.489980
     38          1           0        0.085571   -0.699698   -0.651828
     39          1           0        0.272838   -1.519151    0.905839
     40          1           0       -0.064354   -2.462526   -0.555548
 ---------------------------------------------------------------------

 SCF Done:  E(RHF) =  -470.733138308     A.U. after   11 cycles
 E2 =    -0.1583131287D+01 EUMP2 =    -0.47231626959460D+03

 The electronic state is 1-A.
 Alpha  occ. eigenvalues --  -11.21647 -11.21613 -11.21549 -11.21538 -11.21441
 Alpha  occ. eigenvalues --  -11.21379 -11.21318 -11.21234 -11.21130 -11.21079
 Alpha  occ. eigenvalues --  -11.21058 -11.21026  -1.08465  -1.08360  -1.03569
 Alpha  occ. eigenvalues --   -1.03477  -0.96027  -0.95924  -0.87054  -0.86938
 Alpha  occ. eigenvalues --   -0.79668  -0.79519  -0.78306  -0.78139  -0.65115
 Alpha  occ. eigenvalues --   -0.64979  -0.61005  -0.60842  -0.59395  -0.59290
 Alpha  occ. eigenvalues --   -0.57642  -0.57531  -0.55336  -0.55201  -0.52730
 Alpha  occ. eigenvalues --   -0.52629  -0.52510  -0.52301  -0.50007  -0.49844
 Alpha  occ. eigenvalues --   -0.48090  -0.47791  -0.46756  -0.46514  -0.45958
 Alpha  occ. eigenvalues --   -0.45751  -0.45676  -0.45324  -0.43816  -0.43722
 Alpha virt. eigenvalues --    0.21155   0.22877   0.23520   0.24776   0.25650
 Alpha virt. eigenvalues --    0.26089   0.27148   0.27202   0.28323   0.29411
 Alpha virt. eigenvalues --    0.30387   0.31425   0.31675   0.31823   0.31929

 Mulliken charges:
               1
     1  C   -0.308170
     2  C   -0.298826
     3  C   -0.478936
     4  H    0.161922
     5  H    0.148285
     6  H    0.151705
     7  H    0.151650
     8  H    0.154755
     9  H    0.157139
    10  H    0.160365
    11  C   -0.297485
    12  C   -0.299991
    13  C   -0.475639
    14  H    0.149143
    15  H    0.149176
    16  H    0.152681
    17  H    0.151618
    18  H    0.155020
    19  H    0.155050
    20  H    0.159995
    21  C   -0.298295
    22  C   -0.299760
    23  C   -0.475740
    24  H    0.149775
    25  H    0.149732
    26  H    0.151911
    27  H    0.152297
    28  H    0.155253
    29  H    0.155149
    30  H    0.160357
    31  C   -0.299694
    32  C   -0.299893
    33  C   -0.481541
    34  H    0.149427
    35  H    0.150729
    36  H    0.152088
    37  H    0.152378
    38  H    0.161006
    39  H    0.154477
    40  H    0.160889
 Sum of Mulliken charges =  -0.00000

 Dipole moment (field-independent basis, Debye):
    X=              0.0423    Y=             -0.0237    Z=             -0.0043  Tot=              0.0487
 Quadrupole moment (field-independent basis, Debye-Ang):
   XX=            -86.6416   YY=            -84.7111   ZZ=            -83.5893
   XY=             -0.8094   XZ=              0.9407   YZ=             -0.5369

 Normal termination of Gaussian 16 at Thu May  6 05:29:14 2021.
