 Gaussian 16, Revision A.03,
 Gaussian 16:  EM64L-G16RevA.03 25-Dec-2016

 -------------
 #p 6-31g* mp2
 -------------

 ------------------------------------------------------
 Input file generated by CHIRIPA (05-May-2021 14:53:14)
 ------------------------------------------------------
 Symbolic Z-matrix:
 Charge =  0 Multiplicity = 1

                         Standard orientation:
 ---------------------------------------------------------------------
 Center     Atomic      Atomic             Coordinates (Angstroms)
 Number     Number       Type             X           Y           Z
 ---------------------------------------------------------------------
      1          6           0        5.360012   -0.312327   -0.493442
      2          6           0        6.604707   -0.647977    0.328785
      3          6           0        7.576532   -1.563214   -0.416661
      4          1           0        4.848851   -1.244541   -0.770273
      5          1           0        5.668067    0.166241   -1.433372
      6          1           0        6.294326   -1.124517    1.267502
      7          1           0        7.112859    0.285155    0.603854
      8          1           0        7.914591   -1.091650   -1.345071
      9          1           0        7.091406   -2.509332   -0.677653
     10          1           0        8.459116   -1.790370    0.189397
     11          6           0        4.378927    0.601848    0.238326
     12          6           0        3.134231    0.937498   -0.583901
     13          6           0        2.162407    1.852736    0.161546
     14          1           0        4.070872    0.123280    1.178257
     15          1           0        4.890087    1.534063    0.515158
     16          1           0        2.626079    0.004367   -0.858970
     17          1           0        3.444613    1.414038   -1.522617
     18          1           0        2.647532    2.798853    0.422537
     19          1           0        1.824348    1.381172    1.089955
     20          1           0        1.279823    2.079892   -0.444513
     21          6           0       -1.532775    0.714288    0.821915
     22          6           0       -2.417160    1.578467    0.168019
     23          6           0       -3.678282    1.130864   -0.236669
     24          6           0       -4.023873   -0.193082    0.029829
     25          6           0       -3.164879   -1.078265    0.679345
     26          6           0       -1.908794   -0.608987    1.075045
     27          1           0       -0.555063    1.070416    1.132796
     28          1           0       -2.127826    2.606652   -0.029887
     29          1           0       -4.382478    1.778547   -0.744638
     30          1           0       -3.481608   -2.097816    0.862693
     31          1           0       -1.224017   -1.282356    1.582687
     32          7           0       -5.356299   -0.678413   -0.393838
     33          8           0       -5.636867   -1.849366   -0.147289
     34          8           0       -6.094858    0.121329   -0.964436
 ---------------------------------------------------------------------

 SCF Done:  E(RHF) =  -669.535268165     A.U. after   15 cycles
 E2 =    -0.2091166820D+01 EUMP2 =    -0.67162643498536D+03

 The electronic state is 1-A.
 Alpha  occ. eigenvalues --  -20.60709 -20.60704 -15.85764 -11.31110 -11.27690
 Alpha  occ. eigenvalues --  -11.27686 -11.27332 -11.26682 -11.26671 -11.22567
 Alpha  occ. eigenvalues --  -11.22399 -11.22179 -11.22128 -11.21994 -11.21501
 Alpha  occ. eigenvalues --   -1.59786  -1.39340  -1.19281  -1.09181  -1.08670
 Alpha  occ. eigenvalues --   -1.04687  -1.04324  -0.96807  -0.95507  -0.87831
 Alpha  occ. eigenvalues --   -0.86081  -0.82351  -0.80397  -0.78945  -0.77405
 Alpha  occ. eigenvalues --   -0.71981  -0.71110  -0.70396  -0.65810  -0.64930
 Alpha  occ. eigenvalues --   -0.64697  -0.62041  -0.61730  -0.60199  -0.58374
 Alpha  occ. eigenvalues --   -0.56237  -0.55089  -0.53461  -0.53219  -0.52993
 Alpha  occ. eigenvalues --   -0.52776  -0.50713  -0.48743  -0.48738  -0.48696
 Alpha  occ. eigenvalues --   -0.47402  -0.46498  -0.46395  -0.44750  -0.44558
 Alpha  occ. eigenvalues --   -0.37240  -0.36301
 Alpha virt. eigenvalues --    0.05127   0.11330   0.16590   0.20362   0.22420
 Alpha virt. eigenvalues --    0.23881   0.25633   0.26351   0.26507   0.27176
 Alpha virt. eigenvalues --    0.29212   0.29679   0.30973   0.31214   0.32058

 Mulliken charges:
               1
     1  C   -0.298943
     2  C   -0.300108
     3  C   -0.476109
     4  H    0.150399
     5  H    0.151261
     6  H    0.151867
     7  H    0.152743
     8  H    0.156139
     9  H    0.155814
    10  H    0.161696
    11  C   -0.299128
    12  C   -0.299507
    13  C   -0.482444
    14  H    0.148432
    15  H    0.151412
    16  H    0.153639
    17  H    0.156457
    18  H    0.161223
    19  H    0.148047
    20  H    0.159352
    21  C   -0.175032
    22  C   -0.222591
    23  C   -0.170599
    24  C    0.157992
    25  C   -0.170685
    26  C   -0.221605
    27  H    0.237120
    28  H    0.223518
    29  H    0.275262
    30  H    0.275198
    31  H    0.222547
    32  N    0.488071
    33  O   -0.460745
    34  O   -0.460692
 Sum of Mulliken charges =  -0.00000

 Dipole moment (field-independent basis, Debye):
    X=              4.9754    Y=              1.7272    Z=              1.4336  Tot=              5.4584
 Quadrupole moment (field-independent basis, Debye-Ang):
   XX=           -132.6305   YY=            -91.1381   ZZ=            -94.7614
   XY=             -7.9689   XZ=             -5.4699   YZ=             -2.8517

 Normal termination of Gaussian 16 at Thu May  6 18:44:59 2021.
