 Gaussian 16, Revision A.03,
 Gaussian 16:  EM64L-G16RevA.03 25-Dec-2016

 -------------
 #p 6-31g* mp2
 -------------

 ------------------------------------------------------
 Input file generated by CHIRIPA (05-May-2021 14:55:19)
 ------------------------------------------------------
 Symbolic Z-matrix:
 Charge =  0 Multiplicity = 1

                         Standard orientation:
 ---------------------------------------------------------------------
 Center     Atomic      Atomic             Coordinates (Angstroms)
 Number     Number       Type             X           Y           Z
 ---------------------------------------------------------------------
      1          6           0       -3.973097   -2.420136   -0.173692
      2          6           0       -4.990061   -1.564005   -0.608831
      3          6           0       -4.823402   -0.177090   -0.551924
      4          6           0       -3.621547    0.321738   -0.051921
      5          6           0       -2.589685   -0.505284    0.389199
      6          6           0       -2.778261   -1.888979    0.323058
      7          1           0       -4.111074   -3.496274   -0.221486
      8          1           0       -5.919042   -1.973699   -0.995084
      9          1           0       -5.594259    0.508606   -0.882105
     10          1           0       -1.674752   -0.067276    0.769286
     11          1           0       -1.986750   -2.551460    0.661694
     12          7           0       -3.433511    1.788299    0.013212
     13          8           0       -2.365286    2.202774    0.457894
     14          8           0       -4.357915    2.495545   -0.381653
     15          6           0        4.121582   -0.092501    0.606305
     16          6           0        2.738165   -0.408307    0.036735
     17          6           0        1.641033   -0.384607    1.101411
     18          1           0        4.359921   -0.817397    1.396662
     19          1           0        4.096096    0.895778    1.085941
     20          1           0        2.766616   -1.395101   -0.442894
     21          1           0        2.503171    0.317308   -0.752488
     22          1           0        1.583601    0.601506    1.573516
     23          1           0        1.848543   -1.120633    1.884869
     24          1           0        0.660368   -0.613025    0.672481
     25          6           0        5.228914   -0.112379   -0.445907
     26          6           0        6.612330    0.203427    0.123662
     27          6           0        7.709461    0.179727   -0.941013
     28          1           0        5.254399   -1.100658   -0.925542
     29          1           0        4.990573    0.612517   -1.236264
     30          1           0        6.847323   -0.522190    0.912887
     31          1           0        6.583879    1.190221    0.603292
     32          1           0        7.501953    0.915753   -1.724472
     33          1           0        7.766894   -0.806387   -1.413117
     34          1           0        8.690127    0.408145   -0.512083
 ---------------------------------------------------------------------

 SCF Done:  E(RHF) =  -669.535553756     A.U. after   15 cycles
 E2 =    -0.2090907476D+01 EUMP2 =    -0.67162646123271D+03

 The electronic state is 1-A.
 Alpha  occ. eigenvalues --  -20.60737 -20.60731 -15.85789 -11.31148 -11.27728
 Alpha  occ. eigenvalues --  -11.27689 -11.27474 -11.26747 -11.26730 -11.21827
 Alpha  occ. eigenvalues --  -11.21640 -11.21516 -11.21506 -11.21435 -11.21093
 Alpha  occ. eigenvalues --   -1.59812  -1.39365  -1.19326  -1.08724  -1.08552
 Alpha  occ. eigenvalues --   -1.04732  -1.03689  -0.96158  -0.95558  -0.87183
 Alpha  occ. eigenvalues --   -0.86127  -0.82391  -0.79753  -0.78348  -0.77436
 Alpha  occ. eigenvalues --   -0.72009  -0.71134  -0.70446  -0.65173  -0.64981
 Alpha  occ. eigenvalues --   -0.64741  -0.62129  -0.61070  -0.59530  -0.57758
 Alpha  occ. eigenvalues --   -0.55423  -0.55239  -0.53090  -0.53015  -0.52685
 Alpha  occ. eigenvalues --   -0.52539  -0.50072  -0.48767  -0.48761  -0.48068
 Alpha  occ. eigenvalues --   -0.46758  -0.45897  -0.45803  -0.44771  -0.43952
 Alpha  occ. eigenvalues --   -0.37312  -0.36332
 Alpha virt. eigenvalues --    0.05083   0.11309   0.16564   0.20422   0.22843
 Alpha virt. eigenvalues --    0.23960   0.25994   0.26571   0.27415   0.27956
 Alpha virt. eigenvalues --    0.28901   0.30755   0.31311   0.31724   0.31936

 Mulliken charges:
               1
     1  C   -0.170754
     2  C   -0.218810
     3  C   -0.170565
     4  C    0.159930
     5  C   -0.179369
     6  C   -0.220803
     7  H    0.225459
     8  H    0.223349
     9  H    0.275472
    10  H    0.284846
    11  H    0.223846
    12  N    0.487611
    13  O   -0.460159
    14  O   -0.460654
    15  C   -0.299349
    16  C   -0.299154
    17  C   -0.479727
    18  H    0.148777
    19  H    0.152577
    20  H    0.149655
    21  H    0.157092
    22  H    0.165413
    23  H    0.153970
    24  H    0.149786
    25  C   -0.298581
    26  C   -0.299879
    27  C   -0.475833
    28  H    0.148602
    29  H    0.151374
    30  H    0.151461
    31  H    0.153204
    32  H    0.155971
    33  H    0.154649
    34  H    0.160594
 Sum of Mulliken charges =  -0.00000

 Dipole moment (field-independent basis, Debye):
    X=             -0.5465    Y=             -5.0972    Z=             -0.2268  Tot=              5.1314
 Quadrupole moment (field-independent basis, Debye-Ang):
   XX=            -86.3340   YY=            -97.6595   ZZ=            -95.1606
   XY=             18.0754   XZ=              3.5814   YZ=             -0.2095

 Normal termination of Gaussian 16 at Wed May  5 17:20:18 2021.
