 Gaussian 16, Revision A.03,
 Gaussian 16:  EM64L-G16RevA.03 25-Dec-2016

 -------------
 #p 6-31g* mp2
 -------------

 ------------------------------------------------------
 Input file generated by CHIRIPA (05-May-2021 14:53:11)
 ------------------------------------------------------
 Symbolic Z-matrix:
 Charge =  0 Multiplicity = 1

                         Standard orientation:
 ---------------------------------------------------------------------
 Center     Atomic      Atomic             Coordinates (Angstroms)
 Number     Number       Type             X           Y           Z
 ---------------------------------------------------------------------
      1          6           0        3.756913   -0.380382   -0.116272
      2          6           0        5.039431   -1.179456    0.117425
      3          6           0        4.858228   -2.676079   -0.137679
      4          1           0        2.964558   -0.771743    0.536380
      5          1           0        3.417609   -0.538754   -1.149319
      6          1           0        5.376973   -1.018526    1.149308
      7          1           0        5.828877   -0.786022   -0.535721
      8          1           0        4.544209   -2.855488   -1.171026
      9          1           0        4.089737   -3.089313    0.523578
     10          1           0        5.787265   -3.228192    0.035295
     11          6           0        3.922129    1.117430    0.134708
     12          6           0        2.639611    1.916504   -0.098989
     13          6           0        2.820814    3.413127    0.156115
     14          1           0        4.261433    1.275802    1.167755
     15          1           0        4.714484    1.508791   -0.517944
     16          1           0        1.850165    1.523070    0.554157
     17          1           0        2.302069    1.755574   -1.130872
     18          1           0        3.589305    3.826361   -0.505142
     19          1           0        3.134833    3.592536    1.189462
     20          1           0        1.891776    3.965240   -0.016859
     21          6           0       -5.395903    0.501855   -0.000237
     22          6           0       -5.107335   -0.860082    0.135324
     23          6           0       -3.783323   -1.309003    0.132827
     24          6           0       -2.767962   -0.364261   -0.007875
     25          6           0       -3.023360    0.999297   -0.144883
     26          6           0       -4.354830    1.425569   -0.139662
     27          1           0       -6.427325    0.841791    0.002761
     28          1           0       -5.913822   -1.579709    0.243769
     29          1           0       -3.531590   -2.357523    0.236057
     30          1           0       -2.198083    1.692856   -0.251243
     31          1           0       -4.575966    2.483881   -0.245120
     32          7           0       -1.362342   -0.827525   -0.011961
     33          8           0       -0.485818    0.024889   -0.137391
     34          8           0       -1.163756   -2.034274    0.110345
 ---------------------------------------------------------------------

 SCF Done:  E(RHF) =  -669.535866864     A.U. after   15 cycles
 E2 =    -0.2091116260D+01 EUMP2 =    -0.67162698312373D+03

 The electronic state is 1-A.
 Alpha  occ. eigenvalues --  -20.60925 -20.60920 -15.85960 -11.31292 -11.27857
 Alpha  occ. eigenvalues --  -11.27853 -11.27596 -11.26866 -11.26856 -11.20495
 Alpha  occ. eigenvalues --  -11.20202 -11.20166 -11.20117 -11.20023 -11.19945
 Alpha  occ. eigenvalues --   -1.59991  -1.39546  -1.19462  -1.08865  -1.07169
 Alpha  occ. eigenvalues --   -1.04859  -1.02376  -0.95705  -0.94863  -0.86259
 Alpha  occ. eigenvalues --   -0.85880  -0.82541  -0.78409  -0.77590  -0.76919
 Alpha  occ. eigenvalues --   -0.72175  -0.71308  -0.70570  -0.65117  -0.64862
 Alpha  occ. eigenvalues --   -0.63809  -0.62206  -0.59783  -0.58226  -0.56456
 Alpha  occ. eigenvalues --   -0.55363  -0.54165  -0.53191  -0.52951  -0.51601
 Alpha  occ. eigenvalues --   -0.51272  -0.48961  -0.48940  -0.48799  -0.46717
 Alpha  occ. eigenvalues --   -0.45447  -0.44958  -0.44481  -0.44336  -0.42609
 Alpha  occ. eigenvalues --   -0.37442  -0.36461
 Alpha virt. eigenvalues --    0.04926   0.11193   0.16412   0.21299   0.24051
 Alpha virt. eigenvalues --    0.25298   0.27233   0.27870   0.28050   0.28937
 Alpha virt. eigenvalues --    0.29103   0.30901   0.32205   0.32492   0.32865

 Mulliken charges:
               1
     1  C   -0.297860
     2  C   -0.299194
     3  C   -0.474804
     4  H    0.162428
     5  H    0.150615
     6  H    0.148304
     7  H    0.147423
     8  H    0.154854
     9  H    0.158446
    10  H    0.155110
    11  C   -0.298657
    12  C   -0.301398
    13  C   -0.474801
    14  H    0.144581
    15  H    0.143573
    16  H    0.170218
    17  H    0.152423
    18  H    0.151024
    19  H    0.151478
    20  H    0.153404
    21  C   -0.170639
    22  C   -0.218581
    23  C   -0.170704
    24  C    0.157553
    25  C   -0.170836
    26  C   -0.218535
    27  H    0.225982
    28  H    0.223788
    29  H    0.275823
    30  H    0.275850
    31  H    0.223863
    32  N    0.492844
    33  O   -0.464045
    34  O   -0.459530
 Sum of Mulliken charges =  -0.00000

 Dipole moment (field-independent basis, Debye):
    X=             -5.3075    Y=              1.4792    Z=              0.0229  Tot=              5.5099
 Quadrupole moment (field-independent basis, Debye-Ang):
   XX=            -68.9250   YY=            -93.5941   ZZ=            -94.7222
   XY=             -1.4185   XZ=             -0.4645   YZ=             -0.9810

 Normal termination of Gaussian 16 at Wed May  5 23:17:53 2021.
