 Gaussian 16, Revision A.03,
 Gaussian 16:  EM64L-G16RevA.03 25-Dec-2016

 -------------
 #p 6-31g* mp2
 -------------

 ------------------------------------------------------
 Input file generated by CHIRIPA (05-May-2021 14:51:14)
 ------------------------------------------------------
 Symbolic Z-matrix:
 Charge =  0 Multiplicity = 1

                         Standard orientation:
 ---------------------------------------------------------------------
 Center     Atomic      Atomic             Coordinates (Angstroms)
 Number     Number       Type             X           Y           Z
 ---------------------------------------------------------------------
      1          6           0       -3.934882    0.974309   -0.137165
      2          6           0       -2.423675    1.202156   -0.088974
      3          6           0       -2.047757    2.683754   -0.125651
      4          1           0       -4.339744    1.434322   -1.048987
      5          1           0       -4.404170    1.493693    0.709832
      6          1           0       -1.957230    0.681348   -0.935027
      7          1           0       -2.022335    0.741381    0.822744
      8          1           0       -2.486246    3.213653    0.726133
      9          1           0       -2.420772    3.153279   -1.041625
     10          1           0       -0.962847    2.823668   -0.090246
     11          6           0       -4.326425   -0.501879   -0.101251
     12          6           0       -5.837633   -0.729726   -0.149442
     13          6           0       -6.213550   -2.211325   -0.112765
     14          1           0       -3.857138   -1.021264   -0.948249
     15          1           0       -3.921563   -0.961892    0.810571
     16          1           0       -6.238972   -0.268951   -1.061160
     17          1           0       -6.304077   -0.208919    0.696611
     18          1           0       -5.840536   -2.680850    0.803209
     19          1           0       -5.775061   -2.741223   -0.964549
     20          1           0       -7.298460   -2.351238   -0.148170
     21          6           0        4.759607   -0.666706    0.068938
     22          6           0        5.994148    0.113903   -0.383324
     23          6           0        7.244430   -0.760978   -0.479098
     24          1           0        4.962294   -1.127249    1.045545
     25          1           0        4.578114   -1.491545   -0.633984
     26          1           0        6.172446    0.937861    0.319470
     27          1           0        5.788430    0.572799   -1.358881
     28          1           0        7.091126   -1.574946   -1.195028
     29          1           0        7.477324   -1.207810    0.492860
     30          1           0        8.115059   -0.182819   -0.804058
     31          6           0        3.501701    0.194277    0.169479
     32          6           0        2.267159   -0.586333    0.621740
     33          6           0        1.016877    0.288548    0.717514
     34          1           0        3.683193    1.019115    0.872399
     35          1           0        3.299014    0.654819   -0.807129
     36          1           0        2.472877   -1.045229    1.597296
     37          1           0        2.088862   -1.410290   -0.081055
     38          1           0        0.783983    0.735380   -0.254443
     39          1           0        1.170181    1.102516    1.433443
     40          1           0        0.146249   -0.289610    1.042475
 ---------------------------------------------------------------------

 SCF Done:  E(RHF) =  -470.732376521     A.U. after   11 cycles
 E2 =    -0.1583200040D+01 EUMP2 =    -0.47231557656116D+03

 The electronic state is 1-A.
 Alpha  occ. eigenvalues --  -11.21597 -11.21573 -11.21569 -11.21455 -11.21396
 Alpha  occ. eigenvalues --  -11.21352 -11.21337 -11.21276 -11.21068 -11.21053
 Alpha  occ. eigenvalues --  -11.21006 -11.20957  -1.08426  -1.08363  -1.03557
 Alpha  occ. eigenvalues --   -1.03425  -0.96025  -0.95863  -0.86995  -0.86934
 Alpha  occ. eigenvalues --   -0.79702  -0.79431  -0.78264  -0.78142  -0.65056
 Alpha  occ. eigenvalues --   -0.65001  -0.60951  -0.60852  -0.59463  -0.59183
 Alpha  occ. eigenvalues --   -0.57642  -0.57491  -0.55269  -0.55182  -0.52734
 Alpha  occ. eigenvalues --   -0.52629  -0.52456  -0.52188  -0.49917  -0.49851
 Alpha  occ. eigenvalues --   -0.47976  -0.47747  -0.46650  -0.46525  -0.45790
 Alpha  occ. eigenvalues --   -0.45730  -0.45692  -0.45628  -0.43782  -0.43623
 Alpha virt. eigenvalues --    0.22050   0.23029   0.23496   0.24802   0.26089
 Alpha virt. eigenvalues --    0.26546   0.26775   0.27253   0.27874   0.29167
 Alpha virt. eigenvalues --    0.30228   0.31059   0.31329   0.31761   0.32537

 Mulliken charges:
               1
     1  C   -0.298158
     2  C   -0.299988
     3  C   -0.479178
     4  H    0.149033
     5  H    0.149044
     6  H    0.151145
     7  H    0.155967
     8  H    0.154543
     9  H    0.154213
    10  H    0.163820
    11  C   -0.298108
    12  C   -0.299510
    13  C   -0.475663
    14  H    0.149250
    15  H    0.148911
    16  H    0.151922
    17  H    0.151886
    18  H    0.155054
    19  H    0.155070
    20  H    0.160163
    21  C   -0.298202
    22  C   -0.299600
    23  C   -0.475689
    24  H    0.149626
    25  H    0.149478
    26  H    0.151905
    27  H    0.151894
    28  H    0.155162
    29  H    0.155167
    30  H    0.160234
    31  C   -0.298593
    32  C   -0.300650
    33  C   -0.476853
    34  H    0.149377
    35  H    0.149420
    36  H    0.151530
    37  H    0.151770
    38  H    0.157451
    39  H    0.154279
    40  H    0.162878
 Sum of Mulliken charges =  -0.00000

 Dipole moment (field-independent basis, Debye):
    X=              0.0198    Y=             -0.0033    Z=              0.0105  Tot=              0.0227
 Quadrupole moment (field-independent basis, Debye-Ang):
   XX=            -86.2158   YY=            -86.1350   ZZ=            -82.7718
   XY=              0.1421   XZ=              0.2673   YZ=              0.2242

 Normal termination of Gaussian 16 at Wed May  5 20:02:31 2021.
