 Gaussian 16, Revision A.03,
 Gaussian 16:  EM64L-G16RevA.03 25-Dec-2016

 -------------
 #p 6-31g* mp2
 -------------

 ------------------------------------------------------
 Input file generated by CHIRIPA (05-May-2021 14:55:21)
 ------------------------------------------------------
 Symbolic Z-matrix:
 Charge =  0 Multiplicity = 1

                         Standard orientation:
 ---------------------------------------------------------------------
 Center     Atomic      Atomic             Coordinates (Angstroms)
 Number     Number       Type             X           Y           Z
 ---------------------------------------------------------------------
      1          6           0       -3.207509    2.154104   -0.249516
      2          6           0       -2.353561    1.888970    0.826122
      3          6           0       -1.862655    0.597767    1.041420
      4          6           0       -2.247867   -0.409036    0.157536
      5          6           0       -3.097121   -0.176416   -0.923180
      6          6           0       -3.575914    1.122383   -1.119201
      7          1           0       -3.584152    3.160092   -0.409277
      8          1           0       -2.065773    2.688264    1.503139
      9          1           0       -1.200183    0.364680    1.866174
     10          1           0       -3.366302   -0.993781   -1.581112
     11          1           0       -4.238958    1.325372   -1.955391
     12          7           0       -1.734578   -1.779996    0.375259
     13          8           0       -2.088894   -2.649608   -0.417756
     14          8           0       -0.987666   -1.958983    1.334801
     15          6           0        3.373432   -0.423348   -0.135310
     16          6           0        2.489670   -1.654971   -0.335453
     17          6           0        3.280070   -2.963091   -0.292064
     18          1           0        4.152080   -0.408809   -0.910191
     19          1           0        3.893608   -0.506714    0.828983
     20          1           0        1.970255   -1.568647   -1.298454
     21          1           0        1.712919   -1.666477    0.439881
     22          1           0        3.785615   -3.075916    0.672455
     23          1           0        4.044412   -2.977529   -1.075757
     24          1           0        2.628835   -3.830651   -0.437295
     25          6           0        2.597674    0.892046   -0.176121
     26          6           0        3.481437    2.123668    0.024020
     27          6           0        2.691036    3.431788   -0.019368
     28          1           0        2.077498    0.975412   -1.140415
     29          1           0        1.819027    0.877506    0.598760
     30          1           0        4.258187    2.135175   -0.751313
     31          1           0        4.000852    2.037343    0.987022
     32          1           0        1.926694    3.446226    0.764325
     33          1           0        2.185493    3.544613   -0.983887
     34          1           0        3.342272    4.299348    0.125863
 ---------------------------------------------------------------------

 SCF Done:  E(RHF) =  -669.536428431     A.U. after   15 cycles
 E2 =    -0.2091922888D+01 EUMP2 =    -0.67162835131936D+03

 The electronic state is 1-A.
 Alpha  occ. eigenvalues --  -20.60929 -20.60923 -15.85946 -11.31257 -11.27826
 Alpha  occ. eigenvalues --  -11.27816 -11.27551 -11.26828 -11.26818 -11.21552
 Alpha  occ. eigenvalues --  -11.21232 -11.21185 -11.20878 -11.20656 -11.20188
 Alpha  occ. eigenvalues --   -1.59976  -1.39536  -1.19423  -1.08828  -1.08059
 Alpha  occ. eigenvalues --   -1.04821  -1.03101  -0.95674  -0.95595  -0.86620
 Alpha  occ. eigenvalues --   -0.86221  -0.82513  -0.79219  -0.77817  -0.77555
 Alpha  occ. eigenvalues --   -0.72176  -0.71278  -0.70535  -0.65083  -0.64828
 Alpha  occ. eigenvalues --   -0.64692  -0.62172  -0.60497  -0.59005  -0.57161
 Alpha  occ. eigenvalues --   -0.55326  -0.54910  -0.53145  -0.52915  -0.52278
 Alpha  occ. eigenvalues --   -0.52018  -0.49573  -0.48941  -0.48932  -0.47529
 Alpha  occ. eigenvalues --   -0.46289  -0.45548  -0.45311  -0.44594  -0.43362
 Alpha  occ. eigenvalues --   -0.37394  -0.36412
 Alpha virt. eigenvalues --    0.04916   0.11196   0.16389   0.21065   0.23122
 Alpha virt. eigenvalues --    0.24751   0.26032   0.27370   0.27620   0.28290
 Alpha virt. eigenvalues --    0.28994   0.30766   0.31815   0.31992   0.32581

 Mulliken charges:
               1
     1  C   -0.170511
     2  C   -0.218078
     3  C   -0.170031
     4  C    0.159089
     5  C   -0.170930
     6  C   -0.218492
     7  H    0.226026
     8  H    0.223834
     9  H    0.275102
    10  H    0.275645
    11  H    0.223673
    12  N    0.488819
    13  O   -0.458634
    14  O   -0.459935
    15  C   -0.297672
    16  C   -0.309915
    17  C   -0.475273
    18  H    0.147246
    19  H    0.148649
    20  H    0.147675
    21  H    0.172386
    22  H    0.153374
    23  H    0.149752
    24  H    0.167055
    25  C   -0.297108
    26  C   -0.299290
    27  C   -0.474102
    28  H    0.148230
    29  H    0.145245
    30  H    0.152735
    31  H    0.152164
    32  H    0.148979
    33  H    0.154322
    34  H    0.159968
 Sum of Mulliken charges =  -0.00000

 Dipole moment (field-independent basis, Debye):
    X=             -1.9768    Y=              4.7042    Z=             -0.7413  Tot=              5.1563
 Quadrupole moment (field-independent basis, Debye-Ang):
   XX=            -86.4620   YY=            -99.8209   ZZ=            -91.1211
   XY=             -9.0381   XZ=              3.8785   YZ=              2.3689

 Normal termination of Gaussian 16 at Thu May  6 15:51:17 2021.
