 Gaussian 16, Revision A.03,
 Gaussian 16:  EM64L-G16RevA.03 25-Dec-2016

 -------------
 #p 6-31g* mp2
 -------------

 ------------------------------------------------------
 Input file generated by CHIRIPA (05-May-2021 14:55:25)
 ------------------------------------------------------
 Symbolic Z-matrix:
 Charge =  0 Multiplicity = 1

                         Standard orientation:
 ---------------------------------------------------------------------
 Center     Atomic      Atomic             Coordinates (Angstroms)
 Number     Number       Type             X           Y           Z
 ---------------------------------------------------------------------
      1          6           0       -1.223196    2.284588    0.236987
      2          6           0       -1.030655    1.108373    0.969085
      3          6           0       -1.968872    0.073584    0.909862
      4          6           0       -3.093223    0.249446    0.104754
      5          6           0       -3.313310    1.409413   -0.636411
      6          6           0       -2.361902    2.431096   -0.562016
      7          1           0       -0.489243    3.083346    0.288886
      8          1           0       -0.147261    0.991828    1.590437
      9          1           0       -1.844743   -0.847524    1.466252
     10          1           0       -4.203832    1.496459   -1.246995
     11          1           0       -2.514045    3.343457   -1.131660
     12          7           0       -4.093454   -0.839102    0.034026
     13          8           0       -5.075640   -0.659572   -0.682713
     14          8           0       -3.876308   -1.851224    0.696668
     15          6           0        3.209803   -0.885812   -0.573206
     16          6           0        1.993753   -1.336620    0.236719
     17          6           0        0.925124   -2.008774   -0.625854
     18          1           0        2.881950   -0.192460   -1.359794
     19          1           0        3.644045   -1.755996   -1.084682
     20          1           0        1.562758   -0.466079    0.747621
     21          1           0        2.324565   -2.028830    1.021592
     22          1           0        1.333124   -2.893986   -1.124387
     23          1           0        0.566988   -1.322357   -1.399915
     24          1           0        0.064830   -2.323114   -0.026732
     25          6           0        4.286831   -0.212048    0.275193
     26          6           0        5.502880    0.238759   -0.534732
     27          6           0        6.571510    0.910915    0.327841
     28          1           0        3.852588    0.658136    0.786670
     29          1           0        4.614684   -0.905400    1.061781
     30          1           0        5.172068    0.930971   -1.319604
     31          1           0        5.933876   -0.631780   -1.045633
     32          1           0        6.929645    0.224498    1.101903
     33          1           0        6.163509    1.796127    0.826374
     34          1           0        7.431803    1.225255   -0.271280
 ---------------------------------------------------------------------

 SCF Done:  E(RHF) =  -669.534972598     A.U. after   15 cycles
 E2 =    -0.2092586721D+01 EUMP2 =    -0.67162755931887D+03

 The electronic state is 1-A.
 Alpha  occ. eigenvalues --  -20.60777 -20.60772 -15.85831 -11.31204 -11.27784
 Alpha  occ. eigenvalues --  -11.27779 -11.27529 -11.26798 -11.26779 -11.22161
 Alpha  occ. eigenvalues --  -11.22058 -11.21926 -11.21856 -11.21494 -11.21367
 Alpha  occ. eigenvalues --   -1.59851  -1.39405  -1.19387  -1.08934  -1.08777
 Alpha  occ. eigenvalues --   -1.04800  -1.03983  -0.96412  -0.95610  -0.87423
 Alpha  occ. eigenvalues --   -0.86192  -0.82447  -0.80065  -0.78764  -0.77488
 Alpha  occ. eigenvalues --   -0.72050  -0.71173  -0.70499  -0.65610  -0.65038
 Alpha  occ. eigenvalues --   -0.64789  -0.62219  -0.61339  -0.59777  -0.58035
 Alpha  occ. eigenvalues --   -0.55708  -0.55291  -0.53218  -0.52983  -0.52963
 Alpha  occ. eigenvalues --   -0.52749  -0.50335  -0.48814  -0.48804  -0.48360
 Alpha  occ. eigenvalues --   -0.47095  -0.46285  -0.46222  -0.44809  -0.44244
 Alpha  occ. eigenvalues --   -0.37362  -0.36352
 Alpha virt. eigenvalues --    0.05029   0.11171   0.16430   0.20197   0.22661
 Alpha virt. eigenvalues --    0.23926   0.25260   0.26384   0.26683   0.28443
 Alpha virt. eigenvalues --    0.28662   0.29658   0.31241   0.31452   0.32266

 Mulliken charges:
               1
     1  C   -0.172307
     2  C   -0.217541
     3  C   -0.168737
     4  C    0.157882
     5  C   -0.170824
     6  C   -0.218654
     7  H    0.225483
     8  H    0.225428
     9  H    0.275787
    10  H    0.275730
    11  H    0.223459
    12  N    0.488328
    13  O   -0.460301
    14  O   -0.460671
    15  C   -0.298136
    16  C   -0.302592
    17  C   -0.476264
    18  H    0.149494
    19  H    0.152831
    20  H    0.141385
    21  H    0.153686
    22  H    0.158243
    23  H    0.157653
    24  H    0.161759
    25  C   -0.297484
    26  C   -0.299885
    27  C   -0.475764
    28  H    0.143724
    29  H    0.151250
    30  H    0.151448
    31  H    0.154021
    32  H    0.156275
    33  H    0.153620
    34  H    0.161674
 Sum of Mulliken charges =  -0.00000

 Dipole moment (field-independent basis, Debye):
    X=              3.5579    Y=              3.7740    Z=              0.1736  Tot=              5.1896
 Quadrupole moment (field-independent basis, Debye-Ang):
   XX=           -115.8191   YY=            -91.0801   ZZ=            -93.4547
   XY=            -13.7951   XZ=              1.1246   YZ=             -1.8844

 Normal termination of Gaussian 16 at Wed May  5 20:48:33 2021.
