 Gaussian 16, Revision A.03,
 Gaussian 16:  EM64L-G16RevA.03 25-Dec-2016

 -------------
 #p 6-31g* mp2
 -------------

 ------------------------------------------------------
 Input file generated by CHIRIPA (05-May-2021 14:55:20)
 ------------------------------------------------------
 Symbolic Z-matrix:
 Charge =  0 Multiplicity = 1

                         Standard orientation:
 ---------------------------------------------------------------------
 Center     Atomic      Atomic             Coordinates (Angstroms)
 Number     Number       Type             X           Y           Z
 ---------------------------------------------------------------------
      1          6           0       -1.890585   -2.300394    0.977961
      2          6           0       -3.268351   -2.060125    0.954473
      3          6           0       -3.772045   -0.866358    0.429345
      4          6           0       -2.865339    0.069424   -0.066121
      5          6           0       -1.487284   -0.140734   -0.056714
      6          6           0       -1.006008   -1.341622    0.473183
      7          1           0       -1.508011   -3.230506    1.387746
      8          1           0       -3.957673   -2.802920    1.345800
      9          1           0       -4.833944   -0.654561    0.398811
     10          1           0       -0.824870    0.618692   -0.454077
     11          1           0        0.064478   -1.525514    0.490130
     12          7           0       -3.386711    1.336981   -0.624575
     13          8           0       -2.567019    2.145389   -1.054944
     14          8           0       -4.605182    1.498083   -0.621347
     15          6           0        3.146103    0.797471    0.142864
     16          6           0        3.999890    1.992551    0.568087
     17          6           0        3.162254    3.223142    0.917096
     18          1           0        2.532616    1.082714   -0.722708
     19          1           0        2.446889    0.548462    0.953104
     20          1           0        4.698232    2.238361   -0.242168
     21          1           0        4.611557    1.704372    1.432628
     22          1           0        2.476118    3.001133    1.740826
     23          1           0        2.563286    3.538157    0.056514
     24          1           0        3.792631    4.065605    1.218329
     25          6           0        3.969188   -0.440390   -0.209217
     26          6           0        3.115401   -1.635471   -0.634440
     27          6           0        3.953037   -2.866061   -0.983449
     28          1           0        4.668402   -0.191380   -1.019456
     29          1           0        4.582675   -0.725633    0.656355
     30          1           0        2.503734   -1.347290   -1.498982
     31          1           0        2.417059   -1.881279    0.175815
     32          1           0        4.552006   -3.181075   -0.122866
     33          1           0        4.639173   -2.644052   -1.807179
     34          1           0        3.322660   -3.708524   -1.284682
 ---------------------------------------------------------------------

 SCF Done:  E(RHF) =  -669.535723802     A.U. after   15 cycles
 E2 =    -0.2091554734D+01 EUMP2 =    -0.67162727853615D+03

 The electronic state is 1-A.
 Alpha  occ. eigenvalues --  -20.60700 -20.60695 -15.85752 -11.31097 -11.27670
 Alpha  occ. eigenvalues --  -11.27639 -11.27402 -11.26688 -11.26612 -11.22594
 Alpha  occ. eigenvalues --  -11.22115 -11.22058 -11.21991 -11.21836 -11.21268
 Alpha  occ. eigenvalues --   -1.59776  -1.39330  -1.19265  -1.09117  -1.08666
 Alpha  occ. eigenvalues --   -1.04661  -1.04141  -0.96553  -0.95505  -0.87572
 Alpha  occ. eigenvalues --   -0.86065  -0.82338  -0.80252  -0.78943  -0.77375
 Alpha  occ. eigenvalues --   -0.71971  -0.71099  -0.70379  -0.65761  -0.64915
 Alpha  occ. eigenvalues --   -0.64661  -0.62033  -0.61513  -0.59951  -0.58176
 Alpha  occ. eigenvalues --   -0.55819  -0.55175  -0.53261  -0.53015  -0.52983
 Alpha  occ. eigenvalues --   -0.52731  -0.50493  -0.48750  -0.48727  -0.48503
 Alpha  occ. eigenvalues --   -0.47280  -0.46441  -0.46363  -0.44740  -0.44406
 Alpha  occ. eigenvalues --   -0.37253  -0.36264
 Alpha virt. eigenvalues --    0.05140   0.11382   0.16621   0.19575   0.22737
 Alpha virt. eigenvalues --    0.23535   0.24724   0.25411   0.27449   0.28295
 Alpha virt. eigenvalues --    0.29814   0.30130   0.31146   0.31382   0.32056

 Mulliken charges:
               1
     1  C   -0.173316
     2  C   -0.218507
     3  C   -0.171356
     4  C    0.158938
     5  C   -0.175158
     6  C   -0.226706
     7  H    0.225390
     8  H    0.222929
     9  H    0.275186
    10  H    0.277010
    11  H    0.236266
    12  N    0.488067
    13  O   -0.460634
    14  O   -0.460839
    15  C   -0.301910
    16  C   -0.300003
    17  C   -0.477198
    18  H    0.150732
    19  H    0.145098
    20  H    0.154233
    21  H    0.152589
    22  H    0.155560
    23  H    0.159623
    24  H    0.162413
    25  C   -0.297597
    26  C   -0.306369
    27  C   -0.475189
    28  H    0.153989
    29  H    0.151642
    30  H    0.154330
    31  H    0.143989
    32  H    0.156884
    33  H    0.159634
    34  H    0.160280
 Sum of Mulliken charges =  -0.00000

 Dipole moment (field-independent basis, Debye):
    X=              2.0815    Y=             -4.3904    Z=              1.9144  Tot=              5.2224
 Quadrupole moment (field-independent basis, Debye-Ang):
   XX=           -100.3794   YY=            -96.0665   ZZ=            -94.7250
   XY=             15.1957   XZ=             -7.0138   YZ=             -0.4386

 Normal termination of Gaussian 16 at Wed May  5 18:53:31 2021.
