 Gaussian 16, Revision A.03,
 Gaussian 16:  EM64L-G16RevA.03 25-Dec-2016

 -------------
 #p 6-31g* mp2
 -------------

 ------------------------------------------------------
 Input file generated by CHIRIPA (05-May-2021 14:55:22)
 ------------------------------------------------------
 Symbolic Z-matrix:
 Charge =  0 Multiplicity = 1

                         Standard orientation:
 ---------------------------------------------------------------------
 Center     Atomic      Atomic             Coordinates (Angstroms)
 Number     Number       Type             X           Y           Z
 ---------------------------------------------------------------------
      1          6           0       -2.329247    2.752222   -0.175211
      2          6           0       -3.616958    2.434678    0.269184
      3          6           0       -4.030054    1.101781    0.354534
      4          6           0       -3.125566    0.107182   -0.014198
      5          6           0       -1.836013    0.391608   -0.460789
      6          6           0       -1.444444    1.731474   -0.538139
      7          1           0       -2.016705    3.790355   -0.238406
      8          1           0       -4.306229    3.225334    0.551698
      9          1           0       -5.021156    0.827757    0.695191
     10          1           0       -1.171267   -0.418385   -0.735457
     11          1           0       -0.443782    1.975128   -0.883616
     12          7           0       -3.551498   -1.307585    0.071924
     13          8           0       -2.735770   -2.165399   -0.258802
     14          8           0       -4.693006   -1.531876    0.468522
     15          6           0        4.661904   -0.366060    0.156913
     16          6           0        5.168253    1.069769    0.015520
     17          6           0        6.672597    1.192829    0.259649
     18          1           0        4.902997   -0.735733    1.162976
     19          1           0        5.202966   -1.009611   -0.550539
     20          1           0        4.625420    1.710667    0.722060
     21          1           0        4.925756    1.436132   -0.990257
     22          1           0        7.230237    0.577119   -0.453471
     23          1           0        6.928194    0.853213    1.268575
     24          1           0        7.013222    2.227511    0.153504
     25          6           0        3.159837   -0.505243   -0.084231
     26          6           0        2.653488   -1.941071    0.057162
     27          6           0        1.149144   -2.064132   -0.186966
     28          1           0        2.618774    0.138308    0.623222
     29          1           0        2.918743   -0.135570   -1.090293
     30          1           0        2.895984   -2.307435    1.062941
     31          1           0        3.196321   -2.581969   -0.649376
     32          1           0        0.893546   -1.724516   -1.195892
     33          1           0        0.591503   -1.448421    0.526155
     34          1           0        0.808518   -3.098814   -0.080820
 ---------------------------------------------------------------------

 SCF Done:  E(RHF) =  -669.535213902     A.U. after   15 cycles
 E2 =    -0.2091933463D+01 EUMP2 =    -0.67162714736570D+03

 The electronic state is 1-A.
 Alpha  occ. eigenvalues --  -20.60694 -20.60687 -15.85740 -11.31080 -11.27677
 Alpha  occ. eigenvalues --  -11.27563 -11.27422 -11.26693 -11.26660 -11.21949
 Alpha  occ. eigenvalues --  -11.21809 -11.21752 -11.21672 -11.21348 -11.21210
 Alpha  occ. eigenvalues --   -1.59766  -1.39319  -1.19266  -1.08741  -1.08669
 Alpha  occ. eigenvalues --   -1.04668  -1.03794  -0.96252  -0.95499  -0.87274
 Alpha  occ. eigenvalues --   -0.86059  -0.82333  -0.79882  -0.78589  -0.77361
 Alpha  occ. eigenvalues --   -0.71959  -0.71089  -0.70384  -0.65367  -0.64917
 Alpha  occ. eigenvalues --   -0.64682  -0.62049  -0.61187  -0.59585  -0.57857
 Alpha  occ. eigenvalues --   -0.55544  -0.55188  -0.53080  -0.52987  -0.52853
 Alpha  occ. eigenvalues --   -0.52367  -0.50201  -0.48723  -0.48712  -0.48150
 Alpha  occ. eigenvalues --   -0.46904  -0.46106  -0.46038  -0.44724  -0.44029
 Alpha  occ. eigenvalues --   -0.37260  -0.36264
 Alpha virt. eigenvalues --    0.05120   0.11329   0.16624   0.21013   0.22634
 Alpha virt. eigenvalues --    0.24031   0.25983   0.26413   0.27027   0.28113
 Alpha virt. eigenvalues --    0.29542   0.30538   0.31079   0.31633   0.31963

 Mulliken charges:
               1
     1  C   -0.170448
     2  C   -0.219183
     3  C   -0.170185
     4  C    0.155720
     5  C   -0.178640
     6  C   -0.223921
     7  H    0.225186
     8  H    0.222989
     9  H    0.275215
    10  H    0.292112
    11  H    0.224312
    12  N    0.487179
    13  O   -0.460873
    14  O   -0.460873
    15  C   -0.298037
    16  C   -0.299699
    17  C   -0.475804
    18  H    0.151548
    19  H    0.151261
    20  H    0.150342
    21  H    0.150324
    22  H    0.156260
    23  H    0.156267
    24  H    0.160147
    25  C   -0.299110
    26  C   -0.300614
    27  C   -0.479900
    28  H    0.146487
    29  H    0.145065
    30  H    0.154690
    31  H    0.153924
    32  H    0.148358
    33  H    0.154463
    34  H    0.175437
 Sum of Mulliken charges =  -0.00000

 Dipole moment (field-independent basis, Debye):
    X=              1.5980    Y=              4.8115    Z=             -0.2646  Tot=              5.0769
 Quadrupole moment (field-independent basis, Debye-Ang):
   XX=           -101.3201   YY=            -93.4084   ZZ=            -94.0818
   XY=            -17.5609   XZ=             -1.0303   YZ=              0.5375

 Normal termination of Gaussian 16 at Thu May  6 01:26:33 2021.
