 Gaussian 16, Revision A.03,
 Gaussian 16:  EM64L-G16RevA.03 25-Dec-2016

 -------------
 #p 6-31g* mp2
 -------------

 ------------------------------------------------------
 Input file generated by CHIRIPA (05-May-2021 14:51:11)
 ------------------------------------------------------
 Symbolic Z-matrix:
 Charge =  0 Multiplicity = 1

                         Standard orientation:
 ---------------------------------------------------------------------
 Center     Atomic      Atomic             Coordinates (Angstroms)
 Number     Number       Type             X           Y           Z
 ---------------------------------------------------------------------
      1          6           0       -3.115271   -0.539345    0.099599
      2          6           0       -3.226062    0.931174    0.503685
      3          6           0       -4.631096    1.311364    0.971796
      4          1           0       -3.838920   -0.748806   -0.700028
      5          1           0       -3.401445   -1.169476    0.953082
      6          1           0       -2.938434    1.558324   -0.349878
      7          1           0       -2.501931    1.137204    1.302310
      8          1           0       -4.924069    0.710447    1.838783
      9          1           0       -5.363052    1.133960    0.177208
     10          1           0       -4.687762    2.366824    1.255789
     11          6           0       -1.716598   -0.934661   -0.370687
     12          6           0       -1.605807   -2.405180   -0.774773
     13          6           0       -0.200773   -2.785370   -1.242884
     14          1           0       -1.430424   -0.304530   -1.224171
     15          1           0       -0.992949   -0.725200    0.428940
     16          1           0       -2.329938   -2.611210   -1.573398
     17          1           0       -1.893435   -3.032331    0.078789
     18          1           0        0.531182   -2.607966   -0.448296
     19          1           0        0.092199   -2.184453   -2.109871
     20          1           0       -0.144107   -3.840830   -1.526878
     21          6           0        2.692534    0.039260   -0.006154
     22          6           0        2.904203   -0.797008    1.256319
     23          6           0        3.457944   -2.190309    0.956526
     24          1           0        2.006523   -0.492389   -0.679714
     25          1           0        3.647792    0.130695   -0.541425
     26          1           0        1.949120   -0.885677    1.789771
     27          1           0        3.589639   -0.263218    1.927037
     28          1           0        4.423275   -2.119334    0.444957
     29          1           0        2.773434   -2.745330    0.306911
     30          1           0        3.601583   -2.770993    1.873060
     31          6           0        2.139335    1.434747    0.277242
     32          6           0        1.927666    2.271014   -0.985232
     33          6           0        1.373925    3.664314   -0.685437
     34          1           0        1.184077    1.343311    0.812514
     35          1           0        2.825346    1.966395    0.950803
     36          1           0        1.242230    1.737224   -1.655949
     37          1           0        2.882750    2.359683   -1.518683
     38          1           0        2.058435    4.219336   -0.035824
     39          1           0        0.408595    3.593341   -0.173870
     40          1           0        1.230285    4.244998   -1.601971
 ---------------------------------------------------------------------

 SCF Done:  E(RHF) =  -470.732936155     A.U. after   11 cycles
 E2 =    -0.1584612441D+01 EUMP2 =    -0.47231754859596D+03

 The electronic state is 1-A.
 Alpha  occ. eigenvalues --  -11.21700 -11.21681 -11.21586 -11.21551 -11.21511
 Alpha  occ. eigenvalues --  -11.21443 -11.21322 -11.21249 -11.21159 -11.21124
 Alpha  occ. eigenvalues --  -11.21028 -11.21027  -1.08534  -1.08366  -1.03628
 Alpha  occ. eigenvalues --   -1.03484  -0.96076  -0.95928  -0.87092  -0.86949
 Alpha  occ. eigenvalues --   -0.79712  -0.79535  -0.78352  -0.78172  -0.65239
 Alpha  occ. eigenvalues --   -0.64947  -0.61166  -0.60780  -0.59431  -0.59306
 Alpha  occ. eigenvalues --   -0.57673  -0.57548  -0.55501  -0.55093  -0.52760
 Alpha  occ. eigenvalues --   -0.52640  -0.52504  -0.52353  -0.50109  -0.49782
 Alpha  occ. eigenvalues --   -0.48133  -0.47794  -0.46777  -0.46514  -0.46079
 Alpha  occ. eigenvalues --   -0.45857  -0.45565  -0.45400  -0.43874  -0.43731
 Alpha virt. eigenvalues --    0.19546   0.22471   0.23684   0.24033   0.25275
 Alpha virt. eigenvalues --    0.25824   0.27162   0.27640   0.28995   0.30269
 Alpha virt. eigenvalues --    0.30573   0.31182   0.31491   0.31969   0.32543

 Mulliken charges:
               1
     1  C   -0.298328
     2  C   -0.300194
     3  C   -0.475745
     4  H    0.150180
     5  H    0.149911
     6  H    0.152185
     7  H    0.151663
     8  H    0.155381
     9  H    0.155424
    10  H    0.160623
    11  C   -0.302109
    12  C   -0.299406
    13  C   -0.484218
    14  H    0.149938
    15  H    0.151959
    16  H    0.152453
    17  H    0.152348
    18  H    0.163285
    19  H    0.155762
    20  H    0.161052
    21  C   -0.304016
    22  C   -0.300558
    23  C   -0.480835
    24  H    0.156821
    25  H    0.149071
    26  H    0.150543
    27  H    0.152282
    28  H    0.155600
    29  H    0.159867
    30  H    0.159920
    31  C   -0.299000
    32  C   -0.299766
    33  C   -0.476085
    34  H    0.150617
    35  H    0.149058
    36  H    0.152070
    37  H    0.151644
    38  H    0.154992
    39  H    0.155815
    40  H    0.159795
 Sum of Mulliken charges =  -0.00000

 Dipole moment (field-independent basis, Debye):
    X=             -0.0504    Y=             -0.0352    Z=             -0.0225  Tot=              0.0655
 Quadrupole moment (field-independent basis, Debye-Ang):
   XX=            -84.8669   YY=            -85.8387   ZZ=            -84.0112
   XY=              1.0924   XZ=              0.6437   YZ=             -0.3681

 Normal termination of Gaussian 16 at Thu May  6 03:50:42 2021.
