 Gaussian 16, Revision A.03,
 Gaussian 16:  EM64L-G16RevA.03 25-Dec-2016

 -------------
 #p 6-31g* mp2
 -------------

 ------------------------------------------------------
 Input file generated by CHIRIPA (05-May-2021 14:51:13)
 ------------------------------------------------------
 Symbolic Z-matrix:
 Charge =  0 Multiplicity = 1

                         Standard orientation:
 ---------------------------------------------------------------------
 Center     Atomic      Atomic             Coordinates (Angstroms)
 Number     Number       Type             X           Y           Z
 ---------------------------------------------------------------------
      1          6           0        3.086622    0.597275   -0.902161
      2          6           0        2.023489    1.585739   -0.421876
      3          6           0        1.666608    2.630374   -1.479783
      4          1           0        3.989858    1.151826   -1.191268
      5          1           0        2.725532    0.093243   -1.809333
      6          1           0        2.385902    2.086755    0.484907
      7          1           0        1.122746    1.028755   -0.133698
      8          1           0        1.280507    2.147380   -2.383246
      9          1           0        2.550840    3.211392   -1.761126
     10          1           0        0.904910    3.326739   -1.115433
     11          6           0        3.453992   -0.453227    0.144364
     12          6           0        4.517124   -1.441691   -0.335921
     13          6           0        4.874005   -2.486325    0.721986
     14          1           0        3.815081    0.050806    1.051535
     15          1           0        2.550755   -1.007777    0.433470
     16          1           0        5.417867   -0.884707   -0.624099
     17          1           0        4.154711   -1.942707   -1.242704
     18          1           0        3.989774   -3.067344    1.003328
     19          1           0        5.260107   -2.003332    1.625448
     20          1           0        5.635703   -3.182691    0.357635
     21          6           0       -3.526090   -0.405774   -0.258767
     22          6           0       -4.971686   -0.892141   -0.150676
     23          6           0       -5.469056   -1.557580   -1.434268
     24          1           0       -3.445586    0.301850   -1.095267
     25          1           0       -2.877545   -1.257525   -0.506368
     26          1           0       -5.617123   -0.039978    0.098010
     27          1           0       -5.048798   -1.598544    0.685784
     28          1           0       -4.849375   -2.425015   -1.683573
     29          1           0       -5.420929   -0.857594   -2.274687
     30          1           0       -6.504576   -1.897708   -1.334909
     31          6           0       -3.014524    0.261726    1.016565
     32          6           0       -1.568927    0.748093    0.908473
     33          6           0       -1.071557    1.413532    2.192066
     34          1           0       -3.663068    1.113476    1.264166
     35          1           0       -3.095028   -0.445898    1.853065
     36          1           0       -1.491815    1.454495    0.072013
     37          1           0       -0.923490   -0.104071    0.659788
     38          1           0       -1.119684    0.713545    3.032485
     39          1           0       -1.691238    2.280967    2.441371
     40          1           0       -0.036037    1.753660    2.092706
 ---------------------------------------------------------------------

 SCF Done:  E(RHF) =  -470.732727272     A.U. after   11 cycles
 E2 =    -0.1583687626D+01 EUMP2 =    -0.47231641489745D+03

 The electronic state is 1-A.
 Alpha  occ. eigenvalues --  -11.21636 -11.21621 -11.21598 -11.21493 -11.21429
 Alpha  occ. eigenvalues --  -11.21389 -11.21369 -11.21322 -11.21089 -11.21072
 Alpha  occ. eigenvalues --  -11.21050 -11.21028  -1.08473  -1.08394  -1.03601
 Alpha  occ. eigenvalues --   -1.03460  -0.96014  -0.95941  -0.87011  -0.86973
 Alpha  occ. eigenvalues --   -0.79700  -0.79521  -0.78358  -0.78142  -0.65096
 Alpha  occ. eigenvalues --   -0.65037  -0.60958  -0.60933  -0.59579  -0.59153
 Alpha  occ. eigenvalues --   -0.57770  -0.57374  -0.55278  -0.55243  -0.52713
 Alpha  occ. eigenvalues --   -0.52630  -0.52441  -0.52358  -0.49943  -0.49895
 Alpha  occ. eigenvalues --   -0.47983  -0.47865  -0.46701  -0.46575  -0.45953
 Alpha  occ. eigenvalues --   -0.45754  -0.45724  -0.45445  -0.43796  -0.43756
 Alpha virt. eigenvalues --    0.21351   0.23132   0.23413   0.24834   0.25647
 Alpha virt. eigenvalues --    0.26484   0.26687   0.27782   0.27828   0.29156
 Alpha virt. eigenvalues --    0.30479   0.31217   0.31291   0.31845   0.31926

 Mulliken charges:
               1
     1  C   -0.297310
     2  C   -0.311545
     3  C   -0.475801
     4  H    0.149270
     5  H    0.149214
     6  H    0.150731
     7  H    0.167086
     8  H    0.154972
     9  H    0.155008
    10  H    0.159949
    11  C   -0.298426
    12  C   -0.299598
    13  C   -0.475669
    14  H    0.149507
    15  H    0.148966
    16  H    0.152065
    17  H    0.151879
    18  H    0.154983
    19  H    0.155228
    20  H    0.160243
    21  C   -0.298403
    22  C   -0.299669
    23  C   -0.475712
    24  H    0.149740
    25  H    0.149112
    26  H    0.152052
    27  H    0.151992
    28  H    0.155097
    29  H    0.155227
    30  H    0.160353
    31  C   -0.297207
    32  C   -0.303321
    33  C   -0.479786
    34  H    0.149727
    35  H    0.149745
    36  H    0.153815
    37  H    0.150906
    38  H    0.154969
    39  H    0.154953
    40  H    0.165661
 Sum of Mulliken charges =  -0.00000

 Dipole moment (field-independent basis, Debye):
    X=             -0.0217    Y=              0.0011    Z=              0.0055  Tot=              0.0224
 Quadrupole moment (field-independent basis, Debye-Ang):
   XX=            -84.6120   YY=            -84.5551   ZZ=            -85.7404
   XY=              0.1635   XZ=             -0.2520   YZ=              0.0383

 Normal termination of Gaussian 16 at Wed May  5 18:22:02 2021.
