 Gaussian 16, Revision A.03,
 Gaussian 16:  EM64L-G16RevA.03 25-Dec-2016

 -------------
 #p 6-31g* mp2
 -------------

 ------------------------------------------------------
 Input file generated by CHIRIPA (05-May-2021 14:57:23)
 ------------------------------------------------------
 Symbolic Z-matrix:
 Charge =  0 Multiplicity = 1

                         Standard orientation:
 ---------------------------------------------------------------------
 Center     Atomic      Atomic             Coordinates (Angstroms)
 Number     Number       Type             X           Y           Z
 ---------------------------------------------------------------------
      1          6           0        2.316969    2.691070   -0.467366
      2          6           0        3.396933    2.297332    0.329610
      3          6           0        3.635391    0.943406    0.583713
      4          6           0        2.770006    0.005701    0.022368
      5          6           0        1.685552    0.366523   -0.775790
      6          6           0        1.466225    1.726110   -1.016554
      7          1           0        2.139160    3.745031   -0.659578
      8          1           0        4.059275    3.044540    0.757427
      9          1           0        4.463999    0.610820    1.197076
     10          1           0        1.042612   -0.401437   -1.188446
     11          1           0        0.626729    2.028981   -1.635876
     12          7           0        3.012324   -1.430637    0.284315
     13          8           0        2.235299   -2.237249   -0.221893
     14          8           0        3.974689   -1.722630    0.990877
     15          6           0       -3.664241    1.999593    0.703880
     16          6           0       -3.587034    0.959901    1.636402
     17          6           0       -3.071226   -0.286508    1.269038
     18          6           0       -2.639757   -0.459177   -0.045234
     19          6           0       -2.703683    0.557109   -0.997267
     20          6           0       -3.223096    1.795240   -0.607666
     21          1           0       -4.066333    2.964619    0.997893
     22          1           0       -3.928888    1.115743    2.655663
     23          1           0       -2.999987   -1.108688    1.970726
     24          1           0       -2.355058    0.371609   -2.005964
     25          1           0       -3.281854    2.600868   -1.333996
     26          7           0       -2.091785   -1.774313   -0.445916
     27          8           0       -1.718287   -1.900981   -1.609999
     28          8           0       -2.046160   -2.653545    0.411701
 ---------------------------------------------------------------------

 SCF Done:  E(RHF) =  -868.336853469     A.U. after   16 cycles
 E2 =    -0.2601134091D+01 EUMP2 =    -0.87093798756057D+03

 The electronic state is 1-A.
 Alpha  occ. eigenvalues --  -20.60991 -20.60930 -20.60240 -20.60175 -15.85995
 Alpha  occ. eigenvalues --  -15.85267 -11.31562 -11.30864 -11.28215 -11.28084
 Alpha  occ. eigenvalues --  -11.27899 -11.27496 -11.27396 -11.27321 -11.27254
 Alpha  occ. eigenvalues --  -11.27144 -11.26580 -11.26568  -1.60005  -1.59290
 Alpha  occ. eigenvalues --   -1.39562  -1.38831  -1.19744  -1.19078  -1.09096
 Alpha  occ. eigenvalues --   -1.08444  -1.05180  -1.04514  -0.95898  -0.95228
 Alpha  occ. eigenvalues --   -0.86565  -0.85907  -0.82731  -0.82052  -0.77759
 Alpha  occ. eigenvalues --   -0.77047  -0.72200  -0.71495  -0.71317  -0.70842
 Alpha  occ. eigenvalues --   -0.70626  -0.70183  -0.65394  -0.65178  -0.64728
 Alpha  occ. eigenvalues --   -0.64535  -0.62531  -0.61838  -0.55654  -0.55042
 Alpha  occ. eigenvalues --   -0.53500  -0.53269  -0.52832  -0.52609  -0.48974
 Alpha  occ. eigenvalues --   -0.48948  -0.48272  -0.48213  -0.44900  -0.44184
 Alpha  occ. eigenvalues --   -0.37726  -0.37104  -0.36809  -0.36100
 Alpha virt. eigenvalues --    0.04750   0.05477   0.10819   0.11513   0.16186
 Alpha virt. eigenvalues --    0.16912   0.20507   0.21783   0.25988   0.27412
 Alpha virt. eigenvalues --    0.28293   0.28665   0.30591   0.31144   0.32281

 Mulliken charges:
               1
     1  C   -0.171711
     2  C   -0.219066
     3  C   -0.171046
     4  C    0.158296
     5  C   -0.178740
     6  C   -0.217416
     7  H    0.221810
     8  H    0.221621
     9  H    0.275170
    10  H    0.286949
    11  H    0.216381
    12  N    0.486525
    13  O   -0.449948
    14  O   -0.463940
    15  C   -0.170930
    16  C   -0.217713
    17  C   -0.169495
    18  C    0.159985
    19  C   -0.177620
    20  C   -0.219480
    21  H    0.225914
    22  H    0.225428
    23  H    0.279175
    24  H    0.272178
    25  H    0.221164
    26  N    0.488173
    27  O   -0.462382
    28  O   -0.449280
 Sum of Mulliken charges =  -0.00000

 Dipole moment (field-independent basis, Debye):
    X=             -2.9586    Y=              9.3419    Z=              0.6443  Tot=              9.8203
 Quadrupole moment (field-independent basis, Debye-Ang):
   XX=            -97.2020   YY=           -109.1721   ZZ=            -99.8775
   XY=              3.9880   XZ=             -5.0495   YZ=             -1.7142

 Normal termination of Gaussian 16 at Fri May  7 08:01:59 2021.
