 Gaussian 16, Revision A.03,
 Gaussian 16:  EM64L-G16RevA.03 25-Dec-2016

 -------------
 #p 6-31g* mp2
 -------------

 ------------------------------------------------------
 Input file generated by CHIRIPA (05-May-2021 14:53:18)
 ------------------------------------------------------
 Symbolic Z-matrix:
 Charge =  0 Multiplicity = 1

                         Standard orientation:
 ---------------------------------------------------------------------
 Center     Atomic      Atomic             Coordinates (Angstroms)
 Number     Number       Type             X           Y           Z
 ---------------------------------------------------------------------
      1          6           0       -2.208606   -1.069943   -0.672936
      2          6           0       -1.158898   -1.899135    0.067698
      3          6           0       -0.172148   -2.584674   -0.877900
      4          1           0       -2.756564   -1.720351   -1.368390
      5          1           0       -1.701373   -0.312854   -1.286878
      6          1           0       -1.668007   -2.653538    0.681131
      7          1           0       -0.613504   -1.246717    0.761609
      8          1           0        0.361886   -1.843288   -1.481022
      9          1           0       -0.698609   -3.258103   -1.561957
     10          1           0        0.569398   -3.172001   -0.327432
     11          6           0       -3.202254   -0.378443    0.258846
     12          6           0       -4.251962    0.450748   -0.481788
     13          6           0       -5.238711    1.136287    0.463810
     14          1           0       -3.709487   -1.135533    0.872789
     15          1           0       -2.654296    0.271965    0.954301
     16          1           0       -4.797355   -0.201670   -1.175699
     17          1           0       -3.742852    1.205151   -1.095221
     18          1           0       -4.712251    1.809716    1.147867
     19          1           0       -5.772745    0.394901    1.066932
     20          1           0       -5.980258    1.723614   -0.086658
     21          6           0        1.407130    2.948192   -0.275159
     22          6           0        0.993581    2.298348    0.892403
     23          6           0        1.378994    0.978397    1.144858
     24          6           0        2.181917    0.335453    0.203993
     25          6           0        2.610187    0.955915   -0.968569
     26          6           0        2.212692    2.276087   -1.200288
     27          1           0        1.103039    3.973647   -0.463218
     28          1           0        0.367940    2.817845    1.612640
     29          1           0        1.073170    0.451492    2.040547
     30          1           0        3.233544    0.412042   -1.667887
     31          1           0        2.535362    2.778267   -2.107891
     32          7           0        2.596333   -1.062037    0.460280
     33          8           0        3.303972   -1.606510   -0.384370
     34          8           0        2.205665   -1.586455    1.500953
 ---------------------------------------------------------------------

 SCF Done:  E(RHF) =  -669.535326697     A.U. after   15 cycles
 E2 =    -0.2095280458D+01 EUMP2 =    -0.67163060715518D+03

 The electronic state is 1-A.
 Alpha  occ. eigenvalues --  -20.60939 -20.60921 -15.85921 -11.31307 -11.27877
 Alpha  occ. eigenvalues --  -11.27870 -11.27610 -11.26893 -11.26878 -11.21680
 Alpha  occ. eigenvalues --  -11.21362 -11.21229 -11.21132 -11.21033 -11.20272
 Alpha  occ. eigenvalues --   -1.59976  -1.39534  -1.19484  -1.08875  -1.08267
 Alpha  occ. eigenvalues --   -1.04885  -1.03297  -0.95755  -0.95704  -0.86766
 Alpha  occ. eigenvalues --   -0.86281  -0.82546  -0.79390  -0.78065  -0.77580
 Alpha  occ. eigenvalues --   -0.72172  -0.71359  -0.70588  -0.65139  -0.64942
 Alpha  occ. eigenvalues --   -0.64848  -0.62236  -0.60699  -0.59113  -0.57307
 Alpha  occ. eigenvalues --   -0.55385  -0.55054  -0.53220  -0.52973  -0.52360
 Alpha  occ. eigenvalues --   -0.52156  -0.49748  -0.48961  -0.48923  -0.47661
 Alpha  occ. eigenvalues --   -0.46523  -0.45676  -0.45568  -0.44695  -0.43513
 Alpha  occ. eigenvalues --   -0.37433  -0.36460
 Alpha virt. eigenvalues --    0.04875   0.11051   0.16342   0.21098   0.22936
 Alpha virt. eigenvalues --    0.24480   0.26072   0.27092   0.27725   0.28280
 Alpha virt. eigenvalues --    0.28732   0.30362   0.31529   0.31725   0.32367

 Mulliken charges:
               1
     1  C   -0.297750
     2  C   -0.301907
     3  C   -0.488063
     4  H    0.149368
     5  H    0.146876
     6  H    0.152724
     7  H    0.151942
     8  H    0.147487
     9  H    0.153204
    10  H    0.183434
    11  C   -0.296100
    12  C   -0.299155
    13  C   -0.474997
    14  H    0.150839
    15  H    0.142710
    16  H    0.153237
    17  H    0.149285
    18  H    0.151504
    19  H    0.156544
    20  H    0.159738
    21  C   -0.170740
    22  C   -0.219329
    23  C   -0.172974
    24  C    0.161315
    25  C   -0.172201
    26  C   -0.218384
    27  H    0.226215
    28  H    0.224123
    29  H    0.276064
    30  H    0.276346
    31  H    0.224080
    32  N    0.491046
    33  O   -0.457825
    34  O   -0.458657
 Sum of Mulliken charges =  -0.00000

 Dipole moment (field-independent basis, Debye):
    X=             -1.2541    Y=              4.8238    Z=             -0.8664  Tot=              5.0589
 Quadrupole moment (field-independent basis, Debye-Ang):
   XX=           -100.8566   YY=            -91.2262   ZZ=            -92.0216
   XY=             11.2354   XZ=             -4.3867   YZ=              0.3121

 Normal termination of Gaussian 16 at Thu May  6 19:01:42 2021.
