 Gaussian 16, Revision A.03,
 Gaussian 16:  EM64L-G16RevA.03 25-Dec-2016

 -------------
 #p 6-31g* mp2
 -------------

 ------------------------------------------------------
 Input file generated by CHIRIPA (05-May-2021 14:53:18)
 ------------------------------------------------------
 Symbolic Z-matrix:
 Charge =  0 Multiplicity = 1

                         Standard orientation:
 ---------------------------------------------------------------------
 Center     Atomic      Atomic             Coordinates (Angstroms)
 Number     Number       Type             X           Y           Z
 ---------------------------------------------------------------------
      1          6           0       -2.947208   -0.593918   -0.029200
      2          6           0       -2.864540   -1.543839    1.166125
      3          6           0       -3.167477   -2.994632    0.790330
      4          1           0       -3.950856   -0.657727   -0.471427
      5          1           0       -2.242673   -0.927874   -0.803473
      6          1           0       -3.568024   -1.207390    1.938478
      7          1           0       -1.861033   -1.477618    1.605674
      8          1           0       -2.458667   -3.353524    0.037080
      9          1           0       -4.175357   -3.081760    0.371775
     10          1           0       -3.102758   -3.656423    1.659642
     11          6           0       -2.646889    0.860078    0.330567
     12          6           0       -2.729557    1.809999   -0.864758
     13          6           0       -2.426620    3.260792   -0.488963
     14          1           0       -3.351424    1.194035    1.104840
     15          1           0       -1.643241    0.923888    0.772794
     16          1           0       -3.733064    1.743779   -1.304307
     17          1           0       -2.026073    1.473550   -1.637111
     18          1           0       -1.418740    3.347921   -0.070408
     19          1           0       -3.135430    3.619684    0.264287
     20          1           0       -2.491339    3.922584   -1.358275
     21          6           0        2.550498    2.193637    0.858742
     22          6           0        3.365164    1.127480    1.253897
     23          6           0        3.171831   -0.149838    0.719454
     24          6           0        2.149878   -0.326093   -0.212122
     25          6           0        1.321646    0.716083   -0.625875
     26          6           0        1.533132    1.984904   -0.078232
     27          1           0        2.707734    3.182588    1.279038
     28          1           0        4.156033    1.286653    1.981383
     29          1           0        3.787908   -0.992924    1.007678
     30          1           0        0.541384    0.526508   -1.352973
     31          1           0        0.898921    2.811041   -0.386969
     32          7           0        1.935596   -1.673834   -0.784901
     33          8           0        1.028402   -1.803025   -1.604014
     34          8           0        2.678894   -2.575485   -0.403887
 ---------------------------------------------------------------------

 SCF Done:  E(RHF) =  -669.535692891     A.U. after   15 cycles
 E2 =    -0.2093360574D+01 EUMP2 =    -0.67162905346487D+03

 The electronic state is 1-A.
 Alpha  occ. eigenvalues --  -20.60899 -20.60892 -15.85941 -11.31279 -11.27850
 Alpha  occ. eigenvalues --  -11.27847 -11.27577 -11.26851 -11.26829 -11.22099
 Alpha  occ. eigenvalues --  -11.21800 -11.21541 -11.21339 -11.21187 -11.20582
 Alpha  occ. eigenvalues --   -1.59964  -1.39519  -1.19454  -1.08849  -1.08517
 Alpha  occ. eigenvalues --   -1.04854  -1.03626  -0.96071  -0.95688  -0.87096
 Alpha  occ. eigenvalues --   -0.86246  -0.82523  -0.79739  -0.78229  -0.77579
 Alpha  occ. eigenvalues --   -0.72159  -0.71283  -0.70562  -0.65233  -0.65073
 Alpha  occ. eigenvalues --   -0.64875  -0.62238  -0.60961  -0.59496  -0.57649
 Alpha  occ. eigenvalues --   -0.55442  -0.55299  -0.53179  -0.52968  -0.52790
 Alpha  occ. eigenvalues --   -0.52446  -0.50008  -0.48916  -0.48908  -0.48022
 Alpha  occ. eigenvalues --   -0.46786  -0.45793  -0.45654  -0.44907  -0.43844
 Alpha  occ. eigenvalues --   -0.37426  -0.36421
 Alpha virt. eigenvalues --    0.04910   0.11126   0.16293   0.19102   0.23047
 Alpha virt. eigenvalues --    0.24039   0.25163   0.26153   0.27578   0.28503
 Alpha virt. eigenvalues --    0.29231   0.31007   0.31436   0.31666   0.32719

 Mulliken charges:
               1
     1  C   -0.303796
     2  C   -0.298257
     3  C   -0.478306
     4  H    0.149291
     5  H    0.160896
     6  H    0.149019
     7  H    0.151239
     8  H    0.166229
     9  H    0.153076
    10  H    0.159302
    11  C   -0.302495
    12  C   -0.301922
    13  C   -0.478851
    14  H    0.149929
    15  H    0.149647
    16  H    0.157322
    17  H    0.147171
    18  H    0.145371
    19  H    0.160038
    20  H    0.161536
    21  C   -0.171384
    22  C   -0.218543
    23  C   -0.170424
    24  C    0.157996
    25  C   -0.174766
    26  C   -0.223598
    27  H    0.226460
    28  H    0.223912
    29  H    0.275905
    30  H    0.279877
    31  H    0.230822
    32  N    0.488307
    33  O   -0.461660
    34  O   -0.459340
 Sum of Mulliken charges =  -0.00000

 Dipole moment (field-independent basis, Debye):
    X=              0.7667    Y=              4.6219    Z=              1.9964  Tot=              5.0927
 Quadrupole moment (field-independent basis, Debye-Ang):
   XX=            -87.6781   YY=            -98.8738   ZZ=            -94.7499
   XY=              8.2429   XZ=              6.6924   YZ=             -2.7057

 Normal termination of Gaussian 16 at Thu May  6 01:16:40 2021.
