 Gaussian 16, Revision A.03,
 Gaussian 16:  EM64L-G16RevA.03 25-Dec-2016

 -------------
 #p 6-31g* mp2
 -------------

 ------------------------------------------------------
 Input file generated by CHIRIPA (05-May-2021 14:57:23)
 ------------------------------------------------------
 Symbolic Z-matrix:
 Charge =  0 Multiplicity = 1

                         Standard orientation:
 ---------------------------------------------------------------------
 Center     Atomic      Atomic             Coordinates (Angstroms)
 Number     Number       Type             X           Y           Z
 ---------------------------------------------------------------------
      1          6           0       -0.876972    0.316747    1.527045
      2          6           0       -1.426839   -0.969303    1.542574
      3          6           0       -2.626061   -1.236848    0.875616
      4          6           0       -3.251537   -0.190085    0.200075
      5          6           0       -2.728777    1.101761    0.166198
      6          6           0       -1.528547    1.346360    0.840117
      7          1           0        0.055005    0.515670    2.047858
      8          1           0       -0.923009   -1.770850    2.075232
      9          1           0       -3.073886   -2.223182    0.871400
     10          1           0       -3.254121    1.880379   -0.373417
     11          1           0       -1.103833    2.346096    0.826354
     12          7           0       -4.521634   -0.461176   -0.509688
     13          8           0       -5.053174    0.478249   -1.097550
     14          8           0       -4.961545   -1.607951   -0.464700
     15          6           0        1.571092    2.181422   -0.554481
     16          6           0        1.477244    1.138068   -1.481372
     17          6           0        2.287394    0.005200   -1.359652
     18          6           0        3.184432   -0.051429   -0.294099
     19          6           0        3.301330    0.971651    0.645546
     20          6           0        2.481231    2.095036    0.504152
     21          1           0        0.937885    3.057779   -0.656677
     22          1           0        0.771320    1.202433   -2.304520
     23          1           0        2.235382   -0.817036   -2.062960
     24          1           0        4.014537    0.878798    1.455566
     25          1           0        2.556279    2.903799    1.225481
     26          7           0        4.047367   -1.245727   -0.154826
     27          8           0        4.829633   -1.271394    0.792824
     28          8           0        3.925132   -2.133535   -0.995952
 ---------------------------------------------------------------------

 SCF Done:  E(RHF) =  -868.336200119     A.U. after   16 cycles
 E2 =    -0.2602970043D+01 EUMP2 =    -0.87093917016193D+03

 The electronic state is 1-A.
 Alpha  occ. eigenvalues --  -20.61506 -20.61491 -20.61105 -20.61093 -15.86559
 Alpha  occ. eigenvalues --  -15.86159 -11.32064 -11.31547 -11.28694 -11.28571
 Alpha  occ. eigenvalues --  -11.28437 -11.28181 -11.28090 -11.27807 -11.27751
 Alpha  occ. eigenvalues --  -11.27590 -11.27211 -11.27054  -1.60577  -1.60179
 Alpha  occ. eigenvalues --   -1.40125  -1.39732  -1.20264  -1.19728  -1.09655
 Alpha  occ. eigenvalues --   -1.09092  -1.05660  -1.05154  -0.96452  -0.95931
 Alpha  occ. eigenvalues --   -0.87054  -0.86546  -0.83262  -0.82776  -0.78269
 Alpha  occ. eigenvalues --   -0.77840  -0.72768  -0.72375  -0.71911  -0.71509
 Alpha  occ. eigenvalues --   -0.71408  -0.70806  -0.65900  -0.65653  -0.65379
 Alpha  occ. eigenvalues --   -0.65169  -0.62979  -0.62517  -0.56234  -0.55624
 Alpha  occ. eigenvalues --   -0.54228  -0.53731  -0.53275  -0.53158  -0.49541
 Alpha  occ. eigenvalues --   -0.49518  -0.49137  -0.49127  -0.45498  -0.45133
 Alpha  occ. eigenvalues --   -0.38634  -0.37547  -0.37190  -0.36547
 Alpha virt. eigenvalues --    0.04192   0.04715   0.10151   0.11063   0.15632
 Alpha virt. eigenvalues --    0.16218   0.19409   0.21752   0.25458   0.26474
 Alpha virt. eigenvalues --    0.27964   0.28527   0.29679   0.31654   0.31770

 Mulliken charges:
               1
     1  C   -0.165560
     2  C   -0.220282
     3  C   -0.170375
     4  C    0.157851
     5  C   -0.175299
     6  C   -0.217163
     7  H    0.227788
     8  H    0.227437
     9  H    0.277580
    10  H    0.273234
    11  H    0.212089
    12  N    0.488019
    13  O   -0.461674
    14  O   -0.458509
    15  C   -0.173634
    16  C   -0.211483
    17  C   -0.170058
    18  C    0.157950
    19  C   -0.174837
    20  C   -0.227120
    21  H    0.223554
    22  H    0.228923
    23  H    0.279561
    24  H    0.277300
    25  H    0.223941
    26  N    0.487573
    27  O   -0.459715
    28  O   -0.457093
 Sum of Mulliken charges =  -0.00000

 Dipole moment (field-independent basis, Debye):
    X=              1.5785    Y=              4.9381    Z=              1.8934  Tot=              5.5192
 Quadrupole moment (field-independent basis, Debye-Ang):
   XX=           -153.8258   YY=           -101.0638   ZZ=           -100.4661
   XY=             10.4595   XZ=             -6.2011   YZ=             -1.4339

 Normal termination of Gaussian 16 at Thu May  6 19:34:46 2021.
