 Gaussian 16, Revision A.03,
 Gaussian 16:  EM64L-G16RevA.03 25-Dec-2016

 -------------
 #p 6-31g* mp2
 -------------

 ------------------------------------------------------
 Input file generated by CHIRIPA (05-May-2021 14:55:19)
 ------------------------------------------------------
 Symbolic Z-matrix:
 Charge =  0 Multiplicity = 1

                         Standard orientation:
 ---------------------------------------------------------------------
 Center     Atomic      Atomic             Coordinates (Angstroms)
 Number     Number       Type             X           Y           Z
 ---------------------------------------------------------------------
      1          6           0       -3.994523    1.812404   -0.746449
      2          6           0       -3.737292    0.680536   -1.526980
      3          6           0       -2.939863   -0.356193   -1.033172
      4          6           0       -2.413405   -0.227470    0.251182
      5          6           0       -2.651508    0.887646    1.053124
      6          6           0       -3.451767    1.912171    0.538846
      7          1           0       -4.615085    2.613020   -1.138002
      8          1           0       -4.157481    0.600344   -2.525506
      9          1           0       -2.724679   -1.243557   -1.616008
     10          1           0       -2.218702    0.939009    2.044819
     11          1           0       -3.649854    2.790030    1.147262
     12          7           0       -1.567704   -1.318549    0.784789
     13          8           0       -1.115665   -1.181018    1.919418
     14          8           0       -1.372897   -2.290608    0.058299
     15          6           0        3.116673    0.809100   -0.240444
     16          6           0        4.308931    1.684957    0.146053
     17          6           0        3.991466    3.179079    0.078161
     18          1           0        2.791953    1.070597   -1.256870
     19          1           0        2.272641    1.036190    0.425466
     20          1           0        5.150898    1.455295   -0.519499
     21          1           0        4.630969    1.421212    1.161605
     22          1           0        3.168206    3.429144    0.755148
     23          1           0        3.691089    3.463420   -0.935508
     24          1           0        4.857596    3.786675    0.358355
     25          6           0        3.418462   -0.687123   -0.177441
     26          6           0        2.226204   -1.562980   -0.563939
     27          6           0        2.543669   -3.057102   -0.496047
     28          1           0        4.262494   -0.914213   -0.843351
     29          1           0        3.743182   -0.948620    0.838984
     30          1           0        1.904166   -1.299235   -1.579490
     31          1           0        1.384237   -1.333318    0.101614
     32          1           0        2.844045   -3.341444    0.517622
     33          1           0        3.366929   -3.307167   -1.173034
     34          1           0        1.677539   -3.664698   -0.776240
 ---------------------------------------------------------------------

 SCF Done:  E(RHF) =  -669.536242557     A.U. after   15 cycles
 E2 =    -0.2091817595D+01 EUMP2 =    -0.67162806015180D+03

 The electronic state is 1-A.
 Alpha  occ. eigenvalues --  -20.60970 -20.60959 -15.85976 -11.31289 -11.27853
 Alpha  occ. eigenvalues --  -11.27847 -11.27587 -11.26854 -11.26844 -11.21172
 Alpha  occ. eigenvalues --  -11.20811 -11.20802 -11.20535 -11.20414 -11.19784
 Alpha  occ. eigenvalues --   -1.60021  -1.39574  -1.19456  -1.08864  -1.07700
 Alpha  occ. eigenvalues --   -1.04850  -1.02735  -0.95709  -0.95204  -0.86252
 Alpha  occ. eigenvalues --   -0.86233  -0.82545  -0.78859  -0.77600  -0.77479
 Alpha  occ. eigenvalues --   -0.72200  -0.71345  -0.70567  -0.65111  -0.64855
 Alpha  occ. eigenvalues --   -0.64328  -0.62198  -0.60129  -0.58619  -0.56779
 Alpha  occ. eigenvalues --   -0.55356  -0.54513  -0.53180  -0.52943  -0.51884
 Alpha  occ. eigenvalues --   -0.51639  -0.49189  -0.48967  -0.48961  -0.47156
 Alpha  occ. eigenvalues --   -0.45897  -0.45093  -0.44938  -0.44848  -0.42995
 Alpha  occ. eigenvalues --   -0.37431  -0.36449
 Alpha virt. eigenvalues --    0.04893   0.11206   0.16385   0.21332   0.23535
 Alpha virt. eigenvalues --    0.25156   0.27223   0.27310   0.27961   0.28388
 Alpha virt. eigenvalues --    0.28761   0.30890   0.32088   0.32330   0.32453

 Mulliken charges:
               1
     1  C   -0.170406
     2  C   -0.218625
     3  C   -0.170375
     4  C    0.159159
     5  C   -0.170857
     6  C   -0.218524
     7  H    0.226045
     8  H    0.223829
     9  H    0.275874
    10  H    0.275599
    11  H    0.223844
    12  N    0.487107
    13  O   -0.460385
    14  O   -0.458173
    15  C   -0.297751
    16  C   -0.298936
    17  C   -0.475026
    18  H    0.145967
    19  H    0.149080
    20  H    0.151065
    21  H    0.152640
    22  H    0.153306
    23  H    0.153198
    24  H    0.158891
    25  C   -0.297775
    26  C   -0.301637
    27  C   -0.475050
    28  H    0.145750
    29  H    0.150831
    30  H    0.144137
    31  H    0.164741
    32  H    0.155538
    33  H    0.146523
    34  H    0.170393
 Sum of Mulliken charges =  -0.00000

 Dipole moment (field-independent basis, Debye):
    X=             -3.2331    Y=              3.7339    Z=             -1.8043  Tot=              5.2583
 Quadrupole moment (field-independent basis, Debye-Ang):
   XX=            -81.6155   YY=            -96.9741   ZZ=            -91.4070
   XY=             -8.5489   XZ=              4.5417   YZ=              3.7883

 Normal termination of Gaussian 16 at Thu May  6 15:42:20 2021.
