 Gaussian 16, Revision A.03,
 Gaussian 16:  EM64L-G16RevA.03 25-Dec-2016

 -------------
 #p 6-31g* mp2
 -------------

 ------------------------------------------------------
 Input file generated by CHIRIPA (05-May-2021 14:57:25)
 ------------------------------------------------------
 Symbolic Z-matrix:
 Charge =  0 Multiplicity = 1

                         Standard orientation:
 ---------------------------------------------------------------------
 Center     Atomic      Atomic             Coordinates (Angstroms)
 Number     Number       Type             X           Y           Z
 ---------------------------------------------------------------------
      1          6           0        5.938711   -0.968635   -0.996172
      2          6           0        4.678973   -1.347355   -1.471728
      3          6           0        3.516115   -0.855759   -0.871193
      4          6           0        3.650470    0.016675    0.207740
      5          6           0        4.891318    0.412657    0.704514
      6          6           0        6.040683   -0.091384    0.088519
      7          1           0        6.836807   -1.355352   -1.468687
      8          1           0        4.596751   -2.028491   -2.313949
      9          1           0        2.528286   -1.132492   -1.219088
     10          1           0        4.941357    1.093200    1.545808
     11          1           0        7.017693    0.204460    0.459965
     12          7           0        2.426546    0.543694    0.851683
     13          8           0        2.571866    1.310999    1.800767
     14          8           0        1.345090    0.179485    0.395128
     15          6           0       -5.360781   -1.850680    0.531126
     16          6           0       -4.061671   -1.782208    1.045078
     17          6           0       -3.217056   -0.722489    0.701321
     18          6           0       -3.706342    0.255886   -0.162781
     19          6           0       -4.995642    0.215618   -0.691340
     20          6           0       -5.822805   -0.853306   -0.333918
     21          1           0       -6.010119   -2.677471    0.803473
     22          1           0       -3.700177   -2.555363    1.717090
     23          1           0       -2.206886   -0.644818    1.084650
     24          1           0       -5.327774    1.001280   -1.359054
     25          1           0       -6.831246   -0.903897   -0.734585
     26          7           0       -2.821424    1.382635   -0.533935
     27          8           0       -3.276314    2.231968   -1.297051
     28          8           0       -1.689692    1.395113   -0.054702
 ---------------------------------------------------------------------

 SCF Done:  E(RHF) =  -868.336071104     A.U. after   16 cycles
 E2 =    -0.2600046902D+01 EUMP2 =    -0.87093611800590D+03

 The electronic state is 1-A.
 Alpha  occ. eigenvalues --  -20.60149 -20.60094 -20.59670 -20.59540 -15.85179
 Alpha  occ. eigenvalues --  -15.84648 -11.30764 -11.30307 -11.27362 -11.27358
 Alpha  occ. eigenvalues --  -11.27151 -11.26970 -11.26832 -11.26767 -11.26432
 Alpha  occ. eigenvalues --  -11.26421 -11.26046 -11.25988  -1.59189  -1.58697
 Alpha  occ. eigenvalues --   -1.38739  -1.38228  -1.18959  -1.18525  -1.08313
 Alpha  occ. eigenvalues --   -1.07880  -1.04396  -1.03965  -0.95111  -0.94651
 Alpha  occ. eigenvalues --   -0.85784  -0.85349  -0.81947  -0.81462  -0.76958
 Alpha  occ. eigenvalues --   -0.76453  -0.71432  -0.70800  -0.70516  -0.70074
 Alpha  occ. eigenvalues --   -0.70035  -0.69628  -0.64609  -0.64404  -0.64161
 Alpha  occ. eigenvalues --   -0.63977  -0.61743  -0.61289  -0.54894  -0.54484
 Alpha  occ. eigenvalues --   -0.52713  -0.52494  -0.52296  -0.52056  -0.48174
 Alpha  occ. eigenvalues --   -0.48138  -0.47673  -0.47566  -0.44102  -0.43557
 Alpha  occ. eigenvalues --   -0.36954  -0.36548  -0.36010  -0.35587
 Alpha virt. eigenvalues --    0.05583   0.06064   0.11641   0.12062   0.17029
 Alpha virt. eigenvalues --    0.17487   0.21736   0.22157   0.27633   0.28042
 Alpha virt. eigenvalues --    0.28633   0.29118   0.31268   0.31662   0.32875

 Mulliken charges:
               1
     1  C   -0.171537
     2  C   -0.218531
     3  C   -0.171034
     4  C    0.159116
     5  C   -0.171189
     6  C   -0.218529
     7  H    0.224015
     8  H    0.221873
     9  H    0.275369
    10  H    0.275379
    11  H    0.222178
    12  N    0.488257
    13  O   -0.461354
    14  O   -0.453291
    15  C   -0.171903
    16  C   -0.219710
    17  C   -0.173556
    18  C    0.156960
    19  C   -0.172025
    20  C   -0.219211
    21  H    0.222124
    22  H    0.221405
    23  H    0.288013
    24  H    0.273499
    25  H    0.220087
    26  N    0.486058
    27  O   -0.469179
    28  O   -0.443283
 Sum of Mulliken charges =  -0.00000

 Dipole moment (field-independent basis, Debye):
    X=              1.4061    Y=             -5.7351    Z=             -0.8706  Tot=              5.9687
 Quadrupole moment (field-independent basis, Debye-Ang):
   XX=            -49.3588   YY=           -106.4124   ZZ=           -103.7503
   XY=              7.4277   XZ=             -7.6437   YZ=              1.3949

 Normal termination of Gaussian 16 at Thu May  6 22:50:18 2021.
