 Gaussian 16, Revision A.03,
 Gaussian 16:  EM64L-G16RevA.03 25-Dec-2016

 -------------
 #p 6-31g* mp2
 -------------

 ------------------------------------------------------
 Input file generated by CHIRIPA (05-May-2021 14:53:12)
 ------------------------------------------------------
 Symbolic Z-matrix:
 Charge =  0 Multiplicity = 1

                         Standard orientation:
 ---------------------------------------------------------------------
 Center     Atomic      Atomic             Coordinates (Angstroms)
 Number     Number       Type             X           Y           Z
 ---------------------------------------------------------------------
      1          6           0        5.536142   -0.271786   -0.299740
      2          6           0        6.558840   -0.831859    0.689396
      3          6           0        7.686019   -1.602541    0.001420
      4          1           0        5.112267   -1.098248   -0.886456
      5          1           0        6.049594    0.387140   -1.013588
      6          1           0        6.043388   -1.488443    1.402013
      7          1           0        6.980191   -0.003989    1.273958
      8          1           0        8.226041   -0.954241   -0.696208
      9          1           0        7.283916   -2.447130   -0.567425
     10          1           0        8.405732   -1.994139    0.727040
     11          6           0        4.403146    0.501246    0.372918
     12          6           0        3.380448    1.061319   -0.616219
     13          6           0        2.253269    1.832001    0.071757
     14          1           0        3.889694   -0.157679    1.086766
     15          1           0        4.827021    1.327708    0.959634
     16          1           0        2.959098    0.233449   -1.200780
     17          1           0        3.895900    1.717903   -1.328835
     18          1           0        2.655372    2.676590    0.640602
     19          1           0        1.713247    1.183702    0.769385
     20          1           0        1.533556    2.223600   -0.653862
     21          6           0       -1.733146    1.206480   -0.285765
     22          6           0       -2.900453    1.860499    0.121880
     23          6           0       -4.097055    1.152385    0.267712
     24          6           0       -4.090330   -0.214936   -0.003722
     25          6           0       -2.943773   -0.894923   -0.411539
     26          6           0       -1.758486   -0.166722   -0.550706
     27          1           0       -0.807992    1.764362   -0.396462
     28          1           0       -2.883731    2.926868    0.328328
     29          1           0       -5.015270    1.633669    0.581823
     30          1           0       -2.991602   -1.958746   -0.610060
     31          1           0       -0.853461   -0.677265   -0.867443
     32          7           0       -5.351129   -0.975217    0.147136
     33          8           0       -5.318896   -2.179143   -0.098140
     34          8           0       -6.347703   -0.352804    0.507798
 ---------------------------------------------------------------------

 SCF Done:  E(RHF) =  -669.535507328     A.U. after   15 cycles
 E2 =    -0.2090946039D+01 EUMP2 =    -0.67162645336739D+03

 The electronic state is 1-A.
 Alpha  occ. eigenvalues --  -20.60708 -20.60703 -15.85762 -11.31109 -11.27685
 Alpha  occ. eigenvalues --  -11.27679 -11.27347 -11.26682 -11.26668 -11.22644
 Alpha  occ. eigenvalues --  -11.22417 -11.22187 -11.22120 -11.22008 -11.21498
 Alpha  occ. eigenvalues --   -1.59785  -1.39339  -1.19279  -1.09200  -1.08669
 Alpha  occ. eigenvalues --   -1.04684  -1.04343  -0.96815  -0.95507  -0.87840
 Alpha  occ. eigenvalues --   -0.86076  -0.82348  -0.80417  -0.78957  -0.77402
 Alpha  occ. eigenvalues --   -0.71980  -0.71108  -0.70391  -0.65827  -0.64927
 Alpha  occ. eigenvalues --   -0.64691  -0.62039  -0.61728  -0.60257  -0.58396
 Alpha  occ. eigenvalues --   -0.56115  -0.55206  -0.53448  -0.53222  -0.53006
 Alpha  occ. eigenvalues --   -0.52772  -0.50730  -0.48746  -0.48736  -0.48713
 Alpha  occ. eigenvalues --   -0.47426  -0.46512  -0.46403  -0.44749  -0.44581
 Alpha  occ. eigenvalues --   -0.37244  -0.36295
 Alpha virt. eigenvalues --    0.05132   0.11349   0.16613   0.19929   0.22444
 Alpha virt. eigenvalues --    0.23846   0.25783   0.26054   0.26739   0.27238
 Alpha virt. eigenvalues --    0.28815   0.29935   0.30806   0.31304   0.32395

 Mulliken charges:
               1
     1  C   -0.298859
     2  C   -0.300253
     3  C   -0.476115
     4  H    0.149881
     5  H    0.150797
     6  H    0.152734
     7  H    0.152868
     8  H    0.155824
     9  H    0.155715
    10  H    0.161973
    11  C   -0.299492
    12  C   -0.298568
    13  C   -0.484287
    14  H    0.150519
    15  H    0.151806
    16  H    0.149831
    17  H    0.155766
    18  H    0.162004
    19  H    0.156671
    20  H    0.153516
    21  C   -0.176040
    22  C   -0.220832
    23  C   -0.170670
    24  C    0.158073
    25  C   -0.170822
    26  C   -0.222308
    27  H    0.236554
    28  H    0.223645
    29  H    0.275246
    30  H    0.275160
    31  H    0.223041
    32  N    0.488049
    33  O   -0.460773
    34  O   -0.460653
 Sum of Mulliken charges =  -0.00000

 Dipole moment (field-independent basis, Debye):
    X=              4.7392    Y=              2.6945    Z=             -0.4939  Tot=              5.4740
 Quadrupole moment (field-independent basis, Debye-Ang):
   XX=           -130.0446   YY=            -92.1249   ZZ=            -95.3352
   XY=            -13.2384   XZ=              1.7467   YZ=              1.2508

 Normal termination of Gaussian 16 at Wed May  5 18:32:14 2021.
