 Gaussian 16, Revision A.03,
 Gaussian 16:  EM64L-G16RevA.03 25-Dec-2016

 -------------
 #p 6-31g* mp2
 -------------

 ------------------------------------------------------
 Input file generated by CHIRIPA (05-May-2021 14:53:16)
 ------------------------------------------------------
 Symbolic Z-matrix:
 Charge =  0 Multiplicity = 1

                         Standard orientation:
 ---------------------------------------------------------------------
 Center     Atomic      Atomic             Coordinates (Angstroms)
 Number     Number       Type             X           Y           Z
 ---------------------------------------------------------------------
      1          6           0       -2.882513   -0.036158   -0.673147
      2          6           0       -3.744754   -0.986295    0.158578
      3          6           0       -4.062084   -2.290547   -0.573556
      4          1           0       -3.399737    0.187556   -1.616214
      5          1           0       -1.945925   -0.543461   -0.943038
      6          1           0       -4.678841   -0.476868    0.427988
      7          1           0       -3.225503   -1.207622    1.099859
      8          1           0       -3.140262   -2.823249   -0.828653
      9          1           0       -4.601857   -2.088343   -1.504341
     10          1           0       -4.679388   -2.954928    0.039138
     11          6           0       -2.556828    1.272098    0.045270
     12          6           0       -1.694587    2.222235   -0.786454
     13          6           0       -1.377257    3.526487   -0.054320
     14          1           0       -3.493416    1.779401    0.315162
     15          1           0       -2.039604    1.048384    0.988338
     16          1           0       -2.213838    2.443561   -1.727735
     17          1           0       -0.760500    1.712808   -1.055865
     18          1           0       -0.837484    3.324283    0.876464
     19          1           0       -2.299079    4.059188    0.200777
     20          1           0       -0.759953    4.190868   -0.667015
     21          6           0        0.018724   -1.018362    1.527359
     22          6           0        0.281137   -1.660376    0.312667
     23          6           0        1.444862   -1.371457   -0.406235
     24          6           0        2.328344   -0.431012    0.121316
     25          6           0        2.094996    0.225417    1.328768
     26          6           0        0.924893   -0.079170    2.030646
     27          1           0       -0.887763   -1.248888    2.079207
     28          1           0       -0.420815   -2.390200   -0.080608
     29          1           0        1.672810   -1.853682   -1.349059
     30          1           0        2.813601    0.948356    1.695353
     31          1           0        0.723698    0.420977    2.973735
     32          7           0        3.563704   -0.116853   -0.630742
     33          8           0        4.326127    0.715553   -0.144482
     34          8           0        3.746163   -0.708969   -1.692224
 ---------------------------------------------------------------------

 SCF Done:  E(RHF) =  -669.533855817     A.U. after   15 cycles
 E2 =    -0.2096045016D+01 EUMP2 =    -0.67162990083266D+03

 The electronic state is 1-A.
 Alpha  occ. eigenvalues --  -20.60850 -20.60845 -15.85907 -11.31318 -11.27897
 Alpha  occ. eigenvalues --  -11.27891 -11.27621 -11.26912 -11.26893 -11.22569
 Alpha  occ. eigenvalues --  -11.22048 -11.21962 -11.21900 -11.21834 -11.21349
 Alpha  occ. eigenvalues --   -1.59926  -1.39478  -1.19508  -1.09124  -1.08817
 Alpha  occ. eigenvalues --   -1.04918  -1.04147  -0.96586  -0.95712  -0.87610
 Alpha  occ. eigenvalues --   -0.86310  -0.82552  -0.80237  -0.78824  -0.77582
 Alpha  occ. eigenvalues --   -0.72124  -0.71251  -0.70639  -0.65881  -0.65146
 Alpha  occ. eigenvalues --   -0.64789  -0.62291  -0.61503  -0.59972  -0.58182
 Alpha  occ. eigenvalues --   -0.55949  -0.55428  -0.53304  -0.53208  -0.53005
 Alpha  occ. eigenvalues --   -0.52956  -0.50568  -0.48893  -0.48875  -0.48540
 Alpha  occ. eigenvalues --   -0.47286  -0.46357  -0.46258  -0.44874  -0.44365
 Alpha  occ. eigenvalues --   -0.37393  -0.36455
 Alpha virt. eigenvalues --    0.04919   0.11004   0.16273   0.18730   0.22984
 Alpha virt. eigenvalues --    0.23427   0.24655   0.25887   0.27434   0.28166
 Alpha virt. eigenvalues --    0.29308   0.29574   0.31126   0.31591   0.32025

 Mulliken charges:
               1
     1  C   -0.303981
     2  C   -0.302418
     3  C   -0.475942
     4  H    0.152957
     5  H    0.152662
     6  H    0.157275
     7  H    0.140084
     8  H    0.147669
     9  H    0.161194
    10  H    0.162790
    11  C   -0.297428
    12  C   -0.300803
    13  C   -0.475608
    14  H    0.149549
    15  H    0.144464
    16  H    0.153017
    17  H    0.156396
    18  H    0.151823
    19  H    0.154636
    20  H    0.163878
    21  C   -0.169799
    22  C   -0.222544
    23  C   -0.172804
    24  C    0.158545
    25  C   -0.170296
    26  C   -0.219572
    27  H    0.230231
    28  H    0.228361
    29  H    0.276645
    30  H    0.276374
    31  H    0.224526
    32  N    0.488061
    33  O   -0.459950
    34  O   -0.459991
 Sum of Mulliken charges =  -0.00000

 Dipole moment (field-independent basis, Debye):
    X=             -4.3220    Y=             -1.0679    Z=              2.5789  Tot=              5.1450
 Quadrupole moment (field-independent basis, Debye-Ang):
   XX=           -114.5191   YY=            -92.9335   ZZ=            -91.9085
   XY=             -0.3529   XZ=              7.2493   YZ=              0.7678

 Normal termination of Gaussian 16 at Thu May  6 12:14:09 2021.
