 Gaussian 16, Revision A.03,
 Gaussian 16:  EM64L-G16RevA.03 25-Dec-2016

 -------------
 #p 6-31g* mp2
 -------------

 ------------------------------------------------------
 Input file generated by CHIRIPA (05-May-2021 14:53:16)
 ------------------------------------------------------
 Symbolic Z-matrix:
 Charge =  0 Multiplicity = 1

                         Standard orientation:
 ---------------------------------------------------------------------
 Center     Atomic      Atomic             Coordinates (Angstroms)
 Number     Number       Type             X           Y           Z
 ---------------------------------------------------------------------
      1          6           0        3.980220    0.385305    0.235500
      2          6           0        3.241925    1.578005   -0.373082
      3          6           0        1.974114    1.944935    0.398806
      4          1           0        3.304002   -0.480020    0.265298
      5          1           0        4.238585    0.616146    1.278263
      6          1           0        2.986247    1.345521   -1.414810
      7          1           0        3.920039    2.440538   -0.401611
      8          1           0        2.215137    2.202970    1.435110
      9          1           0        1.276040    1.101731    0.416155
     10          1           0        1.462086    2.800020   -0.053431
     11          6           0        5.249756    0.006426   -0.525064
     12          6           0        5.988050   -1.186275    0.083518
     13          6           0        7.255861   -1.553205   -0.688370
     14          1           0        4.991390   -0.224415   -1.567827
     15          1           0        5.925973    0.871750   -0.554862
     16          1           0        5.309937   -2.048808    0.112048
     17          1           0        6.243728   -0.953790    1.125246
     18          1           0        7.953935   -0.710001   -0.705719
     19          1           0        7.014838   -1.811240   -1.724674
     20          1           0        7.767889   -2.408289   -0.236133
     21          6           0       -1.453979    0.304754    1.349032
     22          6           0       -2.129373   -0.904578    1.543659
     23          6           0       -3.322254   -1.168948    0.864180
     24          6           0       -3.813457   -0.197276   -0.006373
     25          6           0       -3.163718    1.017157   -0.221512
     26          6           0       -1.972393    1.260078    0.468619
     27          1           0       -0.527925    0.501793    1.881005
     28          1           0       -1.729107   -1.648330    2.226786
     29          1           0       -3.865570   -2.096750    0.996125
     30          1           0       -3.587387    1.739211   -0.908942
     31          1           0       -1.450016    2.200143    0.315506
     32          7           0       -5.075482   -0.465799   -0.731346
     33          8           0       -5.487409    0.406587   -1.492855
     34          8           0       -5.628835   -1.543569   -0.524343
 ---------------------------------------------------------------------

 SCF Done:  E(RHF) =  -669.535271725     A.U. after   15 cycles
 E2 =    -0.2091558861D+01 EUMP2 =    -0.67162683058560D+03

 The electronic state is 1-A.
 Alpha  occ. eigenvalues --  -20.60734 -20.60729 -15.85787 -11.31147 -11.27711
 Alpha  occ. eigenvalues --  -11.27698 -11.27397 -11.26721 -11.26688 -11.22465
 Alpha  occ. eigenvalues --  -11.22261 -11.22134 -11.22099 -11.21946 -11.21472
 Alpha  occ. eigenvalues --   -1.59810  -1.39363  -1.19313  -1.09121  -1.08707
 Alpha  occ. eigenvalues --   -1.04713  -1.04253  -0.96739  -0.95542  -0.87768
 Alpha  occ. eigenvalues --   -0.86102  -0.82377  -0.80338  -0.78902  -0.77425
 Alpha  occ. eigenvalues --   -0.72004  -0.71133  -0.70432  -0.65746  -0.64961
 Alpha  occ. eigenvalues --   -0.64714  -0.62071  -0.61632  -0.60118  -0.58337
 Alpha  occ. eigenvalues --   -0.56065  -0.55199  -0.53458  -0.53187  -0.52976
 Alpha  occ. eigenvalues --   -0.52776  -0.50651  -0.48768  -0.48760  -0.48628
 Alpha  occ. eigenvalues --   -0.47335  -0.46454  -0.46347  -0.44770  -0.44496
 Alpha  occ. eigenvalues --   -0.37268  -0.36315
 Alpha virt. eigenvalues --    0.05072   0.11289   0.16499   0.20538   0.22332
 Alpha virt. eigenvalues --    0.23830   0.25951   0.26004   0.26438   0.27576
 Alpha virt. eigenvalues --    0.29252   0.29654   0.30808   0.31610   0.32217

 Mulliken charges:
               1
     1  C   -0.299247
     2  C   -0.298995
     3  C   -0.485024
     4  H    0.148750
     5  H    0.149235
     6  H    0.155757
     7  H    0.155162
     8  H    0.155146
     9  H    0.154280
    10  H    0.159525
    11  C   -0.298920
    12  C   -0.300102
    13  C   -0.476102
    14  H    0.151397
    15  H    0.151014
    16  H    0.152021
    17  H    0.151923
    18  H    0.155913
    19  H    0.156282
    20  H    0.161470
    21  C   -0.173989
    22  C   -0.219543
    23  C   -0.171195
    24  C    0.158609
    25  C   -0.171629
    26  C   -0.218890
    27  H    0.229616
    28  H    0.223258
    29  H    0.275341
    30  H    0.275416
    31  H    0.226555
    32  N    0.488069
    33  O   -0.460519
    34  O   -0.460582
 Sum of Mulliken charges =  -0.00000

 Dipole moment (field-independent basis, Debye):
    X=              4.6471    Y=              0.9434    Z=              2.5057  Tot=              5.3632
 Quadrupole moment (field-independent basis, Debye-Ang):
   XX=           -129.3026   YY=            -91.0248   ZZ=            -94.3118
   XY=             -3.4916   XZ=             -9.4231   YZ=             -2.6874

 Normal termination of Gaussian 16 at Thu May  6 17:13:30 2021.
