 Gaussian 16, Revision A.03,
 Gaussian 16:  EM64L-G16RevA.03 25-Dec-2016

 -------------
 #p 6-31g* mp2
 -------------

 ------------------------------------------------------
 Input file generated by CHIRIPA (05-May-2021 14:55:21)
 ------------------------------------------------------
 Symbolic Z-matrix:
 Charge =  0 Multiplicity = 1

                         Standard orientation:
 ---------------------------------------------------------------------
 Center     Atomic      Atomic             Coordinates (Angstroms)
 Number     Number       Type             X           Y           Z
 ---------------------------------------------------------------------
      1          6           0       -0.738004    0.345506    1.262247
      2          6           0       -1.042201    1.016752    0.073376
      3          6           0       -2.273351    0.818735   -0.558769
      4          6           0       -3.180920   -0.061605    0.028266
      5          6           0       -2.907203   -0.745083    1.212000
      6          6           0       -1.669834   -0.531722    1.826770
      7          1           0        0.220798    0.505291    1.746564
      8          1           0       -0.320457    1.698605   -0.367314
      9          1           0       -2.534756    1.325419   -1.479831
     10          1           0       -3.646978   -1.418614    1.627340
     11          1           0       -1.436306   -1.054379    2.749992
     12          7           0       -4.487576   -0.279358   -0.631760
     13          8           0       -5.270003   -1.060151   -0.094352
     14          8           0       -4.704564    0.334882   -1.673999
     15          6           0        3.691680   -0.693179    0.037535
     16          6           0        4.551779   -1.684597   -0.746878
     17          6           0        4.332028   -3.133089   -0.309412
     18          1           0        3.914264   -0.791949    1.108817
     19          1           0        2.632666   -0.958269   -0.087412
     20          1           0        5.608783   -1.416889   -0.621612
     21          1           0        4.327260   -1.583322   -1.816434
     22          1           0        3.285975   -3.423676   -0.450601
     23          1           0        4.574780   -3.256298    0.751009
     24          1           0        4.956702   -3.824881   -0.883052
     25          6           0        3.900175    0.759013   -0.388373
     26          6           0        3.040074    1.750432    0.396039
     27          6           0        3.259827    3.198922   -0.041426
     28          1           0        4.959188    1.024102   -0.263426
     29          1           0        3.677589    0.857782   -1.459655
     30          1           0        3.264593    1.649157    1.465595
     31          1           0        1.983071    1.482723    0.270774
     32          1           0        3.017074    3.322131   -1.101848
     33          1           0        4.305878    3.489510    0.099763
     34          1           0        2.635151    3.890715    0.532213
 ---------------------------------------------------------------------

 SCF Done:  E(RHF) =  -669.535217963     A.U. after   15 cycles
 E2 =    -0.2092124210D+01 EUMP2 =    -0.67162734217300D+03

 The electronic state is 1-A.
 Alpha  occ. eigenvalues --  -20.60744 -20.60739 -15.85798 -11.31158 -11.27730
 Alpha  occ. eigenvalues --  -11.27726 -11.27423 -11.26730 -11.26717 -11.22872
 Alpha  occ. eigenvalues --  -11.22331 -11.22260 -11.22198 -11.22119 -11.21610
 Alpha  occ. eigenvalues --   -1.59820  -1.39373  -1.19329  -1.09354  -1.08720
 Alpha  occ. eigenvalues --   -1.04737  -1.04417  -0.96826  -0.95558  -0.87847
 Alpha  occ. eigenvalues --   -0.86139  -0.82392  -0.80535  -0.79154  -0.77443
 Alpha  occ. eigenvalues --   -0.72016  -0.71143  -0.70434  -0.66029  -0.64978
 Alpha  occ. eigenvalues --   -0.64741  -0.62171  -0.61718  -0.60217  -0.58443
 Alpha  occ. eigenvalues --   -0.56097  -0.55225  -0.53528  -0.53243  -0.53061
 Alpha  occ. eigenvalues --   -0.52831  -0.50770  -0.48825  -0.48773  -0.48758
 Alpha  occ. eigenvalues --   -0.47558  -0.46671  -0.46578  -0.44780  -0.44659
 Alpha  occ. eigenvalues --   -0.37296  -0.36339
 Alpha virt. eigenvalues --    0.05082   0.11262   0.16548   0.19731   0.22564
 Alpha virt. eigenvalues --    0.23564   0.25441   0.25483   0.26812   0.27935
 Alpha virt. eigenvalues --    0.29437   0.30101   0.30828   0.31353   0.31540

 Mulliken charges:
               1
     1  C   -0.173485
     2  C   -0.223155
     3  C   -0.170919
     4  C    0.158297
     5  C   -0.170921
     6  C   -0.219034
     7  H    0.230396
     8  H    0.226591
     9  H    0.275473
    10  H    0.275486
    11  H    0.223542
    12  N    0.488044
    13  O   -0.460444
    14  O   -0.460542
    15  C   -0.301029
    16  C   -0.300119
    17  C   -0.476536
    18  H    0.148460
    19  H    0.149174
    20  H    0.153530
    21  H    0.154106
    22  H    0.156392
    23  H    0.154848
    24  H    0.162954
    25  C   -0.297360
    26  C   -0.309065
    27  C   -0.476775
    28  H    0.153588
    29  H    0.152108
    30  H    0.152766
    31  H    0.145315
    32  H    0.156760
    33  H    0.160812
    34  H    0.160741
 Sum of Mulliken charges =  -0.00000

 Dipole moment (field-independent basis, Debye):
    X=              4.8294    Y=              0.7515    Z=              2.2797  Tot=              5.3931
 Quadrupole moment (field-independent basis, Debye-Ang):
   XX=           -122.9840   YY=            -94.1605   ZZ=            -91.8745
   XY=             -1.6632   XZ=             -8.0651   YZ=             -2.5381

 Normal termination of Gaussian 16 at Thu May  6 02:59:46 2021.
