 Gaussian 16, Revision A.03,
 Gaussian 16:  EM64L-G16RevA.03 25-Dec-2016

 -------------
 #p 6-31g* mp2
 -------------

 ------------------------------------------------------
 Input file generated by CHIRIPA (05-May-2021 14:51:09)
 ------------------------------------------------------
 Symbolic Z-matrix:
 Charge =  0 Multiplicity = 1

                         Standard orientation:
 ---------------------------------------------------------------------
 Center     Atomic      Atomic             Coordinates (Angstroms)
 Number     Number       Type             X           Y           Z
 ---------------------------------------------------------------------
      1          6           0        2.426980    0.732476   -0.353993
      2          6           0        3.219025    2.013220   -0.088771
      3          6           0        2.924260    3.112671   -1.109612
      4          1           0        2.658480    0.368346   -1.364321
      5          1           0        1.353107    0.965052   -0.343995
      6          1           0        4.291043    1.778037   -0.097894
      7          1           0        2.985759    2.374238    0.921114
      8          1           0        1.861669    3.375960   -1.096223
      9          1           0        3.174369    2.776372   -2.121021
     10          1           0        3.501043    4.019164   -0.901160
     11          6           0        2.710875   -0.375962    0.658181
     12          6           0        1.918830   -1.656706    0.392959
     13          6           0        2.213595   -2.756158    1.413799
     14          1           0        3.784748   -0.608539    0.648183
     15          1           0        2.479376   -0.011833    1.668509
     16          1           0        2.152096   -2.017724   -0.616927
     17          1           0        0.846812   -1.421524    0.402082
     18          1           0        1.963486   -2.419858    2.425209
     19          1           0        3.276187   -3.019446    1.400410
     20          1           0        1.636813   -3.662651    1.205348
     21          6           0       -3.133498    0.335601   -0.126725
     22          6           0       -2.852382    1.498808    0.825065
     23          6           0       -3.991015    2.518475    0.864888
     24          1           0       -3.309220    0.730764   -1.136632
     25          1           0       -4.063244   -0.163394    0.179821
     26          1           0       -1.922708    1.994604    0.517641
     27          1           0       -2.677118    1.100814    1.832785
     28          1           0       -4.921565    2.044197    1.193124
     29          1           0       -4.162867    2.943067   -0.129492
     30          1           0       -3.769132    3.341428    1.551457
     31          6           0       -2.004358   -0.692114   -0.177462
     32          6           0       -2.285474   -1.855322   -1.129254
     33          6           0       -1.146840   -2.874989   -1.169075
     34          1           0       -1.074611   -0.193119   -0.484009
     35          1           0       -1.828635   -1.087278    0.832444
     36          1           0       -2.460737   -1.457327   -2.136973
     37          1           0       -3.215148   -2.351118   -0.821829
     38          1           0       -0.974988   -3.299580   -0.174696
     39          1           0       -0.216291   -2.400711   -1.497313
     40          1           0       -1.368724   -3.697941   -1.855646
 ---------------------------------------------------------------------

 SCF Done:  E(RHF) =  -470.731054304     A.U. after   11 cycles
 E2 =    -0.1585551940D+01 EUMP2 =    -0.47231660624384D+03

 The electronic state is 1-A.
 Alpha  occ. eigenvalues --  -11.21670 -11.21609 -11.21606 -11.21458 -11.21400
 Alpha  occ. eigenvalues --  -11.21398 -11.21382 -11.21283 -11.21117 -11.21090
 Alpha  occ. eigenvalues --  -11.20994 -11.20950  -1.08514  -1.08366  -1.03616
 Alpha  occ. eigenvalues --   -1.03432  -0.96039  -0.95912  -0.87029  -0.86959
 Alpha  occ. eigenvalues --   -0.79846  -0.79420  -0.78531  -0.77965  -0.65168
 Alpha  occ. eigenvalues --   -0.64975  -0.60959  -0.60910  -0.59535  -0.59195
 Alpha  occ. eigenvalues --   -0.57837  -0.57336  -0.55301  -0.55235  -0.52692
 Alpha  occ. eigenvalues --   -0.52650  -0.52427  -0.52362  -0.49970  -0.49895
 Alpha  occ. eigenvalues --   -0.48323  -0.47609  -0.46703  -0.46668  -0.46352
 Alpha  occ. eigenvalues --   -0.45764  -0.45661  -0.44818  -0.43816  -0.43719
 Alpha virt. eigenvalues --    0.20973   0.22701   0.23509   0.24310   0.25336
 Alpha virt. eigenvalues --    0.25897   0.26620   0.27377   0.28840   0.29862
 Alpha virt. eigenvalues --    0.30461   0.30918   0.31461   0.31923   0.32087

 Mulliken charges:
               1
     1  C   -0.303065
     2  C   -0.299312
     3  C   -0.475628
     4  H    0.148946
     5  H    0.152260
     6  H    0.152252
     7  H    0.152175
     8  H    0.154566
     9  H    0.155099
    10  H    0.160424
    11  C   -0.296976
    12  C   -0.309434
    13  C   -0.476881
    14  H    0.148769
    15  H    0.149122
    16  H    0.150474
    17  H    0.167128
    18  H    0.154287
    19  H    0.154745
    20  H    0.160941
    21  C   -0.297085
    22  C   -0.299937
    23  C   -0.475749
    24  H    0.149940
    25  H    0.149889
    26  H    0.151080
    27  H    0.151884
    28  H    0.155467
    29  H    0.155419
    30  H    0.160390
    31  C   -0.307814
    32  C   -0.298064
    33  C   -0.481893
    34  H    0.156061
    35  H    0.149511
    36  H    0.151799
    37  H    0.151650
    38  H    0.155574
    39  H    0.162571
    40  H    0.159414
 Sum of Mulliken charges =  -0.00000

 Dipole moment (field-independent basis, Debye):
    X=             -0.0338    Y=             -0.0008    Z=             -0.0107  Tot=              0.0355
 Quadrupole moment (field-independent basis, Debye-Ang):
   XX=            -84.7003   YY=            -85.9748   ZZ=            -84.3262
   XY=              0.6443   XZ=             -0.8152   YZ=              0.2976

 Normal termination of Gaussian 16 at Thu May  6 00:32:20 2021.
