 Gaussian 16, Revision A.03,
 Gaussian 16:  EM64L-G16RevA.03 25-Dec-2016

 -------------
 #p 6-31g* mp2
 -------------

 ------------------------------------------------------
 Input file generated by CHIRIPA (05-May-2021 14:51:08)
 ------------------------------------------------------
 Symbolic Z-matrix:
 Charge =  0 Multiplicity = 1

                         Standard orientation:
 ---------------------------------------------------------------------
 Center     Atomic      Atomic             Coordinates (Angstroms)
 Number     Number       Type             X           Y           Z
 ---------------------------------------------------------------------
      1          6           0        2.777590    0.138597    0.222140
      2          6           0        1.948108   -0.025332    1.496138
      3          6           0        0.539870    0.555233    1.363456
      4          1           0        2.841725    1.205657   -0.031266
      5          1           0        2.255667   -0.350002   -0.612284
      6          1           0        2.472110    0.462237    2.328192
      7          1           0        1.886100   -1.092111    1.746646
      8          1           0       -0.005188    0.062236    0.551997
      9          1           0        0.584151    1.625415    1.136847
     10          1           0       -0.035666    0.427230    2.285536
     11          6           0        4.187853   -0.436887    0.339199
     12          6           0        5.017335   -0.272958   -0.934799
     13          6           0        6.425573   -0.853524   -0.802117
     14          1           0        4.709776    0.051712    1.173623
     15          1           0        4.123718   -1.503948    0.592604
     16          1           0        5.079343    0.793821   -1.185308
     17          1           0        4.493333   -0.760527   -1.766853
     18          1           0        6.381292   -1.923705   -0.575508
     19          1           0        6.970631   -0.360526    0.009342
     20          1           0        7.001109   -0.725520   -1.724198
     21          6           0       -3.019243    0.643998   -0.632436
     22          6           0       -2.936156    2.000384    0.068489
     23          6           0       -2.005095    2.979564   -0.647142
     24          1           0       -2.011770    0.211177   -0.700340
     25          1           0       -3.365617    0.793043   -1.664524
     26          1           0       -2.591364    1.848685    1.099373
     27          1           0       -3.943969    2.429940    0.134903
     28          1           0       -2.349193    3.160278   -1.670636
     29          1           0       -0.988903    2.575721   -0.700685
     30          1           0       -1.960563    3.942671   -0.129164
     31          6           0       -3.946201   -0.345708    0.071098
     32          6           0       -4.029287   -1.702095   -0.629828
     33          6           0       -4.960348   -2.681273    0.085804
     34          1           0       -3.599826   -0.494752    1.103185
     35          1           0       -4.953673    0.087113    0.139001
     36          1           0       -3.021474   -2.131649   -0.696242
     37          1           0       -4.374078   -1.550395   -1.660712
     38          1           0       -5.976540   -2.277431    0.139347
     39          1           0       -4.616250   -2.861987    1.109297
     40          1           0       -5.004880   -3.644380   -0.432175
 ---------------------------------------------------------------------

 SCF Done:  E(RHF) =  -470.732736231     A.U. after   11 cycles
 E2 =    -0.1583630864D+01 EUMP2 =    -0.47231636709485D+03

 The electronic state is 1-A.
 Alpha  occ. eigenvalues --  -11.21667 -11.21628 -11.21576 -11.21485 -11.21455
 Alpha  occ. eigenvalues --  -11.21393 -11.21335 -11.21263 -11.21150 -11.21092
 Alpha  occ. eigenvalues --  -11.21052 -11.20946  -1.08485  -1.08358  -1.03600
 Alpha  occ. eigenvalues --   -1.03446  -0.96043  -0.95910  -0.87063  -0.86930
 Alpha  occ. eigenvalues --   -0.79664  -0.79520  -0.78303  -0.78170  -0.65137
 Alpha  occ. eigenvalues --   -0.64986  -0.60989  -0.60882  -0.59416  -0.59276
 Alpha  occ. eigenvalues --   -0.57642  -0.57522  -0.55521  -0.55037  -0.52729
 Alpha  occ. eigenvalues --   -0.52609  -0.52465  -0.52341  -0.50151  -0.49683
 Alpha  occ. eigenvalues --   -0.48082  -0.47768  -0.46697  -0.46542  -0.45923
 Alpha  occ. eigenvalues --   -0.45769  -0.45675  -0.45452  -0.43831  -0.43716
 Alpha virt. eigenvalues --    0.20887   0.22979   0.23839   0.24697   0.25728
 Alpha virt. eigenvalues --    0.26448   0.26716   0.27663   0.27928   0.29364
 Alpha virt. eigenvalues --    0.30809   0.31362   0.31431   0.31858   0.32432

 Mulliken charges:
               1
     1  C   -0.298563
     2  C   -0.300263
     3  C   -0.482092
     4  H    0.149783
     5  H    0.149310
     6  H    0.152242
     7  H    0.151953
     8  H    0.159296
     9  H    0.158852
    10  H    0.160097
    11  C   -0.298277
    12  C   -0.299725
    13  C   -0.475747
    14  H    0.149695
    15  H    0.149730
    16  H    0.152104
    17  H    0.152024
    18  H    0.155203
    19  H    0.155233
    20  H    0.160397
    21  C   -0.302531
    22  C   -0.300063
    23  C   -0.479000
    24  H    0.153674
    25  H    0.149101
    26  H    0.154637
    27  H    0.151298
    28  H    0.154302
    29  H    0.159064
    30  H    0.159136
    31  C   -0.298371
    32  C   -0.299404
    33  C   -0.475649
    34  H    0.149719
    35  H    0.149517
    36  H    0.151064
    37  H    0.151883
    38  H    0.155205
    39  H    0.155133
    40  H    0.160034
 Sum of Mulliken charges =  -0.00000

 Dipole moment (field-independent basis, Debye):
    X=              0.0470    Y=             -0.0015    Z=              0.0214  Tot=              0.0517
 Quadrupole moment (field-independent basis, Debye-Ang):
   XX=            -85.6389   YY=            -84.7525   ZZ=            -84.5453
   XY=             -0.0395   XZ=              0.8254   YZ=              0.4718

 Normal termination of Gaussian 16 at Wed May  5 21:19:28 2021.
