 Gaussian 16, Revision A.03,
 Gaussian 16:  EM64L-G16RevA.03 25-Dec-2016

 -------------
 #p 6-31g* mp2
 -------------

 ------------------------------------------------------
 Input file generated by CHIRIPA (05-May-2021 14:57:24)
 ------------------------------------------------------
 Symbolic Z-matrix:
 Charge =  0 Multiplicity = 1

                         Standard orientation:
 ---------------------------------------------------------------------
 Center     Atomic      Atomic             Coordinates (Angstroms)
 Number     Number       Type             X           Y           Z
 ---------------------------------------------------------------------
      1          6           0       -1.591961   -1.893500    0.179077
      2          6           0       -2.299607   -1.764444   -1.020550
      3          6           0       -3.313952   -0.810744   -1.147468
      4          6           0       -3.595673    0.000985   -0.049735
      5          6           0       -2.908487   -0.103376    1.158642
      6          6           0       -1.898120   -1.064016    1.262933
      7          1           0       -0.805539   -2.637053    0.268881
      8          1           0       -2.063996   -2.407272   -1.863939
      9          1           0       -3.877545   -0.689461   -2.064567
     10          1           0       -3.166075    0.551759    1.981968
     11          1           0       -1.350205   -1.162003    2.195796
     12          7           0       -4.667408    1.014299   -0.172120
     13          8           0       -4.896424    1.717333    0.809680
     14          8           0       -5.258126    1.086312   -1.247529
     15          6           0        2.931287   -2.300098    0.244688
     16          6           0        4.019115   -1.865774   -0.519848
     17          6           0        4.298809   -0.501810   -0.646028
     18          6           0        3.466192    0.404436    0.008767
     19          6           0        2.374918    0.002887    0.777643
     20          6           0        2.114101   -1.366028    0.889854
     21          1           0        2.721346   -3.361581    0.337282
     22          1           0        4.655457   -2.588928   -1.022003
     23          1           0        5.134400   -0.138058   -1.231596
     24          1           0        1.758545    0.747536    1.266523
     25          1           0        1.268591   -1.700447    1.484264
     26          7           0        3.752298    1.851025   -0.117422
     27          8           0        3.003594    2.629360    0.469326
     28          8           0        4.719837    2.179136   -0.800686
 ---------------------------------------------------------------------

 SCF Done:  E(RHF) =  -868.335726211     A.U. after   16 cycles
 E2 =    -0.2601019551D+01 EUMP2 =    -0.87093674576134D+03

 The electronic state is 1-A.
 Alpha  occ. eigenvalues --  -20.61222 -20.61216 -20.61059 -20.61054 -15.86284
 Alpha  occ. eigenvalues --  -15.86122 -11.31829 -11.31657 -11.28460 -11.28403
 Alpha  occ. eigenvalues --  -11.28295 -11.28281 -11.28245 -11.28153 -11.27606
 Alpha  occ. eigenvalues --  -11.27459 -11.27434 -11.27300  -1.60293  -1.60130
 Alpha  occ. eigenvalues --   -1.39842  -1.39679  -1.20042  -1.19876  -1.09425
 Alpha  occ. eigenvalues --   -1.09259  -1.05483  -1.05307  -0.96212  -0.96060
 Alpha  occ. eigenvalues --   -0.86908  -0.86706  -0.83048  -0.82883  -0.78066
 Alpha  occ. eigenvalues --   -0.77868  -0.72500  -0.72340  -0.71619  -0.71454
 Alpha  occ. eigenvalues --   -0.71187  -0.71050  -0.65725  -0.65702  -0.65500
 Alpha  occ. eigenvalues --   -0.65218  -0.62867  -0.62598  -0.56039  -0.55880
 Alpha  occ. eigenvalues --   -0.53839  -0.53671  -0.53490  -0.53397  -0.49274
 Alpha  occ. eigenvalues --   -0.49240  -0.49113  -0.49079  -0.45206  -0.45046
 Alpha  occ. eigenvalues --   -0.38147  -0.37873  -0.37019  -0.36862
 Alpha virt. eigenvalues --    0.04467   0.04689   0.10466   0.10672   0.15824
 Alpha virt. eigenvalues --    0.16223   0.18270   0.22104   0.24859   0.26072
 Alpha virt. eigenvalues --    0.27919   0.29041   0.29893   0.30856   0.32033

 Mulliken charges:
               1
     1  C   -0.166589
     2  C   -0.218168
     3  C   -0.168998
     4  C    0.159375
     5  C   -0.168629
     6  C   -0.223315
     7  H    0.217201
     8  H    0.224579
     9  H    0.278083
    10  H    0.278241
    11  H    0.217138
    12  N    0.488150
    13  O   -0.458372
    14  O   -0.458570
    15  C   -0.173606
    16  C   -0.218101
    17  C   -0.169678
    18  C    0.158928
    19  C   -0.168514
    20  C   -0.218053
    21  H    0.223243
    22  H    0.225360
    23  H    0.278118
    24  H    0.277084
    25  H    0.213573
    26  N    0.488015
    27  O   -0.457983
    28  O   -0.458513
 Sum of Mulliken charges =  -0.00000

 Dipole moment (field-independent basis, Debye):
    X=              2.7428    Y=             -8.4412    Z=              0.7001  Tot=              8.9032
 Quadrupole moment (field-independent basis, Debye-Ang):
   XX=           -135.3187   YY=           -109.8376   ZZ=            -99.3777
   XY=             -5.9270   XZ=             -1.9837   YZ=              2.9208

 Normal termination of Gaussian 16 at Wed May  5 21:06:02 2021.
