 Gaussian 16, Revision A.03,
 Gaussian 16:  EM64L-G16RevA.03 25-Dec-2016

 -------------
 #p 6-31g* mp2
 -------------

 ------------------------------------------------------
 Input file generated by CHIRIPA (05-May-2021 14:53:14)
 ------------------------------------------------------
 Symbolic Z-matrix:
 Charge =  0 Multiplicity = 1

                         Standard orientation:
 ---------------------------------------------------------------------
 Center     Atomic      Atomic             Coordinates (Angstroms)
 Number     Number       Type             X           Y           Z
 ---------------------------------------------------------------------
      1          6           0       -3.247573    0.806445   -0.302429
      2          6           0       -2.187308    1.821804   -0.730062
      3          6           0       -2.788752    3.058974   -1.397497
      4          1           0       -3.831381    0.502921   -1.182194
      5          1           0       -3.951786    1.290901    0.388064
      6          1           0       -1.484505    1.335195   -1.418462
      7          1           0       -1.605832    2.122802    0.150791
      8          1           0       -3.474997    3.569960   -0.714443
      9          1           0       -3.352981    2.777878   -2.292613
     10          1           0       -2.013212    3.771561   -1.695183
     11          6           0       -2.661808   -0.435857    0.366370
     12          6           0       -3.722073   -1.451216    0.794002
     13          6           0       -3.120629   -2.688386    1.461438
     14          1           0       -1.957595   -0.920313   -0.324124
     15          1           0       -2.078000   -0.132333    1.246135
     16          1           0       -4.303549   -1.752214   -0.086850
     17          1           0       -4.424876   -0.964607    1.482403
     18          1           0       -2.556400   -2.407290    2.356553
     19          1           0       -2.434384   -3.199372    0.778384
     20          1           0       -3.896169   -3.400973    1.759123
     21          6           0        2.881894    1.401474    1.884507
     22          6           0        1.546693    1.075774    1.624357
     23          6           0        1.217248    0.220052    0.569012
     24          6           0        2.252904   -0.294245   -0.209579
     25          6           0        3.592712    0.011434    0.024438
     26          6           0        3.898850    0.869203    1.085127
     27          1           0        3.128763    2.067015    2.706399
     28          1           0        0.754836    1.487663    2.243516
     29          1           0        0.191975   -0.048704    0.345398
     30          1           0        4.360206   -0.414768   -0.610167
     31          1           0        4.936664    1.120404    1.284834
     32          7           0        1.916473   -1.201244   -1.329653
     33          8           0        2.847349   -1.641161   -2.000905
     34          8           0        0.728271   -1.455058   -1.515107
 ---------------------------------------------------------------------

 SCF Done:  E(RHF) =  -669.535551168     A.U. after   15 cycles
 E2 =    -0.2093826169D+01 EUMP2 =    -0.67162937733692D+03

 The electronic state is 1-A.
 Alpha  occ. eigenvalues --  -20.60839 -20.60827 -15.85870 -11.31101 -11.27711
 Alpha  occ. eigenvalues --  -11.27564 -11.27448 -11.26702 -11.26671 -11.21801
 Alpha  occ. eigenvalues --  -11.21597 -11.21513 -11.21456 -11.21196 -11.20943
 Alpha  occ. eigenvalues --   -1.59898  -1.39456  -1.19291  -1.08717  -1.08552
 Alpha  occ. eigenvalues --   -1.04678  -1.03590  -0.96041  -0.95563  -0.87053
 Alpha  occ. eigenvalues --   -0.86092  -0.82406  -0.79680  -0.78556  -0.77357
 Alpha  occ. eigenvalues --   -0.72096  -0.71209  -0.70406  -0.65199  -0.64910
 Alpha  occ. eigenvalues --   -0.64689  -0.62047  -0.60972  -0.59411  -0.57663
 Alpha  occ. eigenvalues --   -0.55304  -0.55208  -0.53029  -0.52895  -0.52659
 Alpha  occ. eigenvalues --   -0.52407  -0.49968  -0.48873  -0.48839  -0.47996
 Alpha  occ. eigenvalues --   -0.46696  -0.45913  -0.45702  -0.44879  -0.43860
 Alpha  occ. eigenvalues --   -0.37287  -0.36264
 Alpha virt. eigenvalues --    0.05040   0.11340   0.16513   0.20328   0.23048
 Alpha virt. eigenvalues --    0.24295   0.24898   0.26135   0.27874   0.28159
 Alpha virt. eigenvalues --    0.30483   0.30954   0.31646   0.31819   0.31868

 Mulliken charges:
               1
     1  C   -0.295160
     2  C   -0.306973
     3  C   -0.475368
     4  H    0.154648
     5  H    0.147780
     6  H    0.163131
     7  H    0.140848
     8  H    0.153970
     9  H    0.158719
    10  H    0.160444
    11  C   -0.320923
    12  C   -0.296643
    13  C   -0.478036
    14  H    0.176980
    15  H    0.135452
    16  H    0.155779
    17  H    0.149849
    18  H    0.150776
    19  H    0.163973
    20  H    0.160450
    21  C   -0.169930
    22  C   -0.226958
    23  C   -0.176093
    24  C    0.153284
    25  C   -0.169333
    26  C   -0.219840
    27  H    0.225305
    28  H    0.223274
    29  H    0.298482
    30  H    0.275158
    31  H    0.223084
    32  N    0.490028
    33  O   -0.459511
    34  O   -0.466647
 Sum of Mulliken charges =  -0.00000

 Dipole moment (field-independent basis, Debye):
    X=              1.1030    Y=              3.0633    Z=              3.7367  Tot=              4.9562
 Quadrupole moment (field-independent basis, Debye-Ang):
   XX=            -84.5553   YY=            -97.9827   ZZ=            -96.3334
   XY=              6.9799   XZ=              7.8318   YZ=             -0.7901

 Normal termination of Gaussian 16 at Thu May  6 15:27:54 2021.
