 Gaussian 16, Revision A.03,
 Gaussian 16:  EM64L-G16RevA.03 25-Dec-2016

 -------------
 #p 6-31g* mp2
 -------------

 ------------------------------------------------------
 Input file generated by CHIRIPA (05-May-2021 14:55:22)
 ------------------------------------------------------
 Symbolic Z-matrix:
 Charge =  0 Multiplicity = 1

                         Standard orientation:
 ---------------------------------------------------------------------
 Center     Atomic      Atomic             Coordinates (Angstroms)
 Number     Number       Type             X           Y           Z
 ---------------------------------------------------------------------
      1          6           0        0.726819   -1.261450   -0.156445
      2          6           0        1.833526   -2.076160    0.104260
      3          6           0        3.118171   -1.528665    0.171215
      4          6           0        3.260325   -0.156355   -0.028401
      5          6           0        2.177387    0.681580   -0.289933
      6          6           0        0.901972    0.112398   -0.352364
      7          1           0       -0.267539   -1.695181   -0.206700
      8          1           0        1.700492   -3.143433    0.256822
      9          1           0        3.992331   -2.136252    0.371468
     10          1           0        2.341534    1.742068   -0.437710
     11          1           0        0.044311    0.747537   -0.554996
     12          7           0        4.615436    0.434734    0.040087
     13          8           0        4.714051    1.646630   -0.139409
     14          8           0        5.553296   -0.325060    0.271967
     15          6           0       -3.704063   -0.415886    0.085163
     16          6           0       -4.905021   -1.346356   -0.087775
     17          6           0       -4.522328   -2.824964   -0.016639
     18          1           0       -2.959183   -0.641036   -0.690341
     19          1           0       -3.223048   -0.625052    1.050705
     20          1           0       -5.384449   -1.134549   -1.052089
     21          1           0       -5.647211   -1.118836    0.688115
     22          1           0       -4.063773   -3.058147    0.949773
     23          1           0       -3.799517   -3.073950   -0.800317
     24          1           0       -5.395822   -3.472249   -0.142688
     25          6           0       -4.070624    1.065545    0.016438
     26          6           0       -2.869666    1.996016    0.189377
     27          6           0       -3.252358    3.474622    0.118241
     28          1           0       -4.551637    1.274711   -0.949103
     29          1           0       -4.815504    1.290695    0.791943
     30          1           0       -2.127475    1.768494   -0.586513
     31          1           0       -2.390238    1.784207    1.153691
     32          1           0       -3.975170    3.723609    0.901919
     33          1           0       -3.710913    3.707807   -0.848173
     34          1           0       -2.378864    4.121908    0.244290
 ---------------------------------------------------------------------

 SCF Done:  E(RHF) =  -669.535709719     A.U. after   15 cycles
 E2 =    -0.2091687613D+01 EUMP2 =    -0.67162739733196D+03

 The electronic state is 1-A.
 Alpha  occ. eigenvalues --  -20.60688 -20.60683 -15.85740 -11.31081 -11.27650
 Alpha  occ. eigenvalues --  -11.27635 -11.27353 -11.26658 -11.26594 -11.22740
 Alpha  occ. eigenvalues --  -11.22586 -11.22523 -11.22384 -11.22013 -11.21905
 Alpha  occ. eigenvalues --   -1.59764  -1.39318  -1.19246  -1.09488  -1.08641
 Alpha  occ. eigenvalues --   -1.04649  -1.04517  -0.96947  -0.95483  -0.87962
 Alpha  occ. eigenvalues --   -0.86046  -0.82319  -0.80603  -0.79347  -0.77368
 Alpha  occ. eigenvalues --   -0.71959  -0.71087  -0.70346  -0.66121  -0.64894
 Alpha  occ. eigenvalues --   -0.64650  -0.62067  -0.61847  -0.60315  -0.58576
 Alpha  occ. eigenvalues --   -0.56227  -0.55136  -0.53621  -0.53375  -0.52979
 Alpha  occ. eigenvalues --   -0.52748  -0.50879  -0.48918  -0.48716  -0.48689
 Alpha  occ. eigenvalues --   -0.47624  -0.46852  -0.46765  -0.44786  -0.44729
 Alpha  occ. eigenvalues --   -0.37222  -0.36252
 Alpha virt. eigenvalues --    0.05159   0.11388   0.16656   0.19139   0.22441
 Alpha virt. eigenvalues --    0.22707   0.24900   0.25939   0.27018   0.27072
 Alpha virt. eigenvalues --    0.29387   0.30367   0.30701   0.31311   0.31776

 Mulliken charges:
               1
     1  C   -0.176584
     2  C   -0.218810
     3  C   -0.171323
     4  C    0.158762
     5  C   -0.173590
     6  C   -0.225760
     7  H    0.229391
     8  H    0.223092
     9  H    0.275085
    10  H    0.275521
    11  H    0.234500
    12  N    0.488050
    13  O   -0.460733
    14  O   -0.460844
    15  C   -0.302324
    16  C   -0.299815
    17  C   -0.477176
    18  H    0.142597
    19  H    0.150345
    20  H    0.154982
    21  H    0.155882
    22  H    0.155035
    23  H    0.151980
    24  H    0.164989
    25  C   -0.297874
    26  C   -0.307163
    27  C   -0.475599
    28  H    0.152826
    29  H    0.154512
    30  H    0.145740
    31  H    0.154956
    32  H    0.159099
    33  H    0.157753
    34  H    0.162500
 Sum of Mulliken charges =  -0.00000

 Dipole moment (field-independent basis, Debye):
    X=             -5.1181    Y=             -2.0034    Z=             -0.1837  Tot=              5.4993
 Quadrupole moment (field-independent basis, Debye-Ang):
   XX=           -124.4509   YY=            -90.8978   ZZ=            -94.4006
   XY=             -8.1573   XZ=             -0.5409   YZ=             -0.8101

 Normal termination of Gaussian 16 at Thu May  6 10:56:22 2021.
