 Gaussian 16, Revision A.03,
 Gaussian 16:  EM64L-G16RevA.03 25-Dec-2016

 -------------
 #p 6-31g* mp2
 -------------

 ------------------------------------------------------
 Input file generated by CHIRIPA (05-May-2021 14:51:14)
 ------------------------------------------------------
 Symbolic Z-matrix:
 Charge =  0 Multiplicity = 1

                         Standard orientation:
 ---------------------------------------------------------------------
 Center     Atomic      Atomic             Coordinates (Angstroms)
 Number     Number       Type             X           Y           Z
 ---------------------------------------------------------------------
      1          6           0       -3.381243    0.693594    0.302563
      2          6           0       -2.239310    1.432867   -0.395612
      3          6           0       -1.978186    2.816039    0.201415
      4          1           0       -4.295011    1.300220    0.239485
      5          1           0       -3.145225    0.594152    1.371114
      6          1           0       -2.476779    1.529664   -1.462784
      7          1           0       -1.328201    0.824323   -0.331032
      8          1           0       -1.716265    2.734941    1.261331
      9          1           0       -2.871370    3.444290    0.123149
     10          1           0       -1.158000    3.326858   -0.312608
     11          6           0       -3.654300   -0.690687   -0.283046
     12          6           0       -4.796233   -1.429960    0.415129
     13          6           0       -5.057357   -2.813132   -0.181898
     14          1           0       -3.890318   -0.591245   -1.351597
     15          1           0       -2.740532   -1.297313   -0.219968
     16          1           0       -5.707342   -0.821416    0.350549
     17          1           0       -4.558764   -1.526757    1.482301
     18          1           0       -4.164173   -3.441383   -0.103632
     19          1           0       -5.319278   -2.732034   -1.241814
     20          1           0       -5.877543   -3.323951    0.332125
     21          6           0        2.866119    0.372264   -0.148016
     22          6           0        2.962529    1.875935    0.112105
     23          6           0        1.650946    2.609784   -0.168984
     24          1           0        2.567519    0.205608   -1.192051
     25          1           0        2.067192   -0.050402    0.476857
     26          1           0        3.761960    2.295402   -0.512052
     27          1           0        3.261119    2.039028    1.155590
     28          1           0        0.847502    2.218770    0.463620
     29          1           0        1.351190    2.476600   -1.213497
     30          1           0        1.742336    3.683310    0.023502
     31          6           0        4.169425   -0.375171    0.128499
     32          6           0        4.073014   -1.878842   -0.131623
     33          6           0        5.384597   -2.612690    0.149466
     34          1           0        4.968350    0.047495   -0.496374
     35          1           0        4.468024   -0.208514    1.172534
     36          1           0        3.774424   -2.041935   -1.175107
     37          1           0        3.273582   -2.298309    0.492535
     38          1           0        5.684354   -2.479507    1.193981
     39          1           0        6.188041   -2.221676   -0.483138
     40          1           0        5.293207   -3.686216   -0.043019
 ---------------------------------------------------------------------

 SCF Done:  E(RHF) =  -470.732226279     A.U. after   11 cycles
 E2 =    -0.1583310770D+01 EUMP2 =    -0.47231553704882D+03

 The electronic state is 1-A.
 Alpha  occ. eigenvalues --  -11.21616 -11.21581 -11.21580 -11.21527 -11.21420
 Alpha  occ. eigenvalues --  -11.21369 -11.21361 -11.21308 -11.21082 -11.21056
 Alpha  occ. eigenvalues --  -11.21007 -11.20913  -1.08444  -1.08384  -1.03576
 Alpha  occ. eigenvalues --   -1.03441  -0.96080  -0.95842  -0.87122  -0.86836
 Alpha  occ. eigenvalues --   -0.79631  -0.79518  -0.78265  -0.78193  -0.65106
 Alpha  occ. eigenvalues --   -0.64997  -0.61076  -0.60776  -0.59373  -0.59319
 Alpha  occ. eigenvalues --   -0.57766  -0.57374  -0.55449  -0.55054  -0.52941
 Alpha  occ. eigenvalues --   -0.52561  -0.52441  -0.52059  -0.50032  -0.49741
 Alpha  occ. eigenvalues --   -0.47912  -0.47818  -0.46625  -0.46577  -0.45833
 Alpha  occ. eigenvalues --   -0.45738  -0.45711  -0.45621  -0.43874  -0.43628
 Alpha virt. eigenvalues --    0.21696   0.23086   0.23547   0.24905   0.26168
 Alpha virt. eigenvalues --    0.26708   0.27140   0.27194   0.27897   0.29328
 Alpha virt. eigenvalues --    0.29488   0.31302   0.31638   0.31731   0.32449

 Mulliken charges:
               1
     1  C   -0.297877
     2  C   -0.302198
     3  C   -0.481666
     4  H    0.149663
     5  H    0.148914
     6  H    0.151599
     7  H    0.153677
     8  H    0.152872
     9  H    0.154780
    10  H    0.169901
    11  C   -0.298216
    12  C   -0.299590
    13  C   -0.475674
    14  H    0.149478
    15  H    0.149525
    16  H    0.151928
    17  H    0.151746
    18  H    0.155120
    19  H    0.155164
    20  H    0.160156
    21  C   -0.298454
    22  C   -0.300807
    23  C   -0.480733
    24  H    0.149813
    25  H    0.148686
    26  H    0.151575
    27  H    0.151703
    28  H    0.164293
    29  H    0.154695
    30  H    0.159692
    31  C   -0.298214
    32  C   -0.299619
    33  C   -0.475713
    34  H    0.149718
    35  H    0.149647
    36  H    0.152025
    37  H    0.151678
    38  H    0.155178
    39  H    0.155253
    40  H    0.160280
 Sum of Mulliken charges =  -0.00000

 Dipole moment (field-independent basis, Debye):
    X=              0.0207    Y=              0.0235    Z=             -0.0105  Tot=              0.0331
 Quadrupole moment (field-independent basis, Debye-Ang):
   XX=            -85.3210   YY=            -86.0599   ZZ=            -83.5362
   XY=              0.0421   XZ=             -0.0397   YZ=             -0.6641

 Normal termination of Gaussian 16 at Wed May  5 16:54:20 2021.
