 Gaussian 16, Revision A.03,
 Gaussian 16:  EM64L-G16RevA.03 25-Dec-2016

 -------------
 #p 6-31g* mp2
 -------------

 ------------------------------------------------------
 Input file generated by CHIRIPA (05-May-2021 14:53:16)
 ------------------------------------------------------
 Symbolic Z-matrix:
 Charge =  0 Multiplicity = 1

                         Standard orientation:
 ---------------------------------------------------------------------
 Center     Atomic      Atomic             Coordinates (Angstroms)
 Number     Number       Type             X           Y           Z
 ---------------------------------------------------------------------
      1          6           0       -2.746208   -0.542862   -0.327469
      2          6           0       -3.744460   -1.605484    0.133306
      3          6           0       -3.506152   -2.965121   -0.524258
      4          1           0       -2.808284   -0.439562   -1.419449
      5          1           0       -1.726639   -0.885895   -0.103413
      6          1           0       -4.761914   -1.259937   -0.090298
      7          1           0       -3.680136   -1.706130    1.224338
      8          1           0       -2.502615   -3.335319   -0.290873
      9          1           0       -3.590540   -2.886590   -1.612978
     10          1           0       -4.230886   -3.709801   -0.180641
     11          6           0       -2.971543    0.821792    0.321122
     12          6           0       -1.973291    1.884414   -0.139654
     13          6           0       -2.211599    3.244051    0.517910
     14          1           0       -3.991112    1.164825    0.097065
     15          1           0       -2.909467    0.718492    1.413102
     16          1           0       -2.037615    1.985060   -1.230685
     17          1           0       -0.955836    1.538867    0.083951
     18          1           0       -2.127211    3.165520    1.606631
     19          1           0       -3.215136    3.614249    0.284526
     20          1           0       -1.486865    3.988730    0.174293
     21          6           0        2.517745   -2.554703    0.553346
     22          6           0        2.587411   -2.123787   -0.775556
     23          6           0        2.431384   -0.771090   -1.092437
     24          6           0        2.206017    0.127489   -0.050776
     25          6           0        2.131386   -0.270923    1.283011
     26          6           0        2.290356   -1.628528    1.576584
     27          1           0        2.640093   -3.607417    0.790454
     28          1           0        2.763893   -2.840829   -1.572267
     29          1           0        2.480711   -0.410207   -2.112607
     30          1           0        1.954305    0.467437    2.055594
     31          1           0        2.235770   -1.960323    2.609530
     32          7           0        2.039281    1.562127   -0.373906
     33          8           0        1.841706    2.333871    0.562049
     34          8           0        2.109324    1.887687   -1.557013
 ---------------------------------------------------------------------

 SCF Done:  E(RHF) =  -669.535993030     A.U. after   15 cycles
 E2 =    -0.2092233325D+01 EUMP2 =    -0.67162822635560D+03

 The electronic state is 1-A.
 Alpha  occ. eigenvalues --  -20.60892 -20.60886 -15.85916 -11.31281 -11.27847
 Alpha  occ. eigenvalues --  -11.27832 -11.27577 -11.26853 -11.26839 -11.21548
 Alpha  occ. eigenvalues --  -11.21188 -11.21148 -11.20990 -11.20894 -11.20191
 Alpha  occ. eigenvalues --   -1.59953  -1.39507  -1.19446  -1.08844  -1.08115
 Alpha  occ. eigenvalues --   -1.04843  -1.03147  -0.95682  -0.95602  -0.86628
 Alpha  occ. eigenvalues --   -0.86242  -0.82511  -0.79254  -0.77900  -0.77561
 Alpha  occ. eigenvalues --   -0.72144  -0.71283  -0.70549  -0.65099  -0.64844
 Alpha  occ. eigenvalues --   -0.64751  -0.62189  -0.60549  -0.59004  -0.57177
 Alpha  occ. eigenvalues --   -0.55344  -0.54913  -0.53175  -0.52934  -0.52270
 Alpha  occ. eigenvalues --   -0.52033  -0.49581  -0.48905  -0.48904  -0.47552
 Alpha  occ. eigenvalues --   -0.46325  -0.45482  -0.45407  -0.44759  -0.43402
 Alpha  occ. eigenvalues --   -0.37421  -0.36443
 Alpha virt. eigenvalues --    0.04963   0.11188   0.16424   0.21341   0.23053
 Alpha virt. eigenvalues --    0.24662   0.26675   0.27277   0.27567   0.28238
 Alpha virt. eigenvalues --    0.28408   0.30754   0.31644   0.31970   0.32534

 Mulliken charges:
               1
     1  C   -0.298461
     2  C   -0.298861
     3  C   -0.475097
     4  H    0.149902
     5  H    0.147176
     6  H    0.152704
     7  H    0.150219
     8  H    0.151718
     9  H    0.155340
    10  H    0.159309
    11  C   -0.298024
    12  C   -0.299689
    13  C   -0.474546
    14  H    0.148676
    15  H    0.146805
    16  H    0.153407
    17  H    0.151017
    18  H    0.152273
    19  H    0.149867
    20  H    0.172318
    21  C   -0.170840
    22  C   -0.218479
    23  C   -0.170397
    24  C    0.156727
    25  C   -0.172375
    26  C   -0.218689
    27  H    0.226052
    28  H    0.224007
    29  H    0.276085
    30  H    0.275976
    31  H    0.223795
    32  N    0.489186
    33  O   -0.459026
    34  O   -0.458073
 Sum of Mulliken charges =  -0.00000

 Dipole moment (field-independent basis, Debye):
    X=              0.7377    Y=             -4.9389    Z=              1.0879  Tot=              5.1108
 Quadrupole moment (field-independent basis, Debye-Ang):
   XX=            -92.9023   YY=            -97.2065   ZZ=            -89.7270
   XY=            -11.6197   XZ=              2.3867   YZ=              0.8399

 Normal termination of Gaussian 16 at Thu May  6 05:57:15 2021.
