 Gaussian 16, Revision A.03,
 Gaussian 16:  EM64L-G16RevA.03 25-Dec-2016

 -------------
 #p 6-31g* mp2
 -------------

 ------------------------------------------------------
 Input file generated by CHIRIPA (05-May-2021 14:51:09)
 ------------------------------------------------------
 Symbolic Z-matrix:
 Charge =  0 Multiplicity = 1

                         Standard orientation:
 ---------------------------------------------------------------------
 Center     Atomic      Atomic             Coordinates (Angstroms)
 Number     Number       Type             X           Y           Z
 ---------------------------------------------------------------------
      1          6           0       -2.734787   -1.021477    0.423399
      2          6           0       -1.478245   -1.616635   -0.212899
      3          6           0       -0.920772   -2.801827    0.575984
      4          1           0       -2.503503   -0.704525    1.449554
      5          1           0       -3.502469   -1.803567    0.503354
      6          1           0       -0.713641   -0.833311   -0.292897
      7          1           0       -1.712497   -1.932031   -1.237725
      8          1           0       -1.664012   -3.602760    0.644559
      9          1           0       -0.659480   -2.497796    1.594755
     10          1           0       -0.022755   -3.211876    0.103453
     11          6           0       -3.303917    0.164216   -0.353743
     12          6           0       -4.560458    0.759374    0.282555
     13          6           0       -5.117931    1.944566   -0.506329
     14          1           0       -2.536234    0.946307   -0.433698
     15          1           0       -3.535200   -0.152735   -1.379899
     16          1           0       -4.326206    1.074771    1.307381
     17          1           0       -5.325063   -0.023950    0.362553
     18          1           0       -5.379223    1.640536   -1.525099
     19          1           0       -4.374691    2.745499   -0.574903
     20          1           0       -6.015948    2.354615   -0.033797
     21          6           0        2.708809    1.060214    0.261985
     22          6           0        3.404594    2.346063   -0.185744
     23          6           0        2.771924    3.601030    0.416400
     24          1           0        1.647680    1.108276   -0.018443
     25          1           0        2.739779    0.997526    1.358573
     26          1           0        3.373537    2.405621   -1.281237
     27          1           0        4.464232    2.294851    0.095613
     28          1           0        2.816391    3.568171    1.509810
     29          1           0        1.719500    3.679571    0.125137
     30          1           0        3.284814    4.508626    0.083123
     31          6           0        3.329894   -0.202953   -0.331641
     32          6           0        2.634109   -1.488802    0.116089
     33          6           0        3.266778   -2.743770   -0.486056
     34          1           0        3.298924   -0.140266   -1.428229
     35          1           0        4.391023   -0.251016   -0.051212
     36          1           0        1.574471   -1.437591   -0.165268
     37          1           0        2.665167   -1.548360    1.211581
     38          1           0        4.319204   -2.822310   -0.194792
     39          1           0        3.222312   -2.710910   -1.579465
     40          1           0        2.753889   -3.651366   -0.152779
 ---------------------------------------------------------------------

 SCF Done:  E(RHF) =  -470.732303971     A.U. after   11 cycles
 E2 =    -0.1584093169D+01 EUMP2 =    -0.47231639714030D+03

 The electronic state is 1-A.
 Alpha  occ. eigenvalues --  -11.21636 -11.21618 -11.21618 -11.21492 -11.21431
 Alpha  occ. eigenvalues --  -11.21414 -11.21371 -11.21335 -11.21094 -11.21085
 Alpha  occ. eigenvalues --  -11.21063 -11.21038  -1.08478  -1.08405  -1.03615
 Alpha  occ. eigenvalues --   -1.03467  -0.96046  -0.95936  -0.87013  -0.86995
 Alpha  occ. eigenvalues --   -0.79624  -0.79590  -0.78330  -0.78192  -0.65213
 Alpha  occ. eigenvalues --   -0.64963  -0.61150  -0.60808  -0.59617  -0.59129
 Alpha  occ. eigenvalues --   -0.57791  -0.57373  -0.55312  -0.55233  -0.52769
 Alpha  occ. eigenvalues --   -0.52604  -0.52434  -0.52357  -0.49934  -0.49918
 Alpha  occ. eigenvalues --   -0.47951  -0.47876  -0.46819  -0.46511  -0.45987
 Alpha  occ. eigenvalues --   -0.45787  -0.45738  -0.45371  -0.43801  -0.43778
 Alpha virt. eigenvalues --    0.20978   0.23019   0.23325   0.24428   0.25497
 Alpha virt. eigenvalues --    0.26695   0.26836   0.27269   0.28249   0.29274
 Alpha virt. eigenvalues --    0.30672   0.31052   0.31520   0.31896   0.32446

 Mulliken charges:
               1
     1  C   -0.297645
     2  C   -0.305905
     3  C   -0.480107
     4  H    0.150087
     5  H    0.149789
     6  H    0.155194
     7  H    0.151987
     8  H    0.155637
     9  H    0.156274
    10  H    0.164552
    11  C   -0.298331
    12  C   -0.299693
    13  C   -0.475729
    14  H    0.149092
    15  H    0.149624
    16  H    0.152136
    17  H    0.152026
    18  H    0.155153
    19  H    0.155167
    20  H    0.160375
    21  C   -0.299891
    22  C   -0.299603
    23  C   -0.475668
    24  H    0.149693
    25  H    0.149468
    26  H    0.152089
    27  H    0.152244
    28  H    0.155140
    29  H    0.154811
    30  H    0.160416
    31  C   -0.297289
    32  C   -0.309481
    33  C   -0.477527
    34  H    0.149151
    35  H    0.149354
    36  H    0.164904
    37  H    0.151347
    38  H    0.155436
    39  H    0.154951
    40  H    0.160770
 Sum of Mulliken charges =  -0.00000

 Dipole moment (field-independent basis, Debye):
    X=             -0.0177    Y=             -0.0116    Z=              0.0073  Tot=              0.0224
 Quadrupole moment (field-independent basis, Debye-Ang):
   XX=            -84.5010   YY=            -86.1463   ZZ=            -84.1730
   XY=              1.1461   XZ=              0.7219   YZ=              0.3448

 Normal termination of Gaussian 16 at Thu May  6 00:33:23 2021.
