 Gaussian 16, Revision A.03,
 Gaussian 16:  EM64L-G16RevA.03 25-Dec-2016

 -------------
 #p 6-31g* mp2
 -------------

 ------------------------------------------------------
 Input file generated by CHIRIPA (05-May-2021 14:55:25)
 ------------------------------------------------------
 Symbolic Z-matrix:
 Charge =  0 Multiplicity = 1

                         Standard orientation:
 ---------------------------------------------------------------------
 Center     Atomic      Atomic             Coordinates (Angstroms)
 Number     Number       Type             X           Y           Z
 ---------------------------------------------------------------------
      1          6           0       -0.077016   -2.048023    0.517042
      2          6           0       -0.919600   -2.334140   -0.562175
      3          6           0       -2.064258   -1.565232   -0.792582
      4          6           0       -2.337277   -0.512930    0.080006
      5          6           0       -1.517332   -0.202931    1.163926
      6          6           0       -0.378041   -0.985205    1.375135
      7          1           0        0.810097   -2.650520    0.688572
      8          1           0       -0.688308   -3.158927   -1.230214
      9          1           0       -2.733802   -1.764734   -1.620427
     10          1           0       -1.774111    0.625698    1.812660
     11          1           0        0.274513   -0.760697    2.214072
     12          7           0       -3.546234    0.308154   -0.153754
     13          8           0       -3.764631    1.229796    0.629518
     14          8           0       -4.252526    0.014529   -1.115821
     15          6           0        2.859280    0.099283    0.034815
     16          6           0        4.222584   -0.422234   -0.420605
     17          6           0        4.453111   -1.885071   -0.040132
     18          1           0        2.775199   -0.015364    1.124187
     19          1           0        2.069714   -0.524261   -0.406970
     20          1           0        5.009297    0.202956    0.020797
     21          1           0        4.303506   -0.306156   -1.508995
     22          1           0        3.689423   -2.525796   -0.492740
     23          1           0        4.399224   -2.013792    1.045744
     24          1           0        5.433643   -2.237339   -0.375281
     25          6           0        2.614066    1.560247   -0.338257
     26          6           0        1.250762    2.081765    0.117162
     27          6           0        1.020235    3.544602   -0.263310
     28          1           0        3.403633    2.183790    0.103526
     29          1           0        2.698148    1.674894   -1.427629
     30          1           0        1.169840    1.965686    1.205552
     31          1           0        0.464049    1.456574   -0.324240
     32          1           0        1.074122    3.673322   -1.349186
     33          1           0        1.783924    4.185326    0.189298
     34          1           0        0.039703    3.896869    0.071839
 ---------------------------------------------------------------------

 SCF Done:  E(RHF) =  -669.532940273     A.U. after   15 cycles
 E2 =    -0.2095818230D+01 EUMP2 =    -0.67162875850383D+03

 The electronic state is 1-A.
 Alpha  occ. eigenvalues --  -20.60782 -20.60776 -15.85837 -11.31198 -11.27779
 Alpha  occ. eigenvalues --  -11.27728 -11.27459 -11.26787 -11.26698 -11.22255
 Alpha  occ. eigenvalues --  -11.21973 -11.21965 -11.21856 -11.21777 -11.21160
 Alpha  occ. eigenvalues --   -1.59858  -1.39412  -1.19384  -1.08996  -1.08735
 Alpha  occ. eigenvalues --   -1.04780  -1.04020  -0.96489  -0.95604  -0.87500
 Alpha  occ. eigenvalues --   -0.86172  -0.82439  -0.80109  -0.78819  -0.77463
 Alpha  occ. eigenvalues --   -0.72053  -0.71185  -0.70474  -0.65606  -0.65020
 Alpha  occ. eigenvalues --   -0.64765  -0.62119  -0.61423  -0.59878  -0.58098
 Alpha  occ. eigenvalues --   -0.55798  -0.55262  -0.53422  -0.52981  -0.52913
 Alpha  occ. eigenvalues --   -0.52850  -0.50442  -0.48813  -0.48808  -0.48445
 Alpha  occ. eigenvalues --   -0.47166  -0.46310  -0.46121  -0.44816  -0.44260
 Alpha  occ. eigenvalues --   -0.37245  -0.36260
 Alpha virt. eigenvalues --    0.05016   0.11170   0.16363   0.19866   0.22888
 Alpha virt. eigenvalues --    0.23113   0.24818   0.26428   0.27262   0.28415
 Alpha virt. eigenvalues --    0.29215   0.30746   0.31170   0.31455   0.32012

 Mulliken charges:
               1
     1  C   -0.174456
     2  C   -0.220533
     3  C   -0.171477
     4  C    0.158090
     5  C   -0.171337
     6  C   -0.210212
     7  H    0.229590
     8  H    0.223379
     9  H    0.275578
    10  H    0.275502
    11  H    0.224135
    12  N    0.488145
    13  O   -0.460551
    14  O   -0.460524
    15  C   -0.303911
    16  C   -0.298945
    17  C   -0.476850
    18  H    0.139589
    19  H    0.156269
    20  H    0.154225
    21  H    0.154470
    22  H    0.148244
    23  H    0.152699
    24  H    0.164834
    25  C   -0.297308
    26  C   -0.302007
    27  C   -0.476976
    28  H    0.149829
    29  H    0.151622
    30  H    0.142209
    31  H    0.160240
    32  H    0.156688
    33  H    0.154213
    34  H    0.165535
 Sum of Mulliken charges =  -0.00000

 Dipole moment (field-independent basis, Debye):
    X=              4.2502    Y=             -2.8309    Z=              0.7610  Tot=              5.1631
 Quadrupole moment (field-independent basis, Debye-Ang):
   XX=           -115.1793   YY=            -91.7205   ZZ=            -91.0005
   XY=              5.7497   XZ=             -0.5137   YZ=              2.2786

 Normal termination of Gaussian 16 at Thu May  6 16:04:39 2021.
