 Gaussian 16, Revision A.03,
 Gaussian 16:  EM64L-G16RevA.03 25-Dec-2016

 -------------
 #p 6-31g* mp2
 -------------

 ------------------------------------------------------
 Input file generated by CHIRIPA (05-May-2021 14:53:14)
 ------------------------------------------------------
 Symbolic Z-matrix:
 Charge =  0 Multiplicity = 1

                         Standard orientation:
 ---------------------------------------------------------------------
 Center     Atomic      Atomic             Coordinates (Angstroms)
 Number     Number       Type             X           Y           Z
 ---------------------------------------------------------------------
      1          6           0        3.285615    0.671331   -0.598711
      2          6           0        3.060279    2.086465   -0.065228
      3          6           0        2.075501    2.889111   -0.915972
      4          1           0        3.654609    0.730220   -1.631823
      5          1           0        2.321982    0.144967   -0.640509
      6          1           0        4.024248    2.609542   -0.023145
      7          1           0        2.691961    2.024204    0.966800
      8          1           0        1.100503    2.392202   -0.948537
      9          1           0        2.440360    2.980865   -1.944106
     10          1           0        1.929151    3.897567   -0.516649
     11          6           0        4.267661   -0.143491    0.241157
     12          6           0        4.492997   -1.558625   -0.292327
     13          6           0        5.477775   -2.361271    0.558417
     14          1           0        5.231295    0.382873    0.282954
     15          1           0        3.898667   -0.202380    1.274269
     16          1           0        4.861316   -1.496364   -1.324354
     17          1           0        3.529028   -2.081702   -0.334410
     18          1           0        5.112916   -2.453025    1.586551
     19          1           0        6.452774   -1.864362    0.590982
     20          1           0        5.624125   -3.369727    0.159095
     21          6           0       -0.522583    0.200465    0.692644
     22          6           0       -1.506716    1.064217    1.184513
     23          6           0       -2.855065    0.848574    0.884512
     24          6           0       -3.185220   -0.245501    0.086210
     25          6           0       -2.227841   -1.123927   -0.418847
     26          6           0       -0.885646   -0.888930   -0.106058
     27          1           0        0.522457    0.375499    0.930659
     28          1           0       -1.227676    1.911058    1.805030
     29          1           0       -3.637363    1.501514    1.252069
     30          1           0       -2.536773   -1.959637   -1.034939
     31          1           0       -0.123495   -1.561382   -0.489437
     32          7           0       -4.609400   -0.484037   -0.238156
     33          8           0       -4.874289   -1.455064   -0.943547
     34          8           0       -5.433816    0.304541    0.219139
 ---------------------------------------------------------------------

 SCF Done:  E(RHF) =  -669.535125658     A.U. after   15 cycles
 E2 =    -0.2092869828D+01 EUMP2 =    -0.67162799548634D+03

 The electronic state is 1-A.
 Alpha  occ. eigenvalues --  -20.60777 -20.60772 -15.85831 -11.31214 -11.27781
 Alpha  occ. eigenvalues --  -11.27776 -11.27491 -11.26804 -11.26792 -11.22728
 Alpha  occ. eigenvalues --  -11.22556 -11.22534 -11.22396 -11.21936 -11.21816
 Alpha  occ. eigenvalues --   -1.59852  -1.39405  -1.19388  -1.09506  -1.08778
 Alpha  occ. eigenvalues --   -1.04790  -1.04498  -0.96919  -0.95614  -0.87929
 Alpha  occ. eigenvalues --   -0.86187  -0.82445  -0.80560  -0.79309  -0.77485
 Alpha  occ. eigenvalues --   -0.72049  -0.71175  -0.70576  -0.66158  -0.65038
 Alpha  occ. eigenvalues --   -0.64767  -0.62136  -0.61911  -0.60287  -0.58528
 Alpha  occ. eigenvalues --   -0.56225  -0.55256  -0.53577  -0.53334  -0.53108
 Alpha  occ. eigenvalues --   -0.52878  -0.50859  -0.48855  -0.48804  -0.48802
 Alpha  occ. eigenvalues --   -0.47629  -0.46811  -0.46794  -0.44806  -0.44769
 Alpha  occ. eigenvalues --   -0.37337  -0.36392
 Alpha virt. eigenvalues --    0.05009   0.11201   0.16381   0.18459   0.22841
 Alpha virt. eigenvalues --    0.23123   0.24913   0.25501   0.26892   0.28208
 Alpha virt. eigenvalues --    0.29950   0.30429   0.30786   0.31111   0.31840

 Mulliken charges:
               1
     1  C   -0.303212
     2  C   -0.302960
     3  C   -0.480679
     4  H    0.156533
     5  H    0.141039
     6  H    0.158476
     7  H    0.143865
     8  H    0.157688
     9  H    0.159728
    10  H    0.162294
    11  C   -0.299227
    12  C   -0.298920
    13  C   -0.476274
    14  H    0.154364
    15  H    0.146836
    16  H    0.155172
    17  H    0.146259
    18  H    0.155693
    19  H    0.157580
    20  H    0.162944
    21  C   -0.174395
    22  C   -0.220559
    23  C   -0.170600
    24  C    0.158498
    25  C   -0.170629
    26  C   -0.221964
    27  H    0.234897
    28  H    0.224219
    29  H    0.275812
    30  H    0.275838
    31  H    0.224193
    32  N    0.488034
    33  O   -0.460288
    34  O   -0.460256
 Sum of Mulliken charges =  -0.00000

 Dipole moment (field-independent basis, Debye):
    X=              5.2018    Y=              0.8727    Z=              1.0768  Tot=              5.3833
 Quadrupole moment (field-independent basis, Debye-Ang):
   XX=           -125.7440   YY=            -92.3025   ZZ=            -93.6054
   XY=             -4.3526   XZ=             -5.0753   YZ=              2.3419

 Normal termination of Gaussian 16 at Thu May  6 12:09:01 2021.
