 Gaussian 16, Revision A.03,
 Gaussian 16:  EM64L-G16RevA.03 25-Dec-2016

 -------------
 #p 6-31g* mp2
 -------------

 ------------------------------------------------------
 Input file generated by CHIRIPA (05-May-2021 14:55:24)
 ------------------------------------------------------
 Symbolic Z-matrix:
 Charge =  0 Multiplicity = 1

                         Standard orientation:
 ---------------------------------------------------------------------
 Center     Atomic      Atomic             Coordinates (Angstroms)
 Number     Number       Type             X           Y           Z
 ---------------------------------------------------------------------
      1          6           0       -1.923352    2.270568   -0.070498
      2          6           0       -1.444829    0.956245   -0.080031
      3          6           0       -2.332986   -0.122972   -0.048131
      4          6           0       -3.699439    0.149778   -0.006858
      5          6           0       -4.207054    1.448048    0.003643
      6          6           0       -3.300509    2.511850   -0.028765
      7          1           0       -1.226268    3.102942   -0.095476
      8          1           0       -0.375832    0.765870   -0.112413
      9          1           0       -1.989752   -1.150379   -0.054627
     10          1           0       -5.278182    1.606292    0.036220
     11          1           0       -3.674989    3.531533   -0.021269
     12          7           0       -4.649425   -0.984581    0.027182
     13          8           0       -5.848629   -0.717667    0.063293
     14          8           0       -4.176831   -2.119125    0.017107
     15          6           0        3.790842   -0.477560    0.182338
     16          6           0        3.159896   -1.808614   -0.227766
     17          6           0        1.671097   -1.886552    0.111639
     18          1           0        3.651236   -0.330112    1.262021
     19          1           0        3.256597    0.342703   -0.316809
     20          1           0        3.696055   -2.626207    0.270926
     21          1           0        3.301188   -1.953000   -1.306564
     22          1           0        1.117696   -1.091002   -0.397722
     23          1           0        1.514805   -1.768033    1.188731
     24          1           0        1.240250   -2.846333   -0.190108
     25          6           0        5.278906   -0.384479   -0.150421
     26          6           0        5.909851    0.946576    0.259684
     27          6           0        7.398650    1.024514   -0.079721
     28          1           0        5.813150   -1.204741    0.348727
     29          1           0        5.418512   -0.531927   -1.230104
     30          1           0        5.768559    1.090962    1.338482
     31          1           0        5.373693    1.764168   -0.239009
     32          1           0        7.554942    0.905995   -1.156814
     33          1           0        7.952052    0.228964    0.429639
     34          1           0        7.829498    1.984295    0.222026
 ---------------------------------------------------------------------

 SCF Done:  E(RHF) =  -669.535559342     A.U. after   15 cycles
 E2 =    -0.2091005599D+01 EUMP2 =    -0.67162656494159D+03

 The electronic state is 1-A.
 Alpha  occ. eigenvalues --  -20.60700 -20.60695 -15.85753 -11.31106 -11.27683
 Alpha  occ. eigenvalues --  -11.27651 -11.27422 -11.26699 -11.26651 -11.22311
 Alpha  occ. eigenvalues --  -11.22115 -11.22101 -11.22006 -11.21927 -11.21488
 Alpha  occ. eigenvalues --   -1.59776  -1.39329  -1.19279  -1.09066  -1.08679
 Alpha  occ. eigenvalues --   -1.04680  -1.04167  -0.96636  -0.95514  -0.87658
 Alpha  occ. eigenvalues --   -0.86080  -0.82349  -0.80239  -0.78872  -0.77391
 Alpha  occ. eigenvalues --   -0.71972  -0.71099  -0.70390  -0.65700  -0.64931
 Alpha  occ. eigenvalues --   -0.64698  -0.62090  -0.61520  -0.59991  -0.58229
 Alpha  occ. eigenvalues --   -0.55942  -0.55185  -0.53308  -0.53131  -0.53012
 Alpha  occ. eigenvalues --   -0.52706  -0.50571  -0.48739  -0.48726  -0.48535
 Alpha  occ. eigenvalues --   -0.47257  -0.46414  -0.46326  -0.44738  -0.44412
 Alpha  occ. eigenvalues --   -0.37267  -0.36281
 Alpha virt. eigenvalues --    0.05137   0.11368   0.16620   0.19834   0.22447
 Alpha virt. eigenvalues --    0.23685   0.25230   0.26188   0.26852   0.28230
 Alpha virt. eigenvalues --    0.29015   0.29729   0.31152   0.31473   0.31973

 Mulliken charges:
               1
     1  C   -0.171291
     2  C   -0.223784
     3  C   -0.173346
     4  C    0.158603
     5  C   -0.171079
     6  C   -0.218633
     7  H    0.225536
     8  H    0.229637
     9  H    0.277431
    10  H    0.275294
    11  H    0.223014
    12  N    0.488116
    13  O   -0.460856
    14  O   -0.460384
    15  C   -0.298354
    16  C   -0.299819
    17  C   -0.482797
    18  H    0.150571
    19  H    0.143566
    20  H    0.156481
    21  H    0.154708
    22  H    0.146414
    23  H    0.158393
    24  H    0.168014
    25  C   -0.298731
    26  C   -0.299886
    27  C   -0.476044
    28  H    0.151881
    29  H    0.151017
    30  H    0.152374
    31  H    0.150377
    32  H    0.155947
    33  H    0.156499
    34  H    0.161132
 Sum of Mulliken charges =  -0.00000

 Dipole moment (field-independent basis, Debye):
    X=              3.5668    Y=              3.8923    Z=             -0.0997  Tot=              5.2804
 Quadrupole moment (field-independent basis, Debye-Ang):
   XX=           -117.2551   YY=            -91.4520   ZZ=            -94.8471
   XY=            -17.8008   XZ=              0.7547   YZ=             -0.3025

 Normal termination of Gaussian 16 at Thu May  6 17:40:59 2021.
