 Gaussian 16, Revision A.03,
 Gaussian 16:  EM64L-G16RevA.03 25-Dec-2016

 -------------
 #p 6-31g* mp2
 -------------

 ------------------------------------------------------
 Input file generated by CHIRIPA (05-May-2021 14:55:25)
 ------------------------------------------------------
 Symbolic Z-matrix:
 Charge =  0 Multiplicity = 1

                         Standard orientation:
 ---------------------------------------------------------------------
 Center     Atomic      Atomic             Coordinates (Angstroms)
 Number     Number       Type             X           Y           Z
 ---------------------------------------------------------------------
      1          6           0        1.647546   -1.817356    1.380932
      2          6           0        1.117819   -1.265154    0.210043
      3          6           0        1.846702   -0.325158   -0.524590
      4          6           0        3.107828    0.041529   -0.057266
      5          6           0        3.662826   -0.490660    1.105508
      6          6           0        2.916123   -1.429031    1.824146
      7          1           0        1.074411   -2.546937    1.945400
      8          1           0        0.132884   -1.564863   -0.136544
      9          1           0        1.460620    0.118207   -1.434418
     10          1           0        4.647375   -0.172198    1.425918
     11          1           0        3.330033   -1.856216    2.733122
     12          7           0        3.888896    1.035800   -0.826523
     13          8           0        4.997656    1.342223   -0.393632
     14          8           0        3.377549    1.489861   -1.847791
     15          6           0       -3.508532    0.845235    0.038910
     16          6           0       -4.492079    1.837672    0.659950
     17          6           0       -3.867746    3.210828    0.909833
     18          1           0       -2.637937    0.738870    0.700496
     19          1           0       -3.132865    1.256127   -0.908421
     20          1           0       -4.866831    1.424413    1.605146
     21          1           0       -5.360522    1.941542   -0.003098
     22          1           0       -3.509858    3.647735   -0.028053
     23          1           0       -3.013362    3.127668    1.589328
     24          1           0       -4.588272    3.904608    1.354100
     25          6           0       -4.117960   -0.532046   -0.216873
     26          6           0       -3.134413   -1.524483   -0.837913
     27          6           0       -3.758746   -2.897640   -1.087796
     28          1           0       -4.493627   -0.942938    0.730458
     29          1           0       -4.988555   -0.425681   -0.878459
     30          1           0       -2.265970   -1.628352   -0.174865
     31          1           0       -2.759661   -1.111224   -1.783108
     32          1           0       -4.613130   -2.814479   -1.767290
     33          1           0       -4.116635   -3.334546   -0.149910
     34          1           0       -3.038220   -3.591419   -1.532062
 ---------------------------------------------------------------------

 SCF Done:  E(RHF) =  -669.535608950     A.U. after   15 cycles
 E2 =    -0.2091069183D+01 EUMP2 =    -0.67162667813231D+03

 The electronic state is 1-A.
 Alpha  occ. eigenvalues --  -20.60730 -20.60724 -15.85782 -11.31142 -11.27715
 Alpha  occ. eigenvalues --  -11.27698 -11.27455 -11.26733 -11.26679 -11.22596
 Alpha  occ. eigenvalues --  -11.22081 -11.22014 -11.21923 -11.21879 -11.21344
 Alpha  occ. eigenvalues --   -1.59805  -1.39359  -1.19313  -1.09084  -1.08711
 Alpha  occ. eigenvalues --   -1.04713  -1.04156  -0.96566  -0.95547  -0.87585
 Alpha  occ. eigenvalues --   -0.86116  -0.82379  -0.80265  -0.78880  -0.77421
 Alpha  occ. eigenvalues --   -0.72001  -0.71128  -0.70427  -0.65735  -0.64965
 Alpha  occ. eigenvalues --   -0.64717  -0.62094  -0.61526  -0.59962  -0.58185
 Alpha  occ. eigenvalues --   -0.55838  -0.55223  -0.53283  -0.53046  -0.53001
 Alpha  occ. eigenvalues --   -0.52801  -0.50505  -0.48779  -0.48756  -0.48526
 Alpha  occ. eigenvalues --   -0.47295  -0.46405  -0.46313  -0.44765  -0.44401
 Alpha  occ. eigenvalues --   -0.37300  -0.36314
 Alpha virt. eigenvalues --    0.05106   0.11303   0.16579   0.19993   0.22588
 Alpha virt. eigenvalues --    0.23735   0.25146   0.26239   0.27431   0.28298
 Alpha virt. eigenvalues --    0.28784   0.30204   0.30976   0.31384   0.32109

 Mulliken charges:
               1
     1  C   -0.173068
     2  C   -0.226475
     3  C   -0.172943
     4  C    0.158827
     5  C   -0.171278
     6  C   -0.218528
     7  H    0.225188
     8  H    0.235444
     9  H    0.276115
    10  H    0.275414
    11  H    0.223140
    12  N    0.488057
    13  O   -0.460662
    14  O   -0.460454
    15  C   -0.299613
    16  C   -0.300120
    17  C   -0.476313
    18  H    0.148076
    19  H    0.151121
    20  H    0.151923
    21  H    0.153299
    22  H    0.157307
    23  H    0.155846
    24  H    0.161713
    25  C   -0.297547
    26  C   -0.306010
    27  C   -0.475763
    28  H    0.150386
    29  H    0.153293
    30  H    0.143976
    31  H    0.153821
    32  H    0.159895
    33  H    0.156215
    34  H    0.159716
 Sum of Mulliken charges =  -0.00000

 Dipole moment (field-independent basis, Debye):
    X=             -2.9494    Y=             -3.4496    Z=              2.6845  Tot=              5.2731
 Quadrupole moment (field-independent basis, Debye-Ang):
   XX=           -108.7286   YY=            -96.6057   ZZ=            -92.3864
   XY=            -11.8022   XZ=             11.8721   YZ=             -0.4887

 Normal termination of Gaussian 16 at Thu May  6 00:03:09 2021.
