 Gaussian 16, Revision A.03,
 Gaussian 16:  EM64L-G16RevA.03 25-Dec-2016

 -------------
 #p 6-31g* mp2
 -------------

 ------------------------------------------------------
 Input file generated by CHIRIPA (05-May-2021 14:55:22)
 ------------------------------------------------------
 Symbolic Z-matrix:
 Charge =  0 Multiplicity = 1

                         Standard orientation:
 ---------------------------------------------------------------------
 Center     Atomic      Atomic             Coordinates (Angstroms)
 Number     Number       Type             X           Y           Z
 ---------------------------------------------------------------------
      1          6           0        1.725495   -2.078433    1.761355
      2          6           0        1.494331   -0.726593    2.036330
      3          6           0        1.777386    0.251356    1.078183
      4          6           0        2.293084   -0.159817   -0.149939
      5          6           0        2.534320   -1.498748   -0.453843
      6          6           0        2.243838   -2.459525    0.519336
      7          1           0        1.502726   -2.831457    2.511505
      8          1           0        1.091848   -0.427720    3.000035
      9          1           0        1.608064    1.304912    1.264642
     10          1           0        2.936257   -1.765998   -1.423606
     11          1           0        2.424373   -3.508647    0.303018
     12          7           0        2.596673    0.866404   -1.172242
     13          8           0        3.050394    0.478257   -2.246540
     14          8           0        2.375157    2.039470   -0.879868
     15          6           0       -2.886358    1.133857    0.250328
     16          6           0       -1.495441    1.714344    0.507948
     17          6           0       -1.542476    3.140931    1.056065
     18          1           0       -3.422170    1.782235   -0.456394
     19          1           0       -3.461588    1.149205    1.186421
     20          1           0       -0.922531    1.696629   -0.428042
     21          1           0       -0.962807    1.064405    1.213991
     22          1           0       -2.090890    3.171869    2.003106
     23          1           0       -2.050384    3.807684    0.351743
     24          1           0       -0.537397    3.536379    1.232975
     25          6           0       -2.855846   -0.291743   -0.297815
     26          6           0       -4.246764   -0.872231   -0.555434
     27          6           0       -4.199728   -2.298818   -1.103551
     28          1           0       -2.280616   -0.307092   -1.233908
     29          1           0       -2.320034   -0.940122    0.408907
     30          1           0       -4.779397   -0.222292   -1.261478
     31          1           0       -4.819673   -0.854516    0.380555
     32          1           0       -3.691820   -2.965571   -0.399229
     33          1           0       -3.651314   -2.329756   -2.050592
     34          1           0       -5.204807   -2.694266   -1.280462
 ---------------------------------------------------------------------

 SCF Done:  E(RHF) =  -669.534987908     A.U. after   15 cycles
 E2 =    -0.2093293225D+01 EUMP2 =    -0.67162828113257D+03

 The electronic state is 1-A.
 Alpha  occ. eigenvalues --  -20.60829 -20.60818 -15.85865 -11.31177 -11.27783
 Alpha  occ. eigenvalues --  -11.27765 -11.27534 -11.26773 -11.26763 -11.21686
 Alpha  occ. eigenvalues --  -11.21552 -11.21448 -11.21378 -11.21199 -11.21034
 Alpha  occ. eigenvalues --   -1.59891  -1.39446  -1.19379  -1.08778  -1.08475
 Alpha  occ. eigenvalues --   -1.04790  -1.03574  -0.96027  -0.95617  -0.87038
 Alpha  occ. eigenvalues --   -0.86180  -0.82458  -0.79659  -0.78319  -0.77477
 Alpha  occ. eigenvalues --   -0.72086  -0.71208  -0.70498  -0.65146  -0.65002
 Alpha  occ. eigenvalues --   -0.64787  -0.62163  -0.60965  -0.59386  -0.57635
 Alpha  occ. eigenvalues --   -0.55321  -0.55276  -0.53158  -0.52876  -0.52688
 Alpha  occ. eigenvalues --   -0.52440  -0.49965  -0.48847  -0.48842  -0.47962
 Alpha  occ. eigenvalues --   -0.46678  -0.45845  -0.45759  -0.44820  -0.43822
 Alpha  occ. eigenvalues --   -0.37358  -0.36287
 Alpha virt. eigenvalues --    0.05014   0.11240   0.16385   0.20744   0.22885
 Alpha virt. eigenvalues --    0.23896   0.26341   0.26511   0.27313   0.27874
 Alpha virt. eigenvalues --    0.29070   0.30069   0.31540   0.31569   0.31957

 Mulliken charges:
               1
     1  C   -0.170444
     2  C   -0.220719
     3  C   -0.165478
     4  C    0.156247
     5  C   -0.170551
     6  C   -0.218925
     7  H    0.225635
     8  H    0.223411
     9  H    0.279034
    10  H    0.275583
    11  H    0.223435
    12  N    0.488078
    13  O   -0.460100
    14  O   -0.460830
    15  C   -0.297877
    16  C   -0.305624
    17  C   -0.477398
    18  H    0.151903
    19  H    0.146896
    20  H    0.161326
    21  H    0.144319
    22  H    0.151199
    23  H    0.159606
    24  H    0.162601
    25  C   -0.298267
    26  C   -0.299621
    27  C   -0.475410
    28  H    0.151890
    29  H    0.146681
    30  H    0.153547
    31  H    0.150684
    32  H    0.152341
    33  H    0.156388
    34  H    0.160441
 Sum of Mulliken charges =  -0.00000

 Dipole moment (field-independent basis, Debye):
    X=             -1.0192    Y=             -3.5701    Z=              3.5001  Tot=              5.1025
 Quadrupole moment (field-independent basis, Debye-Ang):
   XX=           -100.1256   YY=            -92.1438   ZZ=            -93.6420
   XY=             -9.7124   XZ=              7.5157   YZ=              1.5612

 Normal termination of Gaussian 16 at Wed May  5 17:31:27 2021.
