 Gaussian 16, Revision A.03,
 Gaussian 16:  EM64L-G16RevA.03 25-Dec-2016

 -------------
 #p 6-31g* mp2
 -------------

 ------------------------------------------------------
 Input file generated by CHIRIPA (05-May-2021 14:53:16)
 ------------------------------------------------------
 Symbolic Z-matrix:
 Charge =  0 Multiplicity = 1

                         Standard orientation:
 ---------------------------------------------------------------------
 Center     Atomic      Atomic             Coordinates (Angstroms)
 Number     Number       Type             X           Y           Z
 ---------------------------------------------------------------------
      1          6           0        2.895157    0.736997   -0.204420
      2          6           0        2.856670   -0.770411   -0.457847
      3          6           0        4.250159   -1.378252   -0.620678
      4          1           0        3.416438    1.229144   -1.036888
      5          1           0        3.490289    0.935006    0.697803
      6          1           0        2.260635   -0.965619   -1.358541
      7          1           0        2.335252   -1.259007    0.375228
      8          1           0        4.850296   -1.212711    0.279895
      9          1           0        4.775254   -0.917657   -1.463725
     10          1           0        4.199232   -2.456568   -0.800959
     11          6           0        1.509714    1.359155   -0.039512
     12          6           0        1.548201    2.866563    0.213914
     13          6           0        0.154713    3.474403    0.376746
     14          1           0        0.914583    1.161145   -0.941735
     15          1           0        0.988433    0.867007    0.792956
     16          1           0        2.069619    3.355158   -0.619160
     17          1           0        2.144237    3.061771    1.114609
     18          1           0       -0.370383    3.013808    1.219793
     19          1           0       -0.445424    3.308863   -0.523828
     20          1           0        0.205640    4.552719    0.557026
     21          6           0       -3.372810    0.854022   -0.820102
     22          6           0       -2.964039    0.932686    0.515278
     23          6           0       -2.049094    0.011173    1.033196
     24          6           0       -1.560928   -0.980533    0.183782
     25          6           0       -1.948909   -1.085128   -1.151066
     26          6           0       -2.864837   -0.152859   -1.647553
     27          1           0       -4.083943    1.574053   -1.214109
     28          1           0       -3.356878    1.713582    1.160199
     29          1           0       -1.715617    0.048936    2.063140
     30          1           0       -1.539823   -1.874746   -1.769589
     31          1           0       -3.180510   -0.216376   -2.685031
     32          7           0       -0.591798   -1.961790    0.720736
     33          8           0       -0.176484   -2.826043   -0.048173
     34          8           0       -0.265857   -1.848067    1.900340
 ---------------------------------------------------------------------

 SCF Done:  E(RHF) =  -669.535817973     A.U. after   15 cycles
 E2 =    -0.2095645659D+01 EUMP2 =    -0.67163146363231D+03

 The electronic state is 1-A.
 Alpha  occ. eigenvalues --  -20.60954 -20.60944 -15.85932 -11.31232 -11.27807
 Alpha  occ. eigenvalues --  -11.27791 -11.27541 -11.26827 -11.26809 -11.21517
 Alpha  occ. eigenvalues --  -11.21212 -11.21081 -11.20831 -11.20661 -11.20257
 Alpha  occ. eigenvalues --   -1.59987  -1.39546  -1.19413  -1.08821  -1.08024
 Alpha  occ. eigenvalues --   -1.04813  -1.03095  -0.95669  -0.95596  -0.86628
 Alpha  occ. eigenvalues --   -0.86208  -0.82511  -0.79215  -0.77828  -0.77556
 Alpha  occ. eigenvalues --   -0.72175  -0.71275  -0.70529  -0.65076  -0.64818
 Alpha  occ. eigenvalues --   -0.64647  -0.62165  -0.60493  -0.59005  -0.57177
 Alpha  occ. eigenvalues --   -0.55319  -0.54908  -0.53170  -0.52908  -0.52294
 Alpha  occ. eigenvalues --   -0.52033  -0.49577  -0.48954  -0.48947  -0.47492
 Alpha  occ. eigenvalues --   -0.46253  -0.45366  -0.45255  -0.44755  -0.43351
 Alpha  occ. eigenvalues --   -0.37342  -0.36355
 Alpha virt. eigenvalues --    0.04891   0.11149   0.16364   0.21038   0.23242
 Alpha virt. eigenvalues --    0.24614   0.26325   0.27284   0.27400   0.28304
 Alpha virt. eigenvalues --    0.28805   0.30894   0.31724   0.31943   0.32405

 Mulliken charges:
               1
     1  C   -0.296913
     2  C   -0.307463
     3  C   -0.475641
     4  H    0.145883
     5  H    0.149680
     6  H    0.148802
     7  H    0.171248
     8  H    0.154002
     9  H    0.149688
    10  H    0.164771
    11  C   -0.304127
    12  C   -0.298981
    13  C   -0.474009
    14  H    0.146958
    15  H    0.152008
    16  H    0.151420
    17  H    0.153107
    18  H    0.148841
    19  H    0.153195
    20  H    0.158151
    21  C   -0.171743
    22  C   -0.214703
    23  C   -0.171591
    24  C    0.164382
    25  C   -0.172061
    26  C   -0.218820
    27  H    0.226034
    28  H    0.224250
    29  H    0.274751
    30  H    0.275567
    31  H    0.223599
    32  N    0.488595
    33  O   -0.457267
    34  O   -0.461613
 Sum of Mulliken charges =  -0.00000

 Dipole moment (field-independent basis, Debye):
    X=             -3.5103    Y=              3.2452    Z=             -1.8461  Tot=              5.1246
 Quadrupole moment (field-independent basis, Debye-Ang):
   XX=            -85.7627   YY=           -101.6653   ZZ=            -90.7227
   XY=             -2.0200   XZ=              2.6248   YZ=              4.5251

 Normal termination of Gaussian 16 at Thu May  6 04:20:38 2021.
