 Gaussian 16, Revision A.03,
 Gaussian 16:  EM64L-G16RevA.03 25-Dec-2016

 -------------
 #p 6-31g* mp2
 -------------

 ------------------------------------------------------
 Input file generated by CHIRIPA (05-May-2021 14:55:22)
 ------------------------------------------------------
 Symbolic Z-matrix:
 Charge =  0 Multiplicity = 1

                         Standard orientation:
 ---------------------------------------------------------------------
 Center     Atomic      Atomic             Coordinates (Angstroms)
 Number     Number       Type             X           Y           Z
 ---------------------------------------------------------------------
      1          6           0        4.509867    2.016019    0.522460
      2          6           0        4.783241    1.249695   -0.615317
      3          6           0        4.001567    0.132276   -0.923389
      4          6           0        2.949630   -0.191563   -0.067908
      5          6           0        2.652155    0.552088    1.073049
      6          6           0        3.447070    1.665388    1.361532
      7          1           0        5.122232    2.882457    0.754169
      8          1           0        5.607980    1.519641   -1.268754
      9          1           0        4.191053   -0.478507   -1.797721
     10          1           0        1.823238    0.258137    1.705431
     11          1           0        3.232442    2.258688    2.245825
     12          7           0        2.115098   -1.372344   -0.383681
     13          8           0        1.194062   -1.636663    0.386037
     14          8           0        2.397830   -2.011164   -1.394923
     15          6           0       -4.463469    0.544814    0.162848
     16          6           0       -4.323294    1.758504   -0.756549
     17          6           0       -5.354332    2.847667   -0.459094
     18          1           0       -5.475997    0.130808    0.061208
     19          1           0       -4.362584    0.871117    1.207235
     20          1           0       -4.423033    1.429796   -1.798960
     21          1           0       -3.310919    2.169553   -0.652852
     22          1           0       -5.252322    3.203661    0.571179
     23          1           0       -6.370755    2.459699   -0.581440
     24          1           0       -5.236000    3.705914   -1.127875
     25          6           0       -3.439689   -0.552606   -0.122234
     26          6           0       -3.579865   -1.766296    0.797163
     27          6           0       -2.548827   -2.855459    0.499708
     28          1           0       -3.540574   -0.878910   -1.166620
     29          1           0       -2.427161   -0.138600   -0.020595
     30          1           0       -4.592239   -2.177346    0.693466
     31          1           0       -3.480125   -1.437588    1.839574
     32          1           0       -1.532404   -2.467493    0.622054
     33          1           0       -2.650836   -3.211454   -0.530565
     34          1           0       -2.667159   -3.713707    1.168488
 ---------------------------------------------------------------------

 SCF Done:  E(RHF) =  -669.536160105     A.U. after   15 cycles
 E2 =    -0.2090882950D+01 EUMP2 =    -0.67162704305508D+03

 The electronic state is 1-A.
 Alpha  occ. eigenvalues --  -20.60963 -20.60957 -15.86001 -11.31314 -11.27878
 Alpha  occ. eigenvalues --  -11.27871 -11.27611 -11.26882 -11.26872 -11.21207
 Alpha  occ. eigenvalues --  -11.20832 -11.20788 -11.20631 -11.20552 -11.19558
 Alpha  occ. eigenvalues --   -1.60021  -1.39579  -1.19481  -1.08885  -1.07743
 Alpha  occ. eigenvalues --   -1.04877  -1.02768  -0.95730  -0.95189  -0.86278
 Alpha  occ. eigenvalues --   -0.86199  -0.82565  -0.78871  -0.77623  -0.77502
 Alpha  occ. eigenvalues --   -0.72226  -0.71335  -0.70590  -0.65138  -0.64879
 Alpha  occ. eigenvalues --   -0.64384  -0.62225  -0.60165  -0.58636  -0.56795
 Alpha  occ. eigenvalues --   -0.55380  -0.54465  -0.53208  -0.52969  -0.51894
 Alpha  occ. eigenvalues --   -0.51597  -0.49222  -0.48972  -0.48870  -0.47144
 Alpha  occ. eigenvalues --   -0.45918  -0.45117  -0.45017  -0.44831  -0.43038
 Alpha  occ. eigenvalues --   -0.37458  -0.36478
 Alpha virt. eigenvalues --    0.04903   0.11177   0.16392   0.21292   0.23481
 Alpha virt. eigenvalues --    0.25130   0.27172   0.27317   0.27983   0.28315
 Alpha virt. eigenvalues --    0.28939   0.30858   0.32080   0.32313   0.32550

 Mulliken charges:
               1
     1  C   -0.170574
     2  C   -0.218566
     3  C   -0.170420
     4  C    0.157615
     5  C   -0.170845
     6  C   -0.218497
     7  H    0.226083
     8  H    0.223920
     9  H    0.276001
    10  H    0.275297
    11  H    0.223853
    12  N    0.493091
    13  O   -0.464852
    14  O   -0.458209
    15  C   -0.297581
    16  C   -0.298689
    17  C   -0.475149
    18  H    0.148549
    19  H    0.146735
    20  H    0.152209
    21  H    0.149639
    22  H    0.153508
    23  H    0.155113
    24  H    0.158308
    25  C   -0.297674
    26  C   -0.298793
    27  C   -0.486479
    28  H    0.149538
    29  H    0.151642
    30  H    0.147187
    31  H    0.147180
    32  H    0.183835
    33  H    0.152832
    34  H    0.154192
 Sum of Mulliken charges =  -0.00000

 Dipole moment (field-independent basis, Debye):
    X=              3.2645    Y=              4.1171    Z=              1.0709  Tot=              5.3622
 Quadrupole moment (field-independent basis, Debye-Ang):
   XX=            -77.3728   YY=            -97.7445   ZZ=            -91.4901
   XY=             12.2956   XZ=              1.1172   YZ=              0.7255

 Normal termination of Gaussian 16 at Thu May  6 10:58:00 2021.
