 Gaussian 16, Revision A.03,
 Gaussian 16:  EM64L-G16RevA.03 25-Dec-2016

 -------------
 #p 6-31g* mp2
 -------------

 ------------------------------------------------------
 Input file generated by CHIRIPA (05-May-2021 14:53:13)
 ------------------------------------------------------
 Symbolic Z-matrix:
 Charge =  0 Multiplicity = 1

                         Standard orientation:
 ---------------------------------------------------------------------
 Center     Atomic      Atomic             Coordinates (Angstroms)
 Number     Number       Type             X           Y           Z
 ---------------------------------------------------------------------
      1          6           0       -3.262942    0.696073   -0.786037
      2          6           0       -2.395582    1.863677   -0.314473
      3          6           0       -2.340695    3.006629   -1.328595
      4          1           0       -2.873500    0.321172   -1.742452
      5          1           0       -4.280329    1.060813   -0.984239
      6          1           0       -1.380488    1.496570   -0.115896
      7          1           0       -2.787020    2.235718    0.641025
      8          1           0       -3.344162    3.400376   -1.519956
      9          1           0       -1.929639    2.657028   -2.281177
     10          1           0       -1.715338    3.830708   -0.971269
     11          6           0       -3.327674   -0.454305    0.217042
     12          6           0       -4.195034   -1.621909   -0.254521
     13          6           0       -4.249921   -2.764861    0.759600
     14          1           0       -2.310287   -0.819045    0.415244
     15          1           0       -3.717116   -0.079405    1.173457
     16          1           0       -3.803596   -1.993950   -1.210020
     17          1           0       -5.210127   -1.254803   -0.453099
     18          1           0       -4.660977   -2.415261    1.712183
     19          1           0       -3.246454   -3.158609    0.950961
     20          1           0       -4.875278   -3.588940    0.402274
     21          6           0        1.165272    1.560176    1.503808
     22          6           0        2.418812    1.940320    1.013249
     23          6           0        3.208169    1.031838    0.301826
     24          6           0        2.710694   -0.254403    0.098368
     25          6           0        1.465921   -0.663192    0.574521
     26          6           0        0.693659    0.261923    1.283268
     27          1           0        0.558720    2.272368    2.055420
     28          1           0        2.787625    2.947892    1.183018
     29          1           0        4.182288    1.299624   -0.089071
     30          1           0        1.125162   -1.674647    0.389427
     31          1           0       -0.279472   -0.036081    1.663077
     32          7           0        3.537303   -1.224976   -0.653366
     33          8           0        3.076322   -2.352196   -0.819223
     34          8           0        4.630527   -0.840114   -1.062486
 ---------------------------------------------------------------------

 SCF Done:  E(RHF) =  -669.534537767     A.U. after   15 cycles
 E2 =    -0.2093492567D+01 EUMP2 =    -0.67162803033433D+03

 The electronic state is 1-A.
 Alpha  occ. eigenvalues --  -20.60803 -20.60798 -15.85857 -11.31239 -11.27803
 Alpha  occ. eigenvalues --  -11.27797 -11.27526 -11.26816 -11.26765 -11.22204
 Alpha  occ. eigenvalues --  -11.22169 -11.22133 -11.21971 -11.21608 -11.21574
 Alpha  occ. eigenvalues --   -1.59878  -1.39431  -1.19415  -1.09089  -1.08796
 Alpha  occ. eigenvalues --   -1.04822  -1.04108  -0.96564  -0.95633  -0.87575
 Alpha  occ. eigenvalues --   -0.86220  -0.82466  -0.80195  -0.78959  -0.77499
 Alpha  occ. eigenvalues --   -0.72075  -0.71202  -0.70504  -0.65771  -0.65063
 Alpha  occ. eigenvalues --   -0.64770  -0.62161  -0.61503  -0.59941  -0.58194
 Alpha  occ. eigenvalues --   -0.55850  -0.55294  -0.53306  -0.53150  -0.52996
 Alpha  occ. eigenvalues --   -0.52868  -0.50494  -0.48839  -0.48830  -0.48507
 Alpha  occ. eigenvalues --   -0.47220  -0.46433  -0.46365  -0.44834  -0.44388
 Alpha  occ. eigenvalues --   -0.37324  -0.36370
 Alpha virt. eigenvalues --    0.04998   0.11120   0.16401   0.20288   0.22712
 Alpha virt. eigenvalues --    0.23544   0.25204   0.26128   0.27138   0.28301
 Alpha virt. eigenvalues --    0.29495   0.30751   0.31023   0.31401   0.31737

 Mulliken charges:
               1
     1  C   -0.297287
     2  C   -0.312251
     3  C   -0.474297
     4  H    0.153654
     5  H    0.151785
     6  H    0.160404
     7  H    0.145871
     8  H    0.156560
     9  H    0.158875
    10  H    0.157281
    11  C   -0.301471
    12  C   -0.300124
    13  C   -0.476079
    14  H    0.142025
    15  H    0.148296
    16  H    0.155584
    17  H    0.154413
    18  H    0.154799
    19  H    0.153587
    20  H    0.163864
    21  C   -0.169936
    22  C   -0.218503
    23  C   -0.170852
    24  C    0.158619
    25  C   -0.173864
    26  C   -0.222568
    27  H    0.227666
    28  H    0.223767
    29  H    0.275850
    30  H    0.275221
    31  H    0.231627
    32  N    0.488102
    33  O   -0.460372
    34  O   -0.460245
 Sum of Mulliken charges =  -0.00000

 Dipole moment (field-independent basis, Debye):
    X=             -2.9569    Y=              3.3951    Z=              2.5741  Tot=              5.1861
 Quadrupole moment (field-independent basis, Debye-Ang):
   XX=           -107.3295   YY=            -95.0382   ZZ=            -95.0430
   XY=             12.8008   XZ=              6.5219   YZ=              0.0290

 Normal termination of Gaussian 16 at Wed May  5 20:09:59 2021.
