 Gaussian 16, Revision A.03,
 Gaussian 16:  EM64L-G16RevA.03 25-Dec-2016

 -------------
 #p 6-31g* mp2
 -------------

 ------------------------------------------------------
 Input file generated by CHIRIPA (05-May-2021 14:53:14)
 ------------------------------------------------------
 Symbolic Z-matrix:
 Charge =  0 Multiplicity = 1

                         Standard orientation:
 ---------------------------------------------------------------------
 Center     Atomic      Atomic             Coordinates (Angstroms)
 Number     Number       Type             X           Y           Z
 ---------------------------------------------------------------------
      1          6           0       -3.848054    0.543794   -0.193858
      2          6           0       -3.942555    1.989907    0.293801
      3          6           0       -2.639954    2.766183    0.097789
      4          1           0       -3.033079    0.036047    0.339951
      5          1           0       -3.574576    0.540194   -1.258091
      6          1           0       -4.217128    1.990806    1.356451
      7          1           0       -4.757525    2.494217   -0.241094
      8          1           0       -2.364324    2.795010   -0.961360
      9          1           0       -1.820855    2.288740    0.645261
     10          1           0       -2.729816    3.797445    0.453153
     11          6           0       -5.142451   -0.245163   -0.004618
     12          6           0       -5.047950   -1.691277   -0.492277
     13          6           0       -6.350551   -2.467553   -0.296266
     14          1           0       -5.415929   -0.241563    1.059615
     15          1           0       -5.957426    0.262584   -0.538427
     16          1           0       -4.232980   -2.195586    0.042617
     17          1           0       -4.773378   -1.692176   -1.554927
     18          1           0       -7.169650   -1.990109   -0.843737
     19          1           0       -6.626181   -2.496380    0.762884
     20          1           0       -6.260689   -3.498815   -0.651629
     21          6           0        1.166428    0.627988    0.634414
     22          6           0        1.976870    1.421258   -0.184383
     23          6           0        3.278052    1.018572   -0.499526
     24          6           0        3.738669   -0.188642    0.023692
     25          6           0        2.955463   -1.000969    0.842229
     26          6           0        1.657445   -0.578467    1.144208
     27          1           0        0.156868    0.948502    0.874112
     28          1           0        1.598185    2.358688   -0.581710
     29          1           0        3.926873    1.613307   -1.130985
     30          1           0        3.360824   -1.930384    1.223396
     31          1           0        1.030289   -1.196562    1.780350
     32          7           0        5.114497   -0.625437   -0.302967
     33          8           0        5.496773   -1.693267    0.170576
     34          8           0        5.784545    0.108303   -1.026362
 ---------------------------------------------------------------------

 SCF Done:  E(RHF) =  -669.535501107     A.U. after   15 cycles
 E2 =    -0.2090927641D+01 EUMP2 =    -0.67162642874808D+03

 The electronic state is 1-A.
 Alpha  occ. eigenvalues --  -20.60721 -20.60715 -15.85774 -11.31130 -11.27702
 Alpha  occ. eigenvalues --  -11.27695 -11.27418 -11.26714 -11.26693 -11.22575
 Alpha  occ. eigenvalues --  -11.22332 -11.22301 -11.22213 -11.22084 -11.21569
 Alpha  occ. eigenvalues --   -1.59797  -1.39350  -1.19301  -1.09253  -1.08696
 Alpha  occ. eigenvalues --   -1.04704  -1.04357  -0.96826  -0.95534  -0.87844
 Alpha  occ. eigenvalues --   -0.86100  -0.82370  -0.80429  -0.79038  -0.77416
 Alpha  occ. eigenvalues --   -0.71992  -0.71120  -0.70431  -0.65884  -0.64953
 Alpha  occ. eigenvalues --   -0.64708  -0.62053  -0.61759  -0.60198  -0.58425
 Alpha  occ. eigenvalues --   -0.56185  -0.55187  -0.53503  -0.53231  -0.53033
 Alpha  occ. eigenvalues --   -0.52795  -0.50769  -0.48770  -0.48748  -0.48716
 Alpha  occ. eigenvalues --   -0.47453  -0.46588  -0.46486  -0.44758  -0.44597
 Alpha  occ. eigenvalues --   -0.37276  -0.36311
 Alpha virt. eigenvalues --    0.05118   0.11344   0.16605   0.19160   0.22422
 Alpha virt. eigenvalues --    0.23685   0.25116   0.26138   0.26736   0.27646
 Alpha virt. eigenvalues --    0.28901   0.30142   0.30997   0.31339   0.32098

 Mulliken charges:
               1
     1  C   -0.297887
     2  C   -0.299984
     3  C   -0.480349
     4  H    0.142757
     5  H    0.151961
     6  H    0.153936
     7  H    0.156581
     8  H    0.157648
     9  H    0.145316
    10  H    0.165709
    11  C   -0.298944
    12  C   -0.299919
    13  C   -0.476188
    14  H    0.150305
    15  H    0.152057
    16  H    0.150631
    17  H    0.153442
    18  H    0.156424
    19  H    0.155625
    20  H    0.162127
    21  C   -0.176353
    22  C   -0.221933
    23  C   -0.170885
    24  C    0.158219
    25  C   -0.170684
    26  C   -0.220520
    27  H    0.235715
    28  H    0.224258
    29  H    0.275451
    30  H    0.275302
    31  H    0.223381
    32  N    0.488003
    33  O   -0.460620
    34  O   -0.460581
 Sum of Mulliken charges =  -0.00000

 Dipole moment (field-independent basis, Debye):
    X=             -5.1098    Y=              1.5675    Z=              1.0935  Tot=              5.4555
 Quadrupole moment (field-independent basis, Debye-Ang):
   XX=           -131.2764   YY=            -92.2878   ZZ=            -92.9465
   XY=              6.5131   XZ=              4.2771   YZ=             -3.1120

 Normal termination of Gaussian 16 at Thu May  6 20:20:57 2021.
