 Gaussian 16, Revision A.03,
 Gaussian 16:  EM64L-G16RevA.03 25-Dec-2016

 -------------
 #p 6-31g* mp2
 -------------

 ------------------------------------------------------
 Input file generated by CHIRIPA (05-May-2021 14:51:07)
 ------------------------------------------------------
 Symbolic Z-matrix:
 Charge =  0 Multiplicity = 1

                         Standard orientation:
 ---------------------------------------------------------------------
 Center     Atomic      Atomic             Coordinates (Angstroms)
 Number     Number       Type             X           Y           Z
 ---------------------------------------------------------------------
      1          6           0       -2.574267   -1.167717   -0.025417
      2          6           0       -1.567634   -1.147079    1.125344
      3          6           0       -0.482101   -2.214036    0.980383
      4          1           0       -3.039688   -2.161412   -0.079246
      5          1           0       -2.039299   -1.021328   -0.973981
      6          1           0       -2.104510   -1.292081    2.071576
      7          1           0       -1.104695   -0.153259    1.176560
      8          1           0        0.079101   -2.068934    0.051621
      9          1           0       -0.926394   -3.214228    0.951722
     10          1           0        0.226704   -2.181419    1.813685
     11          6           0       -3.665657   -0.106816    0.105295
     12          6           0       -4.672290   -0.127454   -1.045465
     13          6           0       -5.757823    0.939503   -0.900505
     14          1           0       -4.200625   -0.253205    1.053860
     15          1           0       -3.200236    0.886879    0.159124
     16          1           0       -5.135229   -1.121275   -1.096682
     17          1           0       -4.135414    0.017548   -1.991698
     18          1           0       -5.313530    1.939694   -0.871843
     19          1           0       -6.319025    0.794401    0.028257
     20          1           0       -6.466628    0.906886   -1.733807
     21          6           0        3.740295    0.219270    0.114652
     22          6           0        4.509625   -0.209325   -1.135317
     23          6           0        5.748043   -1.044858   -0.809742
     24          1           0        4.409371    0.792952    0.770527
     25          1           0        3.442159   -0.675747    0.678081
     26          1           0        4.805023    0.686184   -1.696939
     27          1           0        3.838586   -0.781888   -1.788381
     28          1           0        5.467663   -1.954912   -0.269565
     29          1           0        6.439590   -0.478498   -0.177603
     30          1           0        6.282967   -1.340448   -1.717675
     31          6           0        2.499630    1.055263   -0.194530
     32          6           0        1.730299    1.483858    1.055439
     33          6           0        0.491881    2.319392    0.729863
     34          1           0        2.797765    1.950281   -0.757959
     35          1           0        1.830553    0.481582   -0.850405
     36          1           0        2.401338    2.056422    1.708503
     37          1           0        1.434901    0.588350    1.617061
     38          1           0       -0.199667    1.753031    0.097725
     39          1           0        0.772262    3.229445    0.189687
     40          1           0       -0.043043    2.614981    1.637797
 ---------------------------------------------------------------------

 SCF Done:  E(RHF) =  -470.732895488     A.U. after   11 cycles
 E2 =    -0.1584005703D+01 EUMP2 =    -0.47231690119163D+03

 The electronic state is 1-A.
 Alpha  occ. eigenvalues --  -11.21631 -11.21607 -11.21599 -11.21554 -11.21426
 Alpha  occ. eigenvalues --  -11.21412 -11.21361 -11.21351 -11.21137 -11.21130
 Alpha  occ. eigenvalues --  -11.21069 -11.21062  -1.08480  -1.08411  -1.03613
 Alpha  occ. eigenvalues --   -1.03489  -0.96020  -0.95991  -0.87062  -0.86980
 Alpha  occ. eigenvalues --   -0.79633  -0.79589  -0.78264  -0.78250  -0.65339
 Alpha  occ. eigenvalues --   -0.64877  -0.61300  -0.60611  -0.59417  -0.59308
 Alpha  occ. eigenvalues --   -0.57646  -0.57575  -0.55324  -0.55276  -0.52729
 Alpha  occ. eigenvalues --   -0.52664  -0.52444  -0.52411  -0.50107  -0.49812
 Alpha  occ. eigenvalues --   -0.47968  -0.47888  -0.46675  -0.46585  -0.45874
 Alpha  occ. eigenvalues --   -0.45757  -0.45707  -0.45607  -0.43810  -0.43791
 Alpha virt. eigenvalues --    0.19519   0.22654   0.23844   0.24924   0.25679
 Alpha virt. eigenvalues --    0.26287   0.26431   0.27834   0.29112   0.29462
 Alpha virt. eigenvalues --    0.30726   0.31462   0.31625   0.32018   0.32293

 Mulliken charges:
               1
     1  C   -0.297864
     2  C   -0.310214
     3  C   -0.476563
     4  H    0.149764
     5  H    0.148477
     6  H    0.151857
     7  H    0.164360
     8  H    0.154843
     9  H    0.155598
    10  H    0.159893
    11  C   -0.299865
    12  C   -0.299578
    13  C   -0.475770
    14  H    0.149686
    15  H    0.151021
    16  H    0.151915
    17  H    0.151852
    18  H    0.155467
    19  H    0.155154
    20  H    0.160223
    21  C   -0.298891
    22  C   -0.299601
    23  C   -0.475770
    24  H    0.149607
    25  H    0.150582
    26  H    0.151833
    27  H    0.151809
    28  H    0.155474
    29  H    0.155136
    30  H    0.160256
    31  C   -0.298249
    32  C   -0.304066
    33  C   -0.479891
    34  H    0.149554
    35  H    0.149441
    36  H    0.152480
    37  H    0.156449
    38  H    0.156291
    39  H    0.156448
    40  H    0.160853
 Sum of Mulliken charges =  -0.00000

 Dipole moment (field-independent basis, Debye):
    X=              0.0089    Y=              0.0193    Z=              0.0200  Tot=              0.0292
 Quadrupole moment (field-independent basis, Debye-Ang):
   XX=            -85.6869   YY=            -84.5308   ZZ=            -84.5268
   XY=              2.0272   XZ=             -0.3700   YZ=             -0.2100

 Normal termination of Gaussian 16 at Wed May  5 15:02:38 2021.
