 Gaussian 16, Revision A.03,
 Gaussian 16:  EM64L-G16RevA.03 25-Dec-2016

 -------------
 #p 6-31g* mp2
 -------------

 ------------------------------------------------------
 Input file generated by CHIRIPA (05-May-2021 14:53:12)
 ------------------------------------------------------
 Symbolic Z-matrix:
 Charge =  0 Multiplicity = 1

                         Standard orientation:
 ---------------------------------------------------------------------
 Center     Atomic      Atomic             Coordinates (Angstroms)
 Number     Number       Type             X           Y           Z
 ---------------------------------------------------------------------
      1          6           0       -2.628942   -0.965930    0.119976
      2          6           0       -1.897025   -1.873711   -0.869072
      3          6           0       -0.566784   -2.392634   -0.322289
      4          1           0       -1.980730   -0.117212    0.377746
      5          1           0       -2.805630   -1.518932    1.052910
      6          1           0       -1.722997   -1.319607   -1.800361
      7          1           0       -2.547128   -2.720265   -1.124665
      8          1           0       -0.725754   -2.968583    0.595105
      9          1           0        0.103059   -1.559966   -0.084430
     10          1           0       -0.060398   -3.039471   -1.045500
     11          6           0       -3.960493   -0.439219   -0.412260
     12          6           0       -4.692409    0.468562    0.576788
     13          6           0       -6.022650    0.987485    0.030005
     14          1           0       -3.783805    0.113783   -1.345194
     15          1           0       -4.608704   -1.287936   -0.670030
     16          1           0       -4.042306    1.315117    0.832381
     17          1           0       -4.866437   -0.085542    1.508077
     18          1           0       -6.692493    0.154818   -0.207854
     19          1           0       -5.863680    1.563435   -0.887389
     20          1           0       -6.529036    1.634323    0.753216
     21          6           0        0.767097    2.308861    0.054835
     22          6           0        1.777050    2.309603   -0.912903
     23          6           0        2.783267    1.339273   -0.889777
     24          6           0        2.748682    0.378738    0.119910
     25          6           0        1.755890    0.351527    1.098129
     26          6           0        0.759753    1.331548    1.055498
     27          1           0       -0.010641    3.066401    0.029293
     28          1           0        1.785274    3.067377   -1.691206
     29          1           0        3.577004    1.316488   -1.626580
     30          1           0        1.774264   -0.416712    1.861602
     31          1           0       -0.023345    1.328524    1.808354
     32          7           0        3.808584   -0.653637    0.154718
     33          8           0        3.755678   -1.489020    1.054703
     34          8           0        4.672169   -0.607882   -0.718646
 ---------------------------------------------------------------------

 SCF Done:  E(RHF) =  -669.534805061     A.U. after   15 cycles
 E2 =    -0.2093508112D+01 EUMP2 =    -0.67162831317374D+03

 The electronic state is 1-A.
 Alpha  occ. eigenvalues --  -20.60809 -20.60801 -15.85863 -11.31280 -11.27857
 Alpha  occ. eigenvalues --  -11.27840 -11.27615 -11.26875 -11.26865 -11.22143
 Alpha  occ. eigenvalues --  -11.21830 -11.21790 -11.21737 -11.21535 -11.21004
 Alpha  occ. eigenvalues --   -1.59881  -1.39433  -1.19476  -1.08854  -1.08808
 Alpha  occ. eigenvalues --   -1.04888  -1.03842  -0.96285  -0.95673  -0.87304
 Alpha  occ. eigenvalues --   -0.86264  -0.82503  -0.79928  -0.78649  -0.77534
 Alpha  occ. eigenvalues --   -0.72080  -0.71207  -0.70567  -0.65467  -0.65116
 Alpha  occ. eigenvalues --   -0.64861  -0.62221  -0.61257  -0.59663  -0.57910
 Alpha  occ. eigenvalues --   -0.55616  -0.55368  -0.53300  -0.52992  -0.52941
 Alpha  occ. eigenvalues --   -0.52613  -0.50221  -0.48845  -0.48832  -0.48228
 Alpha  occ. eigenvalues --   -0.46970  -0.46174  -0.46098  -0.44821  -0.44109
 Alpha  occ. eigenvalues --   -0.37436  -0.36384
 Alpha virt. eigenvalues --    0.04983   0.11005   0.16433   0.20730   0.22695
 Alpha virt. eigenvalues --    0.24068   0.25555   0.26647   0.27332   0.28381
 Alpha virt. eigenvalues --    0.28748   0.30718   0.31178   0.31575   0.31837

 Mulliken charges:
               1
     1  C   -0.301226
     2  C   -0.298237
     3  C   -0.483180
     4  H    0.144512
     5  H    0.149145
     6  H    0.151441
     7  H    0.152868
     8  H    0.154251
     9  H    0.160070
    10  H    0.164321
    11  C   -0.298099
    12  C   -0.298459
    13  C   -0.475708
    14  H    0.148832
    15  H    0.152186
    16  H    0.144727
    17  H    0.153049
    18  H    0.157416
    19  H    0.154772
    20  H    0.160478
    21  C   -0.171963
    22  C   -0.218258
    23  C   -0.170737
    24  C    0.162123
    25  C   -0.177320
    26  C   -0.215214
    27  H    0.226199
    28  H    0.223931
    29  H    0.276162
    30  H    0.277856
    31  H    0.225754
    32  N    0.488404
    33  O   -0.459718
    34  O   -0.460378
 Sum of Mulliken charges =  -0.00000

 Dipole moment (field-independent basis, Debye):
    X=             -3.6562    Y=              3.6216    Z=             -0.1452  Tot=              5.1483
 Quadrupole moment (field-independent basis, Debye-Ang):
   XX=           -115.6076   YY=            -91.2128   ZZ=            -91.6388
   XY=             10.5451   XZ=             -3.1100   YZ=             -1.7297

 Normal termination of Gaussian 16 at Thu May  6 10:26:56 2021.
