 Gaussian 16, Revision A.03,
 Gaussian 16:  EM64L-G16RevA.03 25-Dec-2016

 -------------
 #p 6-31g* mp2
 -------------

 ------------------------------------------------------
 Input file generated by CHIRIPA (05-May-2021 14:57:25)
 ------------------------------------------------------
 Symbolic Z-matrix:
 Charge =  0 Multiplicity = 1

                         Standard orientation:
 ---------------------------------------------------------------------
 Center     Atomic      Atomic             Coordinates (Angstroms)
 Number     Number       Type             X           Y           Z
 ---------------------------------------------------------------------
      1          6           0        1.505015   -2.062120    0.998923
      2          6           0        1.006462   -0.758646    0.904470
      3          6           0        1.802074    0.270443    0.392097
      4          6           0        3.097413   -0.040824   -0.018388
      5          6           0        3.622739   -1.329502    0.063053
      6          6           0        2.809263   -2.342893    0.578654
      7          1           0        0.880027   -2.855444    1.398201
      8          1           0       -0.006053   -0.537678    1.230094
      9          1           0        1.441350    1.288378    0.307800
     10          1           0        4.636074   -1.519049   -0.269574
     11          1           0        3.199092   -3.354262    0.650837
     12          7           0        3.949147    1.040317   -0.562523
     13          8           0        5.086957    0.740150   -0.917383
     14          8           0        3.462799    2.167411   -0.623853
     15          6           0       -2.485749    2.425935    1.057110
     16          6           0       -2.752238    2.384328   -0.315397
     17          6           0       -3.014717    1.167159   -0.951125
     18          6           0       -3.002599    0.005652   -0.180382
     19          6           0       -2.740555    0.014489    1.188759
     20          6           0       -2.480766    1.242968    1.803491
     21          1           0       -2.282894    3.375855    1.542803
     22          1           0       -2.756769    3.301454   -0.897553
     23          1           0       -3.224082    1.106166   -2.012193
     24          1           0       -2.743010   -0.916425    1.742665
     25          1           0       -2.274128    1.272264    2.869553
     26          7           0       -3.279050   -1.288898   -0.842285
     27          8           0       -3.262488   -2.298106   -0.140956
     28          8           0       -3.507059   -1.269845   -2.049880
 ---------------------------------------------------------------------

 SCF Done:  E(RHF) =  -868.337893307     A.U. after   16 cycles
 E2 =    -0.2601317048D+01 EUMP2 =    -0.87093921035512D+03

 The electronic state is 1-A.
 Alpha  occ. eigenvalues --  -20.61574 -20.61537 -20.60790 -20.60773 -15.86616
 Alpha  occ. eigenvalues --  -15.85834 -11.32096 -11.31104 -11.28707 -11.28578
 Alpha  occ. eigenvalues --  -11.28340 -11.27729 -11.27673 -11.27652 -11.27588
 Alpha  occ. eigenvalues --  -11.27330 -11.26627 -11.26552  -1.60631  -1.59860
 Alpha  occ. eigenvalues --   -1.40183  -1.39418  -1.20278  -1.19257  -1.09616
 Alpha  occ. eigenvalues --   -1.08661  -1.05693  -1.04645  -0.96441  -0.95516
 Alpha  occ. eigenvalues --   -0.87050  -0.86052  -0.83265  -0.82355  -0.78314
 Alpha  occ. eigenvalues --   -0.77431  -0.72825  -0.72057  -0.71959  -0.71316
 Alpha  occ. eigenvalues --   -0.71181  -0.70349  -0.65898  -0.65631  -0.64904
 Alpha  occ. eigenvalues --   -0.64680  -0.63004  -0.62032  -0.56100  -0.55158
 Alpha  occ. eigenvalues --   -0.54075  -0.53725  -0.52980  -0.52619  -0.49597
 Alpha  occ. eigenvalues --   -0.49575  -0.48817  -0.48800  -0.45564  -0.44845
 Alpha  occ. eigenvalues --   -0.38235  -0.37287  -0.37202  -0.36247
 Alpha virt. eigenvalues --    0.04176   0.05107   0.10261   0.11421   0.15634
 Alpha virt. eigenvalues --    0.16640   0.20450   0.21832   0.26205   0.27347
 Alpha virt. eigenvalues --    0.27885   0.28664   0.30356   0.31524   0.31697

 Mulliken charges:
               1
     1  C   -0.171814
     2  C   -0.224238
     3  C   -0.175316
     4  C    0.158908
     5  C   -0.171280
     6  C   -0.218189
     7  H    0.229628
     8  H    0.228748
     9  H    0.271926
    10  H    0.275280
    11  H    0.224301
    12  N    0.488352
    13  O   -0.460023
    14  O   -0.463535
    15  C   -0.172366
    16  C   -0.217417
    17  C   -0.169850
    18  C    0.165147
    19  C   -0.190201
    20  C   -0.220825
    21  H    0.231426
    22  H    0.230038
    23  H    0.279994
    24  H    0.274311
    25  H    0.226994
    26  N    0.488604
    27  O   -0.463421
    28  O   -0.455181
 Sum of Mulliken charges =  -0.00000

 Dipole moment (field-independent basis, Debye):
    X=             -2.2956    Y=              0.8517    Z=              4.1027  Tot=              4.7778
 Quadrupole moment (field-independent basis, Debye-Ang):
   XX=           -127.1505   YY=           -101.3758   ZZ=           -102.6206
   XY=            -29.3816   XZ=             -0.8856   YZ=             -2.6579

 Normal termination of Gaussian 16 at Fri May  7 11:08:38 2021.
