 Gaussian 16, Revision A.03,
 Gaussian 16:  EM64L-G16RevA.03 25-Dec-2016

 -------------
 #p 6-31g* mp2
 -------------

 ------------------------------------------------------
 Input file generated by CHIRIPA (05-May-2021 14:55:21)
 ------------------------------------------------------
 Symbolic Z-matrix:
 Charge =  0 Multiplicity = 1

                         Standard orientation:
 ---------------------------------------------------------------------
 Center     Atomic      Atomic             Coordinates (Angstroms)
 Number     Number       Type             X           Y           Z
 ---------------------------------------------------------------------
      1          6           0        2.136261    2.634627   -0.022667
      2          6           0        1.615746    1.988268   -1.148636
      3          6           0        1.805859    0.615171   -1.330324
      4          6           0        2.524678   -0.083895   -0.361874
      5          6           0        3.055675    0.531597    0.770602
      6          6           0        2.853300    1.905514    0.931676
      7          1           0        1.983814    3.701600    0.110466
      8          1           0        1.058476    2.551976   -1.891420
      9          1           0        1.413832    0.089642   -2.192619
     10          1           0        3.606887   -0.057006    1.493880
     11          1           0        3.258684    2.404849    1.807103
     12          7           0        2.732432   -1.537965   -0.543307
     13          8           0        3.369345   -2.131326    0.324392
     14          8           0        2.254423   -2.056771   -1.549778
     15          6           0       -2.752489   -0.394484    1.021497
     16          6           0       -1.254027   -0.259922    0.748568
     17          6           0       -0.396337   -0.653882    1.951462
     18          1           0       -3.019177    0.231016    1.884383
     19          1           0       -2.974357   -1.432075    1.307112
     20          1           0       -1.035268    0.776784    0.462210
     21          1           0       -0.990911   -0.885667   -0.113888
     22          1           0       -0.585475   -1.694208    2.235273
     23          1           0       -0.630084   -0.022311    2.814644
     24          1           0        0.671371   -0.550181    1.734424
     25          6           0       -3.623030   -0.004245   -0.171650
     26          6           0       -5.121492   -0.138807    0.101279
     27          6           0       -5.979182    0.255152   -1.101616
     28          1           0       -3.401162    1.033345   -0.457265
     29          1           0       -3.356342   -0.629745   -1.034536
     30          1           0       -5.384608    0.486938    0.963735
     31          1           0       -5.340251   -1.175513    0.387637
     32          1           0       -5.745435   -0.376418   -1.964797
     33          1           0       -5.790045    1.295479   -1.385426
     34          1           0       -7.046890    0.151452   -0.884577
 ---------------------------------------------------------------------

 SCF Done:  E(RHF) =  -669.534157997     A.U. after   15 cycles
 E2 =    -0.2094830621D+01 EUMP2 =    -0.67162898861793D+03

 The electronic state is 1-A.
 Alpha  occ. eigenvalues --  -20.60838 -20.60830 -15.85877 -11.31217 -11.27822
 Alpha  occ. eigenvalues --  -11.27793 -11.27584 -11.26842 -11.26832 -11.21641
 Alpha  occ. eigenvalues --  -11.21486 -11.21431 -11.21317 -11.21138 -11.20835
 Alpha  occ. eigenvalues --   -1.59905  -1.39459  -1.19444  -1.08831  -1.08416
 Alpha  occ. eigenvalues --   -1.04841  -1.03497  -0.95958  -0.95654  -0.86973
 Alpha  occ. eigenvalues --   -0.86234  -0.82488  -0.79569  -0.78242  -0.77532
 Alpha  occ. eigenvalues --   -0.72100  -0.71246  -0.70543  -0.65089  -0.65044
 Alpha  occ. eigenvalues --   -0.64834  -0.62181  -0.60889  -0.59421  -0.57681
 Alpha  occ. eigenvalues --   -0.55340  -0.55232  -0.53436  -0.52924  -0.52476
 Alpha  occ. eigenvalues --   -0.52091  -0.49883  -0.48860  -0.48856  -0.47921
 Alpha  occ. eigenvalues --   -0.46600  -0.45790  -0.45704  -0.44853  -0.43779
 Alpha  occ. eigenvalues --   -0.37359  -0.36340
 Alpha virt. eigenvalues --    0.04982   0.11099   0.16475   0.21313   0.22872
 Alpha virt. eigenvalues --    0.24287   0.26552   0.26983   0.27508   0.28063
 Alpha virt. eigenvalues --    0.28331   0.30616   0.31354   0.31717   0.31934

 Mulliken charges:
               1
     1  C   -0.171693
     2  C   -0.217764
     3  C   -0.167677
     4  C    0.161639
     5  C   -0.178494
     6  C   -0.213906
     7  H    0.225978
     8  H    0.224005
     9  H    0.275887
    10  H    0.276062
    11  H    0.224034
    12  N    0.489830
    13  O   -0.460089
    14  O   -0.460751
    15  C   -0.298355
    16  C   -0.302234
    17  C   -0.480426
    18  H    0.147827
    19  H    0.151948
    20  H    0.149075
    21  H    0.154146
    22  H    0.159264
    23  H    0.151076
    24  H    0.163159
    25  C   -0.297978
    26  C   -0.299551
    27  C   -0.475668
    28  H    0.145098
    29  H    0.150968
    30  H    0.151208
    31  H    0.153619
    32  H    0.155894
    33  H    0.153268
    34  H    0.160602
 Sum of Mulliken charges =  -0.00000

 Dipole moment (field-independent basis, Debye):
    X=             -0.6352    Y=              5.1053    Z=              0.5942  Tot=              5.1789
 Quadrupole moment (field-independent basis, Debye-Ang):
   XX=            -98.4068   YY=            -95.2575   ZZ=            -92.3289
   XY=             13.4106   XZ=              3.8898   YZ=             -1.5836

 Normal termination of Gaussian 16 at Thu May  6 17:32:05 2021.
