 Gaussian 16, Revision A.03,
 Gaussian 16:  EM64L-G16RevA.03 25-Dec-2016

 -------------
 #p 6-31g* mp2
 -------------

 ------------------------------------------------------
 Input file generated by CHIRIPA (05-May-2021 14:53:15)
 ------------------------------------------------------
 Symbolic Z-matrix:
 Charge =  0 Multiplicity = 1

                         Standard orientation:
 ---------------------------------------------------------------------
 Center     Atomic      Atomic             Coordinates (Angstroms)
 Number     Number       Type             X           Y           Z
 ---------------------------------------------------------------------
      1          6           0       -4.473578    0.168613    0.518825
      2          6           0       -3.613857    1.414669    0.303864
      3          6           0       -2.288343    1.356626    1.063757
      4          1           0       -4.670044    0.047294    1.592896
      5          1           0       -3.907090   -0.718216    0.202566
      6          1           0       -4.182315    2.299017    0.619142
      7          1           0       -3.419575    1.533143   -0.769838
      8          1           0       -1.698060    0.492097    0.743200
      9          1           0       -2.465134    1.262322    2.140072
     10          1           0       -1.689599    2.257291    0.895929
     11          6           0       -5.801922    0.211767   -0.234413
     12          6           0       -6.661644   -1.034289   -0.019451
     13          6           0       -7.987157   -0.976245   -0.779345
     14          1           0       -6.368411    1.098596    0.081846
     15          1           0       -5.605456    0.333086   -1.308484
     16          1           0       -6.855926   -1.152763    1.054250
     17          1           0       -6.093185   -1.918636   -0.334730
     18          1           0       -7.810367   -0.881942   -1.855660
     19          1           0       -8.577441   -0.111717   -0.458788
     20          1           0       -8.585901   -1.876911   -0.611517
     21          6           0        1.494589   -0.070342   -0.225276
     22          6           0        2.248048    1.039787   -0.620793
     23          6           0        3.644483    1.007648   -0.561762
     24          6           0        4.257422   -0.156150   -0.100060
     25          6           0        3.534376   -1.278456    0.301092
     26          6           0        2.139021   -1.223886    0.233596
     27          1           0        0.410225   -0.036664   -0.274421
     28          1           0        1.750267    1.936985   -0.977576
     29          1           0        4.252178    1.852729   -0.861702
     30          1           0        4.058972   -2.158703    0.652349
     31          1           0        1.556431   -2.087532    0.541415
     32          7           0        5.735193   -0.202047   -0.033085
     33          8           0        6.251229   -1.239281    0.377390
     34          8           0        6.349453    0.800082   -0.392335
 ---------------------------------------------------------------------

 SCF Done:  E(RHF) =  -669.535446996     A.U. after   15 cycles
 E2 =    -0.2090721214D+01 EUMP2 =    -0.67162616820974D+03

 The electronic state is 1-A.
 Alpha  occ. eigenvalues --  -20.60721 -20.60716 -15.85775 -11.31131 -11.27704
 Alpha  occ. eigenvalues --  -11.27700 -11.27409 -11.26712 -11.26701 -11.22545
 Alpha  occ. eigenvalues --  -11.22280 -11.22195 -11.22155 -11.22018 -11.21532
 Alpha  occ. eigenvalues --   -1.59798  -1.39351  -1.19303  -1.09187  -1.08696
 Alpha  occ. eigenvalues --   -1.04707  -1.04309  -0.96774  -0.95533  -0.87792
 Alpha  occ. eigenvalues --   -0.86103  -0.82371  -0.80377  -0.78965  -0.77419
 Alpha  occ. eigenvalues --   -0.71993  -0.71121  -0.70428  -0.65819  -0.64954
 Alpha  occ. eigenvalues --   -0.64713  -0.62057  -0.61717  -0.60152  -0.58365
 Alpha  occ. eigenvalues --   -0.56181  -0.55138  -0.53462  -0.53179  -0.53028
 Alpha  occ. eigenvalues --   -0.52799  -0.50702  -0.48759  -0.48749  -0.48678
 Alpha  occ. eigenvalues --   -0.47402  -0.46513  -0.46419  -0.44759  -0.44546
 Alpha  occ. eigenvalues --   -0.37272  -0.36315
 Alpha virt. eigenvalues --    0.05112   0.11339   0.16578   0.19866   0.22431
 Alpha virt. eigenvalues --    0.23771   0.25476   0.26318   0.26818   0.27282
 Alpha virt. eigenvalues --    0.28954   0.30007   0.30950   0.31392   0.32361

 Mulliken charges:
               1
     1  C   -0.298355
     2  C   -0.300183
     3  C   -0.479204
     4  H    0.151778
     5  H    0.146899
     6  H    0.156271
     7  H    0.151228
     8  H    0.145755
     9  H    0.161872
    10  H    0.160507
    11  C   -0.298811
    12  C   -0.300087
    13  C   -0.476093
    14  H    0.151256
    15  H    0.150057
    16  H    0.152895
    17  H    0.151673
    18  H    0.155655
    19  H    0.156132
    20  H    0.161757
    21  C   -0.174273
    22  C   -0.220953
    23  C   -0.170836
    24  C    0.158302
    25  C   -0.170798
    26  C   -0.220633
    27  H    0.233961
    28  H    0.223535
    29  H    0.275356
    30  H    0.275388
    31  H    0.223125
    32  N    0.488037
    33  O   -0.460608
    34  O   -0.460607
 Sum of Mulliken charges =  -0.00000

 Dipole moment (field-independent basis, Debye):
    X=             -5.4546    Y=              0.2053    Z=             -0.1938  Tot=              5.4619
 Quadrupole moment (field-independent basis, Debye-Ang):
   XX=           -139.6759   YY=            -90.2569   ZZ=            -94.3691
   XY=              1.3309   XZ=             -1.5547   YZ=             -1.5352

 Normal termination of Gaussian 16 at Thu May  6 18:48:15 2021.
