 Gaussian 16, Revision A.03,
 Gaussian 16:  EM64L-G16RevA.03 25-Dec-2016

 -------------
 #p 6-31g* mp2
 -------------

 ------------------------------------------------------
 Input file generated by CHIRIPA (05-May-2021 14:53:16)
 ------------------------------------------------------
 Symbolic Z-matrix:
 Charge =  0 Multiplicity = 1

                         Standard orientation:
 ---------------------------------------------------------------------
 Center     Atomic      Atomic             Coordinates (Angstroms)
 Number     Number       Type             X           Y           Z
 ---------------------------------------------------------------------
      1          6           0       -2.338245    0.609500   -0.693764
      2          6           0       -2.799810    2.064527   -0.605221
      3          6           0       -1.915897    3.015303   -1.413007
      4          1           0       -1.300885    0.538332   -0.339131
      5          1           0       -2.330403    0.298088   -1.747498
      6          1           0       -2.808104    2.372673    0.448151
      7          1           0       -3.836255    2.132208   -0.959927
      8          1           0       -1.915840    2.735501   -2.471455
      9          1           0       -0.881847    2.977332   -1.055377
     10          1           0       -2.263842    4.050104   -1.335663
     11          6           0       -3.211942   -0.353111    0.108583
     12          6           0       -2.750377   -1.808138    0.020041
     13          6           0       -3.634290   -2.758915    0.827826
     14          1           0       -3.219784   -0.041699    1.162318
     15          1           0       -4.249302   -0.281943   -0.246050
     16          1           0       -1.713932   -1.875820    0.374746
     17          1           0       -2.742083   -2.116285   -1.033331
     18          1           0       -4.668340   -2.720944    0.470196
     19          1           0       -3.634347   -2.479112    1.886274
     20          1           0       -3.286345   -3.793715    0.750483
     21          6           0        1.495933    1.930658    1.566498
     22          6           0        2.622301    1.979199    0.738572
     23          6           0        3.004020    0.860021   -0.007272
     24          6           0        2.233019   -0.296483    0.099242
     25          6           0        1.105596   -0.376040    0.915256
     26          6           0        0.742504    0.755265    1.652046
     27          1           0        1.206641    2.804772    2.142371
     28          1           0        3.209306    2.890677    0.670165
     29          1           0        3.871431    0.870076   -0.656050
     30          1           0        0.540264   -1.298843    0.962709
     31          1           0       -0.132728    0.714683    2.294205
     32          7           0        2.627268   -1.487725   -0.685557
     33          8           0        1.931278   -2.494620   -0.574211
     34          8           0        3.624803   -1.391970   -1.397169
 ---------------------------------------------------------------------

 SCF Done:  E(RHF) =  -669.534294930     A.U. after   15 cycles
 E2 =    -0.2094644873D+01 EUMP2 =    -0.67162893980303D+03

 The electronic state is 1-A.
 Alpha  occ. eigenvalues --  -20.60833 -20.60828 -15.85888 -11.31299 -11.27863
 Alpha  occ. eigenvalues --  -11.27857 -11.27630 -11.26904 -11.26895 -11.21937
 Alpha  occ. eigenvalues --  -11.21886 -11.21723 -11.21491 -11.21363 -11.21265
 Alpha  occ. eigenvalues --   -1.59907  -1.39459  -1.19492  -1.08874  -1.08722
 Alpha  occ. eigenvalues --   -1.04907  -1.03811  -0.96245  -0.95695  -0.87263
 Alpha  occ. eigenvalues --   -0.86288  -0.82532  -0.79876  -0.78550  -0.77554
 Alpha  occ. eigenvalues --   -0.72106  -0.71230  -0.70594  -0.65453  -0.65110
 Alpha  occ. eigenvalues --   -0.64902  -0.62242  -0.61217  -0.59600  -0.57851
 Alpha  occ. eigenvalues --   -0.55568  -0.55387  -0.53287  -0.53032  -0.52898
 Alpha  occ. eigenvalues --   -0.52637  -0.50201  -0.48870  -0.48858  -0.48172
 Alpha  occ. eigenvalues --   -0.46924  -0.46050  -0.46007  -0.44847  -0.44050
 Alpha  occ. eigenvalues --   -0.37464  -0.36372
 Alpha virt. eigenvalues --    0.04932   0.11072   0.16341   0.19638   0.23132
 Alpha virt. eigenvalues --    0.23607   0.25632   0.25996   0.27433   0.28312
 Alpha virt. eigenvalues --    0.29334   0.30988   0.31240   0.31524   0.31791

 Mulliken charges:
               1
     1  C   -0.308596
     2  C   -0.297624
     3  C   -0.477563
     4  H    0.158142
     5  H    0.152918
     6  H    0.144564
     7  H    0.153392
     8  H    0.158059
     9  H    0.154853
    10  H    0.158721
    11  C   -0.298737
    12  C   -0.302445
    13  C   -0.475804
    14  H    0.141324
    15  H    0.152137
    16  H    0.147169
    17  H    0.159409
    18  H    0.156565
    19  H    0.151426
    20  H    0.165084
    21  C   -0.170925
    22  C   -0.218835
    23  C   -0.170385
    24  C    0.160504
    25  C   -0.177776
    26  C   -0.221005
    27  H    0.226764
    28  H    0.224398
    29  H    0.276256
    30  H    0.284961
    31  H    0.225536
    32  N    0.487527
    33  O   -0.460005
    34  O   -0.460008
 Sum of Mulliken charges =  -0.00000

 Dipole moment (field-independent basis, Debye):
    X=             -1.3034    Y=              4.1111    Z=              2.6757  Tot=              5.0754
 Quadrupole moment (field-independent basis, Debye-Ang):
   XX=            -98.1407   YY=            -97.0225   ZZ=            -93.7096
   XY=             12.1959   XZ=              5.5064   YZ=             -0.7740

 Normal termination of Gaussian 16 at Thu May  6 01:08:35 2021.
