 Gaussian 16, Revision A.03,
 Gaussian 16:  EM64L-G16RevA.03 25-Dec-2016

 -------------
 #p 6-31g* mp2
 -------------

 ------------------------------------------------------
 Input file generated by CHIRIPA (05-May-2021 14:55:22)
 ------------------------------------------------------
 Symbolic Z-matrix:
 Charge =  0 Multiplicity = 1

                         Standard orientation:
 ---------------------------------------------------------------------
 Center     Atomic      Atomic             Coordinates (Angstroms)
 Number     Number       Type             X           Y           Z
 ---------------------------------------------------------------------
      1          6           0       -1.239652   -1.173468    0.462141
      2          6           0       -2.370190   -1.859839    0.917444
      3          6           0       -3.653055   -1.382792    0.632436
      4          6           0       -3.769149   -0.211033   -0.113751
      5          6           0       -2.662089    0.495334   -0.581461
      6          6           0       -1.388946   -0.000141   -0.284542
      7          1           0       -0.246868   -1.551208    0.688169
      8          1           0       -2.257266   -2.771314    1.497536
      9          1           0       -4.545329   -1.894287    0.972492
     10          1           0       -2.806479    1.401263   -1.157535
     11          1           0       -0.512743    0.534986   -0.639438
     12          7           0       -5.122114    0.303750   -0.421781
     13          8           0       -5.197527    1.338328   -1.081022
     14          8           0       -6.081538   -0.337089    0.001858
     15          6           0        5.202681    0.276696   -0.283618
     16          6           0        5.714296   -1.162809   -0.219894
     17          6           0        7.042737   -1.351050   -0.953110
     18          1           0        5.087590    0.571968   -1.335528
     19          1           0        5.959016    0.946718    0.148150
     20          1           0        4.956636   -1.830068   -0.650394
     21          1           0        5.828001   -1.454753    0.831989
     22          1           0        7.816343   -0.708972   -0.519670
     23          1           0        6.940027   -1.086420   -2.010476
     24          1           0        7.390086   -2.387304   -0.894923
     25          6           0        3.875498    0.480746    0.444856
     26          6           0        3.363882    1.920251    0.381132
     27          6           0        2.035443    2.108492    1.114348
     28          1           0        3.119163   -0.189276    0.013087
     29          1           0        3.990589    0.185475    1.496766
     30          1           0        3.250178    2.212194   -0.670751
     31          1           0        4.121544    2.587509    0.811633
     32          1           0        2.138153    1.843862    2.171714
     33          1           0        1.261836    1.466414    0.680908
     34          1           0        1.688093    3.144746    1.056161
 ---------------------------------------------------------------------

 SCF Done:  E(RHF) =  -669.535401145     A.U. after   15 cycles
 E2 =    -0.2091099894D+01 EUMP2 =    -0.67162650103886D+03

 The electronic state is 1-A.
 Alpha  occ. eigenvalues --  -20.60747 -20.60742 -15.85801 -11.31169 -11.27743
 Alpha  occ. eigenvalues --  -11.27738 -11.27484 -11.26753 -11.26739 -11.22448
 Alpha  occ. eigenvalues --  -11.22276 -11.22241 -11.22072 -11.22033 -11.21591
 Alpha  occ. eigenvalues --   -1.59822  -1.39376  -1.19344  -1.09209  -1.08738
 Alpha  occ. eigenvalues --   -1.04750  -1.04283  -0.96740  -0.95571  -0.87755
 Alpha  occ. eigenvalues --   -0.86149  -0.82404  -0.80348  -0.79018  -0.77453
 Alpha  occ. eigenvalues --   -0.72020  -0.71145  -0.70449  -0.65859  -0.64997
 Alpha  occ. eigenvalues --   -0.64777  -0.62160  -0.61632  -0.60102  -0.58338
 Alpha  occ. eigenvalues --   -0.56058  -0.55239  -0.53411  -0.53231  -0.53047
 Alpha  occ. eigenvalues --   -0.52804  -0.50667  -0.48790  -0.48774  -0.48644
 Alpha  occ. eigenvalues --   -0.47382  -0.46557  -0.46478  -0.44781  -0.44536
 Alpha  occ. eigenvalues --   -0.37318  -0.36345
 Alpha virt. eigenvalues --    0.05088   0.11205   0.16573   0.19282   0.22559
 Alpha virt. eigenvalues --    0.23767   0.25368   0.26428   0.26650   0.28044
 Alpha virt. eigenvalues --    0.28907   0.30102   0.30972   0.31419   0.31677

 Mulliken charges:
               1
     1  C   -0.171711
     2  C   -0.218671
     3  C   -0.170868
     4  C    0.158564
     5  C   -0.171512
     6  C   -0.220070
     7  H    0.226284
     8  H    0.223460
     9  H    0.275600
    10  H    0.275824
    11  H    0.226835
    12  N    0.488044
    13  O   -0.460407
    14  O   -0.460479
    15  C   -0.298673
    16  C   -0.299950
    17  C   -0.476096
    18  H    0.150836
    19  H    0.152151
    20  H    0.150238
    21  H    0.152392
    22  H    0.156572
    23  H    0.156142
    24  H    0.161582
    25  C   -0.297077
    26  C   -0.300782
    27  C   -0.478641
    28  H    0.140798
    29  H    0.151102
    30  H    0.152370
    31  H    0.156354
    32  H    0.158856
    33  H    0.145730
    34  H    0.165201
 Sum of Mulliken charges =  -0.00000

 Dipole moment (field-independent basis, Debye):
    X=              4.9479    Y=             -1.7624    Z=              1.1223  Tot=              5.3710
 Quadrupole moment (field-independent basis, Debye-Ang):
   XX=           -130.1964   YY=            -91.1609   ZZ=            -93.8443
   XY=              8.2565   XZ=             -4.8580   YZ=             -2.1561

 Normal termination of Gaussian 16 at Thu May  6 06:13:50 2021.
