 Gaussian 16, Revision A.03,
 Gaussian 16:  EM64L-G16RevA.03 25-Dec-2016

 -------------
 #p 6-31g* mp2
 -------------

 ------------------------------------------------------
 Input file generated by CHIRIPA (05-May-2021 14:53:15)
 ------------------------------------------------------
 Symbolic Z-matrix:
 Charge =  0 Multiplicity = 1

                         Standard orientation:
 ---------------------------------------------------------------------
 Center     Atomic      Atomic             Coordinates (Angstroms)
 Number     Number       Type             X           Y           Z
 ---------------------------------------------------------------------
      1          6           0        3.996022   -0.749074    0.320159
      2          6           0        2.718888   -1.560830    0.539177
      3          6           0        3.000493   -3.010450    0.935527
      4          1           0        4.601251   -1.232716   -0.458772
      5          1           0        4.596839   -0.768586    1.239959
      6          1           0        2.120005   -1.538642   -0.380314
      7          1           0        2.116539   -1.075094    1.317541
      8          1           0        3.577552   -3.050533    1.865041
      9          1           0        3.581038   -3.516715    0.157539
     10          1           0        2.073676   -3.572500    1.087085
     11          6           0        3.730888    0.702139   -0.076593
     12          6           0        5.008022    1.513895   -0.295611
     13          6           0        4.726417    2.963515   -0.691961
     14          1           0        3.130071    0.721651   -0.996393
     15          1           0        3.125659    1.185781    0.702337
     16          1           0        5.610371    1.028159   -1.073975
     17          1           0        5.606905    1.491707    0.623879
     18          1           0        4.145872    3.469780    0.086026
     19          1           0        4.149358    3.003598   -1.621475
     20          1           0        5.653234    3.525565   -0.843520
     21          6           0       -4.734874    1.708133    0.655829
     22          6           0       -5.139578    0.551872   -0.019299
     23          6           0       -4.197193   -0.391233   -0.440026
     24          6           0       -2.852374   -0.145030   -0.167744
     25          6           0       -2.417850    0.997282    0.502782
     26          6           0       -3.377695    1.926762    0.914258
     27          1           0       -5.473724    2.435467    0.979068
     28          1           0       -6.192900    0.379457   -0.221366
     29          1           0       -4.482877   -1.294929   -0.964557
     30          1           0       -1.360662    1.141498    0.689789
     31          1           0       -3.060501    2.823832    1.438375
     32          7           0       -1.845472   -1.136240   -0.608253
     33          8           0       -0.666752   -0.895987   -0.356193
     34          8           0       -2.254047   -2.134637   -1.197242
 ---------------------------------------------------------------------

 SCF Done:  E(RHF) =  -669.535795001     A.U. after   15 cycles
 E2 =    -0.2091101715D+01 EUMP2 =    -0.67162689671628D+03

 The electronic state is 1-A.
 Alpha  occ. eigenvalues --  -20.60904 -20.60896 -15.85938 -11.31273 -11.27839
 Alpha  occ. eigenvalues --  -11.27834 -11.27579 -11.26849 -11.26839 -11.21043
 Alpha  occ. eigenvalues --  -11.20688 -11.20614 -11.20373 -11.20068 -11.19839
 Alpha  occ. eigenvalues --   -1.59970  -1.39525  -1.19443  -1.08846  -1.07527
 Alpha  occ. eigenvalues --   -1.04841  -1.02595  -0.95687  -0.95111  -0.86241
 Alpha  occ. eigenvalues --   -0.86138  -0.82523  -0.78695  -0.77592  -0.77220
 Alpha  occ. eigenvalues --   -0.72154  -0.71286  -0.70551  -0.65098  -0.64845
 Alpha  occ. eigenvalues --   -0.64171  -0.62188  -0.60000  -0.58502  -0.56666
 Alpha  occ. eigenvalues --   -0.55345  -0.54431  -0.53173  -0.52933  -0.51813
 Alpha  occ. eigenvalues --   -0.51526  -0.49119  -0.48930  -0.48915  -0.46977
 Alpha  occ. eigenvalues --   -0.45735  -0.44976  -0.44776  -0.44630  -0.42862
 Alpha  occ. eigenvalues --   -0.37424  -0.36443
 Alpha virt. eigenvalues --    0.04955   0.11211   0.16448   0.21307   0.23638
 Alpha virt. eigenvalues --    0.25197   0.27039   0.27555   0.27861   0.28693
 Alpha virt. eigenvalues --    0.28928   0.30959   0.32118   0.32371   0.32927

 Mulliken charges:
               1
     1  C   -0.298758
     2  C   -0.300256
     3  C   -0.476114
     4  H    0.147021
     5  H    0.144025
     6  H    0.175096
     7  H    0.148374
     8  H    0.147606
     9  H    0.151569
    10  H    0.164263
    11  C   -0.296308
    12  C   -0.298807
    13  C   -0.474883
    14  H    0.152917
    15  H    0.144528
    16  H    0.151639
    17  H    0.150048
    18  H    0.151883
    19  H    0.154812
    20  H    0.158333
    21  C   -0.170641
    22  C   -0.218610
    23  C   -0.170588
    24  C    0.157609
    25  C   -0.170994
    26  C   -0.218549
    27  H    0.225917
    28  H    0.223714
    29  H    0.275770
    30  H    0.276068
    31  H    0.223808
    32  N    0.492306
    33  O   -0.462965
    34  O   -0.459832
 Sum of Mulliken charges =  -0.00000

 Dipole moment (field-independent basis, Debye):
    X=             -3.8538    Y=              3.4285    Z=              1.4469  Tot=              5.3572
 Quadrupole moment (field-independent basis, Debye-Ang):
   XX=            -73.3781   YY=            -96.0873   ZZ=            -94.5537
   XY=             -7.3185   XZ=             -2.6881   YZ=              1.3545

 Normal termination of Gaussian 16 at Thu May  6 18:48:43 2021.
