 Gaussian 16, Revision A.03,
 Gaussian 16:  EM64L-G16RevA.03 25-Dec-2016

 -------------
 #p 6-31g* mp2
 -------------

 ------------------------------------------------------
 Input file generated by CHIRIPA (05-May-2021 14:51:09)
 ------------------------------------------------------
 Symbolic Z-matrix:
 Charge =  0 Multiplicity = 1

                         Standard orientation:
 ---------------------------------------------------------------------
 Center     Atomic      Atomic             Coordinates (Angstroms)
 Number     Number       Type             X           Y           Z
 ---------------------------------------------------------------------
      1          6           0       -2.982608   -0.363774    0.752068
      2          6           0       -1.618531   -0.942477    0.374733
      3          6           0       -0.583552   -0.792084    1.490078
      4          1           0       -2.865723    0.698937    1.004909
      5          1           0       -3.346299   -0.863106    1.660798
      6          1           0       -1.258150   -0.443170   -0.533802
      7          1           0       -1.738707   -2.003886    0.122575
      8          1           0       -0.917613   -1.305634    2.397421
      9          1           0       -0.434326    0.263950    1.737314
     10          1           0        0.384181   -1.212428    1.199108
     11          6           0       -4.027899   -0.506579   -0.352786
     12          6           0       -5.391976    0.072124    0.024549
     13          6           0       -6.426954   -0.078269   -1.090796
     14          1           0       -3.664208   -0.007247   -1.261516
     15          1           0       -4.144783   -1.569290   -0.605628
     16          1           0       -5.271799    1.133533    0.276707
     17          1           0       -5.752356   -0.427183    0.933084
     18          1           0       -6.576181   -1.134303   -1.338033
     19          1           0       -6.092893    0.435281   -1.998139
     20          1           0       -7.394688    0.342074   -0.799826
     21          6           0        4.195710    0.120645   -0.111489
     22          6           0        4.255531   -1.343217   -0.549116
     23          6           0        5.643309   -1.958515   -0.366700
     24          1           0        4.932966    0.698691   -0.685303
     25          1           0        4.494190    0.193184    0.943519
     26          1           0        3.955695   -1.413143   -1.602598
     27          1           0        3.517914   -1.917810    0.025671
     28          1           0        5.947522   -1.918106    0.684215
     29          1           0        6.387790   -1.410571   -0.953306
     30          1           0        5.663459   -3.005264   -0.685713
     31          6           0        2.814796    0.749710   -0.287792
     32          6           0        2.754975    2.213570    0.149834
     33          6           0        1.367198    2.828868   -0.032582
     34          1           0        2.516316    0.677170   -1.342801
     35          1           0        2.077541    0.171662    0.286021
     36          1           0        3.492592    2.788163   -0.424952
     37          1           0        3.054812    2.283496    1.203317
     38          1           0        0.622716    2.280924    0.554024
     39          1           0        1.062984    2.788458   -1.083496
     40          1           0        1.347048    3.875617    0.286432
 ---------------------------------------------------------------------

 SCF Done:  E(RHF) =  -470.732823208     A.U. after   11 cycles
 E2 =    -0.1583491018D+01 EUMP2 =    -0.47231631422597D+03

 The electronic state is 1-A.
 Alpha  occ. eigenvalues --  -11.21623 -11.21600 -11.21599 -11.21574 -11.21413
 Alpha  occ. eigenvalues --  -11.21355 -11.21353 -11.21267 -11.21137 -11.21073
 Alpha  occ. eigenvalues --  -11.21069 -11.21063  -1.08449  -1.08393  -1.03568
 Alpha  occ. eigenvalues --   -1.03500  -0.96013  -0.95961  -0.87038  -0.86976
 Alpha  occ. eigenvalues --   -0.79643  -0.79554  -0.78255  -0.78209  -0.65141
 Alpha  occ. eigenvalues --   -0.64985  -0.61086  -0.60793  -0.59417  -0.59308
 Alpha  occ. eigenvalues --   -0.57709  -0.57497  -0.55350  -0.55209  -0.52776
 Alpha  occ. eigenvalues --   -0.52652  -0.52499  -0.52286  -0.50008  -0.49870
 Alpha  occ. eigenvalues --   -0.47952  -0.47861  -0.46746  -0.46514  -0.45808
 Alpha  occ. eigenvalues --   -0.45736  -0.45720  -0.45605  -0.43776  -0.43735
 Alpha virt. eigenvalues --    0.20535   0.22904   0.23611   0.24445   0.26060
 Alpha virt. eigenvalues --    0.26341   0.26783   0.27489   0.27892   0.29362
 Alpha virt. eigenvalues --    0.30520   0.31653   0.31722   0.32054   0.32526

 Mulliken charges:
               1
     1  C   -0.298594
     2  C   -0.300521
     3  C   -0.482178
     4  H    0.149823
     5  H    0.149515
     6  H    0.153882
     7  H    0.152156
     8  H    0.155797
     9  H    0.157479
    10  H    0.162906
    11  C   -0.298340
    12  C   -0.299709
    13  C   -0.475722
    14  H    0.149828
    15  H    0.149626
    16  H    0.152123
    17  H    0.151867
    18  H    0.155142
    19  H    0.155254
    20  H    0.160267
    21  C   -0.297762
    22  C   -0.299940
    23  C   -0.475656
    24  H    0.149442
    25  H    0.149395
    26  H    0.151993
    27  H    0.151191
    28  H    0.155254
    29  H    0.155278
    30  H    0.160178
    31  C   -0.307762
    32  C   -0.298745
    33  C   -0.480114
    34  H    0.148534
    35  H    0.160898
    36  H    0.151773
    37  H    0.151765
    38  H    0.158695
    39  H    0.154817
    40  H    0.160164
 Sum of Mulliken charges =  -0.00000

 Dipole moment (field-independent basis, Debye):
    X=             -0.0276    Y=             -0.0159    Z=              0.0082  Tot=              0.0329
 Quadrupole moment (field-independent basis, Debye-Ang):
   XX=            -86.3556   YY=            -84.2788   ZZ=            -84.2583
   XY=              0.8297   XZ=             -0.9857   YZ=             -0.6047

 Normal termination of Gaussian 16 at Thu May  6 00:35:34 2021.
