 Gaussian 16, Revision A.03,
 Gaussian 16:  EM64L-G16RevA.03 25-Dec-2016

 -------------
 #p 6-31g* mp2
 -------------

 ------------------------------------------------------
 Input file generated by CHIRIPA (05-May-2021 14:57:23)
 ------------------------------------------------------
 Symbolic Z-matrix:
 Charge =  0 Multiplicity = 1

                         Standard orientation:
 ---------------------------------------------------------------------
 Center     Atomic      Atomic             Coordinates (Angstroms)
 Number     Number       Type             X           Y           Z
 ---------------------------------------------------------------------
      1          6           0        4.839454    1.603136    1.127849
      2          6           0        3.538579    1.877821    0.693348
      3          6           0        2.782994    0.894315    0.048091
      4          6           0        3.362143   -0.358595   -0.147082
      5          6           0        4.655654   -0.662898    0.274246
      6          6           0        5.392865    0.335887    0.917283
      7          1           0        5.419274    2.373081    1.628238
      8          1           0        3.106225    2.861088    0.855524
      9          1           0        1.773621    1.079943   -0.298501
     10          1           0        5.059581   -1.652502    0.098332
     11          1           0        6.402903    0.119730    1.253652
     12          7           0        2.571965   -1.407877   -0.829012
     13          8           0        3.105046   -2.503727   -0.988931
     14          8           0        1.434505   -1.114585   -1.190676
     15          6           0       -4.519215   -1.885541    1.045455
     16          6           0       -5.285144   -0.724240    0.899670
     17          6           0       -4.726600    0.429196    0.340956
     18          6           0       -3.393103    0.385897   -0.063025
     19          6           0       -2.604144   -0.755769    0.069007
     20          6           0       -3.183514   -1.897578    0.630390
     21          1           0       -4.961195   -2.777042    1.480514
     22          1           0       -6.322717   -0.711996    1.221132
     23          1           0       -5.296752    1.341795    0.216432
     24          1           0       -1.572476   -0.737465   -0.260758
     25          1           0       -2.586293   -2.798038    0.742385
     26          7           0       -2.790772    1.600833   -0.655924
     27          8           0       -1.613734    1.536929   -1.003966
     28          8           0       -3.507110    2.594000   -0.761368
 ---------------------------------------------------------------------

 SCF Done:  E(RHF) =  -868.340447405     A.U. after   16 cycles
 E2 =    -0.2598622244D+01 EUMP2 =    -0.87093906964946D+03

 The electronic state is 1-A.
 Alpha  occ. eigenvalues --  -20.60787 -20.60765 -20.60485 -20.60478 -15.85812
 Alpha  occ. eigenvalues --  -15.85527 -11.30938 -11.30682 -11.27548 -11.27373
 Alpha  occ. eigenvalues --  -11.27313 -11.27240 -11.27095 -11.27013 -11.26520
 Alpha  occ. eigenvalues --  -11.26408 -11.26297 -11.26160  -1.59848  -1.59558
 Alpha  occ. eigenvalues --   -1.39403  -1.39113  -1.19107  -1.18859  -1.08558
 Alpha  occ. eigenvalues --   -1.08308  -1.04463  -1.04218  -0.95420  -0.95162
 Alpha  occ. eigenvalues --   -0.85878  -0.85633  -0.82250  -0.81991  -0.77320
 Alpha  occ. eigenvalues --   -0.77033  -0.72045  -0.71746  -0.71160  -0.70874
 Alpha  occ. eigenvalues --   -0.70211  -0.69962  -0.64762  -0.64517  -0.64458
 Alpha  occ. eigenvalues --   -0.64217  -0.61787  -0.61533  -0.55002  -0.54765
 Alpha  occ. eigenvalues --   -0.52831  -0.52590  -0.52540  -0.52294  -0.48793
 Alpha  occ. eigenvalues --   -0.48780  -0.48504  -0.48486  -0.44858  -0.44564
 Alpha  occ. eigenvalues --   -0.37108  -0.36871  -0.36063  -0.35821
 Alpha virt. eigenvalues --    0.05154   0.05442   0.11586   0.11826   0.16657
 Alpha virt. eigenvalues --    0.16949   0.21539   0.22125   0.27330   0.27855
 Alpha virt. eigenvalues --    0.28200   0.29296   0.30955   0.31638   0.32266

 Mulliken charges:
               1
     1  C   -0.170394
     2  C   -0.220231
     3  C   -0.175818
     4  C    0.155587
     5  C   -0.171429
     6  C   -0.219356
     7  H    0.225216
     8  H    0.227545
     9  H    0.291010
    10  H    0.273669
    11  H    0.222111
    12  N    0.490460
    13  O   -0.461668
    14  O   -0.465060
    15  C   -0.170569
    16  C   -0.219620
    17  C   -0.171443
    18  C    0.155597
    19  C   -0.177767
    20  C   -0.221285
    21  H    0.224281
    22  H    0.221210
    23  H    0.273135
    24  H    0.294375
    25  H    0.227694
    26  N    0.488946
    27  O   -0.463264
    28  O   -0.462932
 Sum of Mulliken charges =  -0.00000

 Dipole moment (field-independent basis, Debye):
    X=              0.7719    Y=             -0.5726    Z=              4.4563  Tot=              4.5587
 Quadrupole moment (field-independent basis, Debye-Ang):
   XX=            -66.4902   YY=           -108.4618   ZZ=           -107.4145
   XY=             20.8290   XZ=              0.6814   YZ=             -0.3252

 Normal termination of Gaussian 16 at Fri May  7 09:26:28 2021.
