 Gaussian 16, Revision A.03,
 Gaussian 16:  EM64L-G16RevA.03 25-Dec-2016

 -------------
 #p 6-31g* mp2
 -------------

 ------------------------------------------------------
 Input file generated by CHIRIPA (05-May-2021 14:57:22)
 ------------------------------------------------------
 Symbolic Z-matrix:
 Charge =  0 Multiplicity = 1

                         Standard orientation:
 ---------------------------------------------------------------------
 Center     Atomic      Atomic             Coordinates (Angstroms)
 Number     Number       Type             X           Y           Z
 ---------------------------------------------------------------------
      1          6           0       -2.826557    2.335917   -0.338596
      2          6           0       -4.049594    1.657731   -0.366249
      3          6           0       -4.095862    0.270092   -0.202340
      4          6           0       -2.894483   -0.410903   -0.012015
      5          6           0       -1.660258    0.236344    0.020390
      6          6           0       -1.637888    1.624314   -0.145705
      7          1           0       -2.799898    3.413997   -0.466774
      8          1           0       -4.974310    2.207782   -0.515879
      9          1           0       -5.028858   -0.280038   -0.219465
     10          1           0       -0.755099   -0.339255    0.171358
     11          1           0       -0.686611    2.148371   -0.123781
     12          7           0       -2.930814   -1.880109    0.162666
     13          8           0       -1.858345   -2.457034    0.328814
     14          8           0       -4.031072   -2.426928    0.130124
     15          6           0        1.990129    2.459458    0.598983
     16          6           0        2.160260    1.508646    1.610681
     17          6           0        2.657247    0.236280    1.312962
     18          6           0        2.975346   -0.052697   -0.013159
     19          6           0        2.817036    0.873095   -1.043274
     20          6           0        2.318481    2.139213   -0.722436
     21          1           0        1.603448    3.445436    0.839239
     22          1           0        1.906093    1.754569    2.637796
     23          1           0        2.798835   -0.518801    2.076653
     24          1           0        3.079219    0.598620   -2.057839
     25          1           0        2.187392    2.875634   -1.510181
     26          7           0        3.502314   -1.396386   -0.340578
     27          8           0        3.775114   -1.626215   -1.516756
     28          8           0        3.632571   -2.194297    0.585168
 ---------------------------------------------------------------------

 SCF Done:  E(RHF) =  -868.336368959     A.U. after   16 cycles
 E2 =    -0.2602459360D+01 EUMP2 =    -0.87093882831917D+03

 The electronic state is 1-A.
 Alpha  occ. eigenvalues --  -20.61119 -20.61100 -20.60763 -20.60749 -15.86180
 Alpha  occ. eigenvalues --  -15.85813 -11.31936 -11.31284 -11.28509 -11.28481
 Alpha  occ. eigenvalues --  -11.28368 -11.27866 -11.27828 -11.27663 -11.27655
 Alpha  occ. eigenvalues --  -11.27605 -11.26923 -11.26815  -1.60177  -1.59833
 Alpha  occ. eigenvalues --   -1.39720  -1.39383  -1.20157  -1.19467  -1.09501
 Alpha  occ. eigenvalues --   -1.08857  -1.05569  -1.04875  -0.96252  -0.95671
 Alpha  occ. eigenvalues --   -0.86951  -0.86286  -0.83049  -0.82489  -0.78011
 Alpha  occ. eigenvalues --   -0.77521  -0.72388  -0.72026  -0.71506  -0.71252
 Alpha  occ. eigenvalues --   -0.71162  -0.70605  -0.65777  -0.65543  -0.65117
 Alpha  occ. eigenvalues --   -0.64909  -0.62865  -0.62262  -0.56104  -0.55460
 Alpha  occ. eigenvalues --   -0.53933  -0.53629  -0.53221  -0.52898  -0.49177
 Alpha  occ. eigenvalues --   -0.49119  -0.48797  -0.48778  -0.45038  -0.44764
 Alpha  occ. eigenvalues --   -0.38167  -0.37494  -0.37235  -0.36425
 Alpha virt. eigenvalues --    0.04454   0.05007   0.10333   0.11200   0.15776
 Alpha virt. eigenvalues --    0.16489   0.20274   0.21664   0.26489   0.26828
 Alpha virt. eigenvalues --    0.27669   0.28376   0.30293   0.31372   0.31957

 Mulliken charges:
               1
     1  C   -0.173615
     2  C   -0.218274
     3  C   -0.171170
     4  C    0.159208
     5  C   -0.175827
     6  C   -0.223391
     7  H    0.221875
     8  H    0.222990
     9  H    0.276109
    10  H    0.277168
    11  H    0.225568
    12  N    0.487728
    13  O   -0.457468
    14  O   -0.460438
    15  C   -0.186641
    16  C   -0.217217
    17  C   -0.172584
    18  C    0.158955
    19  C   -0.170083
    20  C   -0.220804
    21  H    0.225630
    22  H    0.228183
    23  H    0.282082
    24  H    0.279794
    25  H    0.225432
    26  N    0.488636
    27  O   -0.457562
    28  O   -0.454284
 Sum of Mulliken charges =  -0.00000

 Dipole moment (field-independent basis, Debye):
    X=             -1.3871    Y=              9.6194    Z=              0.5831  Tot=              9.7364
 Quadrupole moment (field-independent basis, Debye-Ang):
   XX=           -111.6481   YY=           -110.7516   ZZ=           -100.7647
   XY=             -0.9553   XZ=              5.5235   YZ=             -1.3843

 Normal termination of Gaussian 16 at Thu May  6 04:57:10 2021.
