 Gaussian 16, Revision A.03,
 Gaussian 16:  EM64L-G16RevA.03 25-Dec-2016

 -------------
 #p 6-31g* mp2
 -------------

 ------------------------------------------------------
 Input file generated by CHIRIPA (05-May-2021 14:51:11)
 ------------------------------------------------------
 Symbolic Z-matrix:
 Charge =  0 Multiplicity = 1

                         Standard orientation:
 ---------------------------------------------------------------------
 Center     Atomic      Atomic             Coordinates (Angstroms)
 Number     Number       Type             X           Y           Z
 ---------------------------------------------------------------------
      1          6           0        3.099287    0.820900   -0.310620
      2          6           0        4.012833    1.691969    0.552316
      3          6           0        4.067566    3.143909    0.076219
      4          1           0        3.448197    0.853952   -1.351828
      5          1           0        2.086664    1.247484   -0.306609
      6          1           0        5.023111    1.263095    0.547798
      7          1           0        3.661821    1.656687    1.591624
      8          1           0        3.069865    3.594176    0.097504
      9          1           0        4.438890    3.198348   -0.952254
     10          1           0        4.726274    3.748747    0.707198
     11          6           0        3.034168   -0.633314    0.152790
     12          6           0        2.120622   -1.504382   -0.710146
     13          6           0        2.065889   -2.956322   -0.234048
     14          1           0        4.046791   -1.059897    0.148780
     15          1           0        2.685258   -0.666366    1.193998
     16          1           0        2.471634   -1.469100   -1.749454
     17          1           0        1.110344   -1.075508   -0.705627
     18          1           0        1.694565   -3.010762    0.794424
     19          1           0        3.063590   -3.406590   -0.255333
     20          1           0        1.407181   -3.561160   -0.865028
     21          6           0       -2.779273   -0.651505    0.514530
     22          6           0       -2.055823   -1.734640   -0.286356
     23          6           0       -1.486271   -2.843439    0.599065
     24          1           0       -2.082793   -0.217882    1.245166
     25          1           0       -3.591268   -1.113666    1.092862
     26          1           0       -1.246312   -1.270368   -0.864075
     27          1           0       -2.754053   -2.165603   -1.015302
     28          1           0       -2.285315   -3.333180    1.165001
     29          1           0       -0.769007   -2.432857    1.317088
     30          1           0       -0.973368   -3.607096    0.006091
     31          6           0       -3.354182    0.463918   -0.356700
     32          6           0       -4.077633    1.547054    0.444186
     33          6           0       -4.647184    2.655852   -0.441236
     34          1           0       -2.542188    0.926079   -0.935033
     35          1           0       -4.050663    0.030295   -1.087337
     36          1           0       -3.379403    1.978016    1.173132
     37          1           0       -4.887144    1.082781    1.021905
     38          1           0       -5.364449    2.245271   -1.159258
     39          1           0       -3.848140    3.145593   -1.007172
     40          1           0       -5.160088    3.419509    0.151738
 ---------------------------------------------------------------------

 SCF Done:  E(RHF) =  -470.731932659     A.U. after   11 cycles
 E2 =    -0.1584146884D+01 EUMP2 =    -0.47231607954354D+03

 The electronic state is 1-A.
 Alpha  occ. eigenvalues --  -11.21627 -11.21621 -11.21590 -11.21582 -11.21430
 Alpha  occ. eigenvalues --  -11.21425 -11.21369 -11.21366 -11.21095 -11.21086
 Alpha  occ. eigenvalues --  -11.21003 -11.20992  -1.08479  -1.08417  -1.03623
 Alpha  occ. eigenvalues --   -1.03453  -0.96096  -0.95873  -0.87124  -0.86879
 Alpha  occ. eigenvalues --   -0.79732  -0.79482  -0.78318  -0.78202  -0.65282
 Alpha  occ. eigenvalues --   -0.64926  -0.61335  -0.60592  -0.59604  -0.59135
 Alpha  occ. eigenvalues --   -0.57763  -0.57396  -0.55567  -0.54947  -0.52911
 Alpha  occ. eigenvalues --   -0.52521  -0.52460  -0.52241  -0.50189  -0.49670
 Alpha  occ. eigenvalues --   -0.48114  -0.47750  -0.46978  -0.46370  -0.45937
 Alpha  occ. eigenvalues --   -0.45805  -0.45740  -0.45422  -0.43914  -0.43634
 Alpha virt. eigenvalues --    0.20487   0.23316   0.23418   0.25314   0.25838
 Alpha virt. eigenvalues --    0.26336   0.26873   0.27462   0.28487   0.28939
 Alpha virt. eigenvalues --    0.29742   0.30721   0.30889   0.32224   0.32766

 Mulliken charges:
               1
     1  C   -0.298148
     2  C   -0.299651
     3  C   -0.475702
     4  H    0.149849
     5  H    0.148609
     6  H    0.152136
     7  H    0.151863
     8  H    0.155002
     9  H    0.155267
    10  H    0.160376
    11  C   -0.297763
    12  C   -0.307491
    13  C   -0.475200
    14  H    0.149847
    15  H    0.148972
    16  H    0.151835
    17  H    0.158256
    18  H    0.157548
    19  H    0.154113
    20  H    0.160309
    21  C   -0.298223
    22  C   -0.306250
    23  C   -0.476314
    24  H    0.148871
    25  H    0.149859
    26  H    0.156771
    27  H    0.152210
    28  H    0.154409
    29  H    0.155004
    30  H    0.163642
    31  C   -0.298253
    32  C   -0.299627
    33  C   -0.475723
    34  H    0.149199
    35  H    0.149882
    36  H    0.151705
    37  H    0.152039
    38  H    0.155272
    39  H    0.155196
    40  H    0.160305
 Sum of Mulliken charges =  -0.00000

 Dipole moment (field-independent basis, Debye):
    X=             -0.0021    Y=             -0.0234    Z=             -0.0042  Tot=              0.0239
 Quadrupole moment (field-independent basis, Debye-Ang):
   XX=            -83.6885   YY=            -86.3420   ZZ=            -84.7362
   XY=              0.5550   XZ=             -0.5768   YZ=              0.8665

 Normal termination of Gaussian 16 at Wed May  5 18:15:57 2021.
