 Gaussian 16, Revision A.03,
 Gaussian 16:  EM64L-G16RevA.03 25-Dec-2016

 -------------
 #p 6-31g* mp2
 -------------

 ------------------------------------------------------
 Input file generated by CHIRIPA (05-May-2021 14:55:25)
 ------------------------------------------------------
 Symbolic Z-matrix:
 Charge =  0 Multiplicity = 1

                         Standard orientation:
 ---------------------------------------------------------------------
 Center     Atomic      Atomic             Coordinates (Angstroms)
 Number     Number       Type             X           Y           Z
 ---------------------------------------------------------------------
      1          6           0       -5.241120   -0.335761    0.191631
      2          6           0       -4.459414   -1.461776   -0.086844
      3          6           0       -3.071660   -1.349083   -0.213286
      4          6           0       -2.496111   -0.089406   -0.054389
      5          6           0       -3.247928    1.051144    0.223472
      6          6           0       -4.633952    0.914900    0.345628
      7          1           0       -6.318489   -0.432451    0.288189
      8          1           0       -4.928230   -2.434314   -0.206946
      9          1           0       -2.442652   -2.204328   -0.428510
     10          1           0       -2.751949    2.007353    0.337870
     11          1           0       -5.238537    1.791105    0.561933
     12          7           0       -1.027874    0.042363   -0.185979
     13          8           0       -0.544994    1.163339   -0.041494
     14          8           0       -0.387751   -0.977828   -0.431112
     15          6           0        3.217267    0.737892   -0.340211
     16          6           0        3.251386    2.042735    0.456162
     17          6           0        2.672847    3.225227   -0.321527
     18          1           0        3.776871    0.872167   -1.276030
     19          1           0        2.179259    0.517666   -0.625578
     20          1           0        4.288849    2.259713    0.741128
     21          1           0        2.691798    1.905279    1.390283
     22          1           0        1.629555    3.034356   -0.593023
     23          1           0        3.235681    3.390803   -1.245866
     24          1           0        2.707089    4.147741    0.266398
     25          6           0        3.792254   -0.453416    0.423926
     26          6           0        3.758136   -1.758259   -0.372446
     27          6           0        4.336674   -2.940751    0.405243
     28          1           0        4.830262   -0.233192    0.709293
     29          1           0        3.232650   -0.587691    1.359745
     30          1           0        4.317724   -1.620803   -1.306568
     31          1           0        2.720672   -1.975237   -0.657412
     32          1           0        3.773841   -3.106327    1.329582
     33          1           0        5.379966   -2.749880    0.676738
     34          1           0        4.302433   -3.863265   -0.182683
 ---------------------------------------------------------------------

 SCF Done:  E(RHF) =  -669.537484870     A.U. after   15 cycles
 E2 =    -0.2093030781D+01 EUMP2 =    -0.67163051565175D+03

 The electronic state is 1-A.
 Alpha  occ. eigenvalues --  -20.61381 -20.61366 -15.86345 -11.31526 -11.28061
 Alpha  occ. eigenvalues --  -11.28057 -11.27773 -11.27033 -11.27024 -11.20003
 Alpha  occ. eigenvalues --  -11.19874 -11.19823 -11.19689 -11.19329 -11.19198
 Alpha  occ. eigenvalues --   -1.60390  -1.39951  -1.19672  -1.09106  -1.06633
 Alpha  occ. eigenvalues --   -1.05043  -1.01884  -0.95969  -0.94351  -0.86451
 Alpha  occ. eigenvalues --   -0.85379  -0.82811  -0.77970  -0.77883  -0.76426
 Alpha  occ. eigenvalues --   -0.72556  -0.71677  -0.70779  -0.65329  -0.65051
 Alpha  occ. eigenvalues --   -0.63244  -0.62390  -0.59262  -0.57751  -0.55977
 Alpha  occ. eigenvalues --   -0.55555  -0.53620  -0.53383  -0.53130  -0.51128
 Alpha  occ. eigenvalues --   -0.50800  -0.49406  -0.49319  -0.48257  -0.46293
 Alpha  occ. eigenvalues --   -0.45400  -0.44945  -0.44032  -0.43629  -0.42096
 Alpha  occ. eigenvalues --   -0.37642  -0.36635
 Alpha virt. eigenvalues --    0.04639   0.11023   0.16167   0.21145   0.24668
 Alpha virt. eigenvalues --    0.25866   0.27106   0.27913   0.28508   0.29436
 Alpha virt. eigenvalues --    0.29596   0.30827   0.32175   0.32949   0.33159

 Mulliken charges:
               1
     1  C   -0.170019
     2  C   -0.218672
     3  C   -0.170140
     4  C    0.158849
     5  C   -0.170318
     6  C   -0.218637
     7  H    0.226898
     8  H    0.224681
     9  H    0.276302
    10  H    0.276390
    11  H    0.224735
    12  N    0.493265
    13  O   -0.461314
    14  O   -0.458985
    15  C   -0.312224
    16  C   -0.292728
    17  C   -0.482430
    18  H    0.138831
    19  H    0.182994
    20  H    0.141899
    21  H    0.151071
    22  H    0.174009
    23  H    0.147254
    24  H    0.149974
    25  C   -0.294076
    26  C   -0.304203
    27  C   -0.474369
    28  H    0.140783
    29  H    0.147812
    30  H    0.145979
    31  H    0.167864
    32  H    0.152846
    33  H    0.150771
    34  H    0.154907
 Sum of Mulliken charges =  -0.00000

 Dipole moment (field-independent basis, Debye):
    X=             -5.9234    Y=             -0.5493    Z=              0.4043  Tot=              5.9626
 Quadrupole moment (field-independent basis, Debye-Ang):
   XX=            -71.0120   YY=            -91.7954   ZZ=            -95.7915
   XY=              1.5530   XZ=             -1.6752   YZ=              1.4186

 Normal termination of Gaussian 16 at Thu May  6 06:25:47 2021.
