 Gaussian 16, Revision A.03,
 Gaussian 16:  EM64L-G16RevA.03 25-Dec-2016

 -------------
 #p 6-31g* mp2
 -------------

 ------------------------------------------------------
 Input file generated by CHIRIPA (05-May-2021 14:57:25)
 ------------------------------------------------------
 Symbolic Z-matrix:
 Charge =  0 Multiplicity = 1

                         Standard orientation:
 ---------------------------------------------------------------------
 Center     Atomic      Atomic             Coordinates (Angstroms)
 Number     Number       Type             X           Y           Z
 ---------------------------------------------------------------------
      1          6           0       -1.365080    0.950348    1.016134
      2          6           0       -2.012318    1.527637   -0.081290
      3          6           0       -3.207528    0.987605   -0.565425
      4          6           0       -3.729745   -0.135222    0.074760
      5          6           0       -3.108514   -0.733115    1.170153
      6          6           0       -1.914276   -0.176200    1.637259
      7          1           0       -0.436990    1.376415    1.385608
      8          1           0       -1.588114    2.402568   -0.565638
      9          1           0       -3.729446    1.414471   -1.413249
     10          1           0       -3.555707   -1.604880    1.632173
     11          1           0       -1.413808   -0.626632    2.489718
     12          7           0       -4.994547   -0.715867   -0.428758
     13          8           0       -5.434084   -1.705424    0.152808
     14          8           0       -5.522411   -0.170423   -1.395447
     15          6           0        4.700404   -2.189607   -0.238916
     16          6           0        4.561815   -1.514940    0.978514
     17          6           0        3.910354   -0.279253    1.035330
     18          6           0        3.407299    0.255028   -0.149899
     19          6           0        3.529533   -0.392807   -1.378173
     20          6           0        4.184730   -1.627379   -1.411308
     21          1           0        5.207926   -3.149084   -0.273855
     22          1           0        4.961302   -1.949179    1.890594
     23          1           0        3.789081    0.264539    1.964309
     24          1           0        3.120853    0.065286   -2.270669
     25          1           0        4.290894   -2.149083   -2.358197
     26          7           0        2.715649    1.562605   -0.102285
     27          8           0        2.281280    2.012015   -1.160581
     28          8           0        2.620999    2.113312    0.992429
 ---------------------------------------------------------------------

 SCF Done:  E(RHF) =  -868.340302744     A.U. after   16 cycles
 E2 =    -0.2598574848D+01 EUMP2 =    -0.87093887759137D+03

 The electronic state is 1-A.
 Alpha  occ. eigenvalues --  -20.61927 -20.61894 -20.60328 -20.60319 -15.86924
 Alpha  occ. eigenvalues --  -15.85374 -11.31984 -11.30587 -11.28536 -11.28492
 Alpha  occ. eigenvalues --  -11.28186 -11.27465 -11.27430 -11.27175 -11.27092
 Alpha  occ. eigenvalues --  -11.26682 -11.26136 -11.25960  -1.60981  -1.59406
 Alpha  occ. eigenvalues --   -1.40537  -1.38963  -1.20127  -1.18726  -1.09577
 Alpha  occ. eigenvalues --   -1.08120  -1.05481  -1.04106  -0.96461  -0.94987
 Alpha  occ. eigenvalues --   -0.86892  -0.85489  -0.83301  -0.81831  -0.78388
 Alpha  occ. eigenvalues --   -0.76925  -0.73144  -0.72303  -0.71593  -0.71224
 Alpha  occ. eigenvalues --   -0.70729  -0.69735  -0.65778  -0.65474  -0.64358
 Alpha  occ. eigenvalues --   -0.64075  -0.62831  -0.61456  -0.55983  -0.54496
 Alpha  occ. eigenvalues --   -0.53825  -0.53564  -0.52452  -0.52170  -0.49924
 Alpha  occ. eigenvalues --   -0.49884  -0.48359  -0.48335  -0.45995  -0.44403
 Alpha  occ. eigenvalues --   -0.38084  -0.37071  -0.36668  -0.35726
 Alpha virt. eigenvalues --    0.04085   0.05598   0.10588   0.11939   0.15635
 Alpha virt. eigenvalues --    0.17143   0.20770   0.22264   0.26709   0.27601
 Alpha virt. eigenvalues --    0.28062   0.29068   0.30439   0.31631   0.32120

 Mulliken charges:
               1
     1  C   -0.180420
     2  C   -0.219489
     3  C   -0.172657
     4  C    0.157514
     5  C   -0.172507
     6  C   -0.219914
     7  H    0.240493
     8  H    0.233778
     9  H    0.274210
    10  H    0.272269
    11  H    0.219599
    12  N    0.488163
    13  O   -0.463092
    14  O   -0.461563
    15  C   -0.169511
    16  C   -0.218536
    17  C   -0.172368
    18  C    0.157362
    19  C   -0.169644
    20  C   -0.218258
    21  H    0.228693
    22  H    0.225353
    23  H    0.274269
    24  H    0.277070
    25  H    0.226753
    26  N    0.487175
    27  O   -0.458449
    28  O   -0.466293
 Sum of Mulliken charges =  -0.00000

 Dipole moment (field-independent basis, Debye):
    X=              7.3062    Y=             -2.5363    Z=              1.4727  Tot=              7.8729
 Quadrupole moment (field-independent basis, Debye-Ang):
   XX=           -122.9608   YY=           -105.9647   ZZ=            -97.4692
   XY=            -24.5764   XZ=             -6.3531   YZ=             -2.0266

 Normal termination of Gaussian 16 at Thu May  6 22:52:07 2021.
