 Gaussian 16, Revision A.03,
 Gaussian 16:  EM64L-G16RevA.03 25-Dec-2016

 -------------
 #p 6-31g* mp2
 -------------

 ------------------------------------------------------
 Input file generated by CHIRIPA (05-May-2021 14:57:21)
 ------------------------------------------------------
 Symbolic Z-matrix:
 Charge =  0 Multiplicity = 1

                         Standard orientation:
 ---------------------------------------------------------------------
 Center     Atomic      Atomic             Coordinates (Angstroms)
 Number     Number       Type             X           Y           Z
 ---------------------------------------------------------------------
      1          6           0        1.025896   -0.303783    0.429347
      2          6           0        1.825488    0.149269    1.483822
      3          6           0        3.213313    0.233051    1.337286
      4          6           0        3.770692   -0.146061    0.117084
      5          6           0        3.000809   -0.601440   -0.952121
      6          6           0        1.615070   -0.677034   -0.783122
      7          1           0       -0.051389   -0.365687    0.551905
      8          1           0        1.370669    0.439809    2.426568
      9          1           0        3.855951    0.580266    2.137208
     10          1           0        3.483071   -0.884016   -1.880018
     11          1           0        0.996572   -1.029249   -1.603762
     12          7           0        5.238816   -0.061699   -0.049938
     13          8           0        5.705490   -0.401648   -1.134966
     14          8           0        5.895058    0.342775    0.907342
     15          6           0       -4.672846   -2.022099    0.399003
     16          6           0       -5.165259   -0.823372    0.925413
     17          6           0       -4.539344    0.391556    0.630915
     18          6           0       -3.418118    0.370919   -0.197166
     19          6           0       -2.903625   -0.806877   -0.736965
     20          6           0       -3.545589   -2.010046   -0.429045
     21          1           0       -5.165305   -2.961317    0.632989
     22          1           0       -6.040526   -0.829713    1.568771
     23          1           0       -4.899471    1.334151    1.024922
     24          1           0       -2.029272   -0.768741   -1.375299
     25          1           0       -3.160965   -2.939464   -0.839280
     26          7           0       -2.746995    1.650884   -0.516042
     27          8           0       -1.760750    1.605842   -1.248112
     28          8           0       -3.219924    2.674927   -0.027869
 ---------------------------------------------------------------------

 SCF Done:  E(RHF) =  -868.337574650     A.U. after   16 cycles
 E2 =    -0.2600710571D+01 EUMP2 =    -0.87093828522045D+03

 The electronic state is 1-A.
 Alpha  occ. eigenvalues --  -20.61823 -20.61805 -20.60424 -20.60418 -15.86854
 Alpha  occ. eigenvalues --  -15.85478 -11.32298 -11.30774 -11.28909 -11.28758
 Alpha  occ. eigenvalues --  -11.28484 -11.27854 -11.27776 -11.27371 -11.27354
 Alpha  occ. eigenvalues --  -11.27076 -11.26392 -11.26334  -1.60885  -1.59501
 Alpha  occ. eigenvalues --   -1.40438  -1.39057  -1.20438  -1.18950  -1.09800
 Alpha  occ. eigenvalues --   -1.08354  -1.05837  -1.04359  -0.96634  -0.95201
 Alpha  occ. eigenvalues --   -0.87225  -0.85765  -0.83455  -0.82047  -0.78526
 Alpha  occ. eigenvalues --   -0.77104  -0.73058  -0.72241  -0.71701  -0.71511
 Alpha  occ. eigenvalues --   -0.70822  -0.70054  -0.66067  -0.65808  -0.64614
 Alpha  occ. eigenvalues --   -0.64397  -0.63172  -0.61724  -0.56277  -0.54926
 Alpha  occ. eigenvalues --   -0.54111  -0.53896  -0.52662  -0.52472  -0.49835
 Alpha  occ. eigenvalues --   -0.49813  -0.48456  -0.48453  -0.45809  -0.44478
 Alpha  occ. eigenvalues --   -0.38383  -0.37441  -0.36880  -0.35953
 Alpha virt. eigenvalues --    0.03982   0.05459   0.10054   0.11702   0.15511
 Alpha virt. eigenvalues --    0.16984   0.19368   0.21749   0.25090   0.26864
 Alpha virt. eigenvalues --    0.28223   0.28525   0.30301   0.30727   0.31859

 Mulliken charges:
               1
     1  C   -0.162363
     2  C   -0.219479
     3  C   -0.170334
     4  C    0.157968
     5  C   -0.170798
     6  C   -0.215888
     7  H    0.222353
     8  H    0.222651
     9  H    0.274617
    10  H    0.274348
    11  H    0.216940
    12  N    0.488200
    13  O   -0.461537
    14  O   -0.461312
    15  C   -0.170637
    16  C   -0.217279
    17  C   -0.170766
    18  C    0.158000
    19  C   -0.181528
    20  C   -0.218000
    21  H    0.229685
    22  H    0.227594
    23  H    0.278600
    24  H    0.272047
    25  H    0.226266
    26  N    0.487172
    27  O   -0.461630
    28  O   -0.454887
 Sum of Mulliken charges =  -0.00000

 Dipole moment (field-independent basis, Debye):
    X=             -7.9367    Y=             -4.7408    Z=              1.7722  Tot=              9.4131
 Quadrupole moment (field-independent basis, Debye-Ang):
   XX=           -125.2112   YY=           -107.1906   ZZ=            -99.8696
   XY=             12.9418   XZ=             -3.8270   YZ=              4.5971

 Normal termination of Gaussian 16 at Wed May  5 19:18:11 2021.
