 Gaussian 16, Revision A.03,
 Gaussian 16:  EM64L-G16RevA.03 25-Dec-2016

 -------------
 #p 6-31g* mp2
 -------------

 ------------------------------------------------------
 Input file generated by CHIRIPA (05-May-2021 14:57:21)
 ------------------------------------------------------
 Symbolic Z-matrix:
 Charge =  0 Multiplicity = 1

                         Standard orientation:
 ---------------------------------------------------------------------
 Center     Atomic      Atomic             Coordinates (Angstroms)
 Number     Number       Type             X           Y           Z
 ---------------------------------------------------------------------
      1          6           0       -2.411129    1.835166    0.571384
      2          6           0       -2.142619    0.470513    0.720202
      3          6           0       -3.139723   -0.479606    0.480194
      4          6           0       -4.399788   -0.027843    0.091044
      5          6           0       -4.698224    1.324790   -0.065834
      6          6           0       -3.685828    2.257205    0.179532
      7          1           0       -1.630615    2.566365    0.759909
      8          1           0       -1.153591    0.139860    1.024403
      9          1           0       -2.959128   -1.542255    0.587809
     10          1           0       -5.693832    1.623922   -0.370306
     11          1           0       -3.897216    3.316364    0.063162
     12          7           0       -5.463472   -1.024320   -0.165877
     13          8           0       -6.565404   -0.600582   -0.507680
     14          8           0       -5.175114   -2.210228   -0.020586
     15          6           0        1.740665   -0.209001   -0.570786
     16          6           0        2.442652    0.991787   -0.718578
     17          6           0        3.819025    1.043720   -0.478890
     18          6           0        4.464606   -0.129369   -0.091102
     19          6           0        3.793008   -1.340964    0.064731
     20          6           0        2.416891   -1.369499   -0.180291
     21          1           0        0.671566   -0.240256   -0.759054
     22          1           0        1.920092    1.894603   -1.021723
     23          1           0        4.387019    1.959900   -0.585731
     24          1           0        4.341367   -2.224509    0.368161
     25          1           0        1.874291   -2.303454   -0.064720
     26          7           0        5.921574   -0.086775    0.165468
     27          8           0        6.467162   -1.134138    0.506063
     28          8           0        6.490371    0.993164    0.021116
 ---------------------------------------------------------------------

 SCF Done:  E(RHF) =  -868.337127431     A.U. after   16 cycles
 E2 =    -0.2599874997D+01 EUMP2 =    -0.87093700242822D+03

 The electronic state is 1-A.
 Alpha  occ. eigenvalues --  -20.61438 -20.61428 -20.61266 -20.61260 -15.86496
 Alpha  occ. eigenvalues --  -15.86323 -11.32008 -11.31828 -11.28657 -11.28575
 Alpha  occ. eigenvalues --  -11.28409 -11.28405 -11.28380 -11.28208 -11.27709
 Alpha  occ. eigenvalues --  -11.27596 -11.27505 -11.27458  -1.60508  -1.60337
 Alpha  occ. eigenvalues --   -1.40058  -1.39887  -1.20211  -1.20017  -1.09580
 Alpha  occ. eigenvalues --   -1.09402  -1.05642  -1.05433  -0.96384  -0.96210
 Alpha  occ. eigenvalues --   -0.87032  -0.86834  -0.83225  -0.83025  -0.78239
 Alpha  occ. eigenvalues --   -0.78043  -0.72710  -0.72538  -0.71835  -0.71662
 Alpha  occ. eigenvalues --   -0.71323  -0.71163  -0.65864  -0.65675  -0.65669
 Alpha  occ. eigenvalues --   -0.65421  -0.62983  -0.62769  -0.56196  -0.55938
 Alpha  occ. eigenvalues --   -0.53944  -0.53819  -0.53644  -0.53529  -0.49481
 Alpha  occ. eigenvalues --   -0.49456  -0.49309  -0.49284  -0.45431  -0.45261
 Alpha  occ. eigenvalues --   -0.38210  -0.38030  -0.37246  -0.37033
 Alpha virt. eigenvalues --    0.04308   0.04445   0.10272   0.10604   0.15650
 Alpha virt. eigenvalues --    0.15806   0.19489   0.21736   0.25705   0.26288
 Alpha virt. eigenvalues --    0.27705   0.28703   0.29657   0.31062   0.31878

 Mulliken charges:
               1
     1  C   -0.172542
     2  C   -0.226499
     3  C   -0.171352
     4  C    0.159307
     5  C   -0.169207
     6  C   -0.218138
     7  H    0.225791
     8  H    0.222452
     9  H    0.275616
    10  H    0.278525
    11  H    0.226299
    12  N    0.488067
    13  O   -0.457787
    14  O   -0.459582
    15  C   -0.179205
    16  C   -0.220047
    17  C   -0.170240
    18  C    0.159479
    19  C   -0.169884
    20  C   -0.219314
    21  H    0.226086
    22  H    0.221428
    23  H    0.276974
    24  H    0.278110
    25  H    0.225190
    26  N    0.487925
    27  O   -0.458294
    28  O   -0.459159
 Sum of Mulliken charges =  -0.00000

 Dipole moment (field-independent basis, Debye):
    X=             -1.4400    Y=              3.3748    Z=             -0.0041  Tot=              3.6692
 Quadrupole moment (field-independent basis, Debye-Ang):
   XX=           -180.6743   YY=            -97.4592   ZZ=           -105.6574
   XY=            -18.6409   XZ=             -6.4115   YZ=             -1.7840

 Normal termination of Gaussian 16 at Wed May  5 20:54:42 2021.
