 Gaussian 16, Revision A.03,
 Gaussian 16:  EM64L-G16RevA.03 25-Dec-2016

 -------------
 #p 6-31g* mp2
 -------------

 ------------------------------------------------------
 Input file generated by CHIRIPA (05-May-2021 14:53:17)
 ------------------------------------------------------
 Symbolic Z-matrix:
 Charge =  0 Multiplicity = 1

                         Standard orientation:
 ---------------------------------------------------------------------
 Center     Atomic      Atomic             Coordinates (Angstroms)
 Number     Number       Type             X           Y           Z
 ---------------------------------------------------------------------
      1          6           0       -5.121368    0.099778    0.334019
      2          6           0       -5.454812   -1.255179   -0.291193
      3          6           0       -6.708255   -1.891404    0.310382
      4          1           0       -4.986525   -0.026489    1.416987
      5          1           0       -5.976657    0.776940    0.202382
      6          1           0       -4.598616   -1.929151   -0.159634
      7          1           0       -5.588688   -1.125706   -1.372826
      8          1           0       -7.577314   -1.241363    0.166220
      9          1           0       -6.581618   -2.049374    1.386305
     10          1           0       -6.928202   -2.859174   -0.151034
     11          6           0       -3.870857    0.748382   -0.256965
     12          6           0       -3.537413    2.103340    0.368246
     13          6           0       -2.283970    2.739565   -0.233329
     14          1           0       -3.015567    0.071221   -0.125329
     15          1           0       -4.005699    0.874649   -1.339933
     16          1           0       -3.403537    1.973866    1.449879
     17          1           0       -4.393608    2.777312    0.236687
     18          1           0       -2.410607    2.897535   -1.309252
     19          1           0       -1.414910    2.089524   -0.089167
     20          1           0       -2.064023    3.707335    0.228088
     21          6           0        1.184576   -1.258010   -0.325937
     22          6           0        2.262861   -2.125642   -0.123365
     23          6           0        3.557062   -1.623319    0.041748
     24          6           0        3.737651   -0.241724   -0.001499
     25          6           0        2.683685    0.648442   -0.201630
     26          6           0        1.398054    0.123827   -0.364355
     27          1           0        0.182539   -1.656884   -0.453274
     28          1           0        2.100041   -3.199243   -0.093070
     29          1           0        4.409795   -2.272317    0.200070
     30          1           0        2.877279    1.713944   -0.226986
     31          1           0        0.562526    0.800021   -0.521519
     32          7           0        5.103228    0.301863    0.172036
     33          8           0        5.235912    1.523031    0.129846
     34          8           0        6.015025   -0.503535    0.346956
 ---------------------------------------------------------------------

 SCF Done:  E(RHF) =  -669.535540659     A.U. after   15 cycles
 E2 =    -0.2090932028D+01 EUMP2 =    -0.67162647268639D+03

 The electronic state is 1-A.
 Alpha  occ. eigenvalues --  -20.60735 -20.60730 -15.85789 -11.31154 -11.27727
 Alpha  occ. eigenvalues --  -11.27715 -11.27470 -11.26744 -11.26713 -11.22461
 Alpha  occ. eigenvalues --  -11.22299 -11.22291 -11.22120 -11.22101 -11.21639
 Alpha  occ. eigenvalues --   -1.59811  -1.39364  -1.19327  -1.09237  -1.08724
 Alpha  occ. eigenvalues --   -1.04731  -1.04322  -0.96784  -0.95558  -0.87802
 Alpha  occ. eigenvalues --   -0.86131  -0.82390  -0.80390  -0.79047  -0.77437
 Alpha  occ. eigenvalues --   -0.72007  -0.71134  -0.70438  -0.65876  -0.64979
 Alpha  occ. eigenvalues --   -0.64753  -0.62132  -0.61676  -0.60142  -0.58386
 Alpha  occ. eigenvalues --   -0.56100  -0.55229  -0.53457  -0.53272  -0.53060
 Alpha  occ. eigenvalues --   -0.52772  -0.50714  -0.48791  -0.48762  -0.48674
 Alpha  occ. eigenvalues --   -0.47415  -0.46590  -0.46504  -0.44770  -0.44574
 Alpha  occ. eigenvalues --   -0.37311  -0.36332
 Alpha virt. eigenvalues --    0.05098   0.11299   0.16581   0.19184   0.22458
 Alpha virt. eigenvalues --    0.23633   0.25148   0.25733   0.26471   0.28308
 Alpha virt. eigenvalues --    0.28960   0.29907   0.30994   0.31298   0.31780

 Mulliken charges:
               1
     1  C   -0.298944
     2  C   -0.299484
     3  C   -0.476127
     4  H    0.151150
     5  H    0.152350
     6  H    0.148484
     7  H    0.152911
     8  H    0.156929
     9  H    0.156078
    10  H    0.161456
    11  C   -0.296904
    12  C   -0.299952
    13  C   -0.481374
    14  H    0.140295
    15  H    0.151329
    16  H    0.154602
    17  H    0.156262
    18  H    0.158164
    19  H    0.147289
    20  H    0.166294
    21  C   -0.173794
    22  C   -0.218530
    23  C   -0.171145
    24  C    0.158867
    25  C   -0.173317
    26  C   -0.227007
    27  H    0.225939
    28  H    0.223257
    29  H    0.275480
    30  H    0.276283
    31  H    0.236099
    32  N    0.488049
    33  O   -0.460347
    34  O   -0.460643
 Sum of Mulliken charges =  -0.00000

 Dipole moment (field-independent basis, Debye):
    X=             -5.0488    Y=             -1.8415    Z=             -0.5933  Tot=              5.4068
 Quadrupole moment (field-independent basis, Debye-Ang):
   XX=           -130.0937   YY=            -89.3517   ZZ=            -95.1956
   XY=             -9.0057   XZ=             -1.4509   YZ=             -0.5056

 Normal termination of Gaussian 16 at Thu May  6 10:42:07 2021.
