 Gaussian 16, Revision A.03,
 Gaussian 16:  EM64L-G16RevA.03 25-Dec-2016

 -------------
 #p 6-31g* mp2
 -------------

 ------------------------------------------------------
 Input file generated by CHIRIPA (05-May-2021 14:53:17)
 ------------------------------------------------------
 Symbolic Z-matrix:
 Charge =  0 Multiplicity = 1

                         Standard orientation:
 ---------------------------------------------------------------------
 Center     Atomic      Atomic             Coordinates (Angstroms)
 Number     Number       Type             X           Y           Z
 ---------------------------------------------------------------------
      1          6           0        3.016867   -0.427983    0.737183
      2          6           0        2.340693   -1.773852    1.000639
      3          6           0        1.184673   -1.669841    1.995926
      4          1           0        3.385062   -0.017585    1.687420
      5          1           0        2.268848    0.282444    0.358823
      6          1           0        3.090050   -2.481928    1.377081
      7          1           0        1.974233   -2.181184    0.049637
      8          1           0        0.416312   -0.984532    1.623671
      9          1           0        1.538469   -1.286985    2.958657
     10          1           0        0.715644   -2.643340    2.169626
     11          6           0        4.174493   -0.515687   -0.255760
     12          6           0        4.850667    0.830183   -0.519217
     13          6           0        6.006686    0.726171   -1.514503
     14          1           0        4.922512   -1.226114    0.122600
     15          1           0        3.806298   -0.926085   -1.205997
     16          1           0        5.217127    1.237514    0.431785
     17          1           0        4.101310    1.538259   -0.895658
     18          1           0        5.652891    0.343315   -2.477234
     19          1           0        6.775048    0.040862   -1.142248
     20          1           0        6.475716    1.699670   -1.688203
     21          6           0       -1.028846    1.915964    0.707632
     22          6           0       -2.317406    1.942464    1.251168
     23          6           0       -3.311706    1.089621    0.762729
     24          6           0       -2.981236    0.219029   -0.274647
     25          6           0       -1.706675    0.169002   -0.837036
     26          6           0       -0.728123    1.030878   -0.332900
     27          1           0       -0.262566    2.581982    1.093161
     28          1           0       -2.553805    2.628794    2.059322
     29          1           0       -4.317441    1.089290    1.165117
     30          1           0       -1.501089   -0.526123   -1.641993
     31          1           0        0.271733    1.008113   -0.756946
     32          7           0       -4.025521   -0.688619   -0.800045
     33          8           0       -3.708990   -1.446361   -1.714524
     34          8           0       -5.140789   -0.625105   -0.287424
 ---------------------------------------------------------------------

 SCF Done:  E(RHF) =  -669.535083028     A.U. after   15 cycles
 E2 =    -0.2092807091D+01 EUMP2 =    -0.67162789011960D+03

 The electronic state is 1-A.
 Alpha  occ. eigenvalues --  -20.60806 -20.60801 -15.85861 -11.31254 -11.27837
 Alpha  occ. eigenvalues --  -11.27822 -11.27577 -11.26844 -11.26832 -11.22289
 Alpha  occ. eigenvalues --  -11.22185 -11.22102 -11.22035 -11.21613 -11.21338
 Alpha  occ. eigenvalues --   -1.59881  -1.39433  -1.19440  -1.09094  -1.08823
 Alpha  occ. eigenvalues --   -1.04851  -1.04080  -0.96521  -0.95651  -0.87534
 Alpha  occ. eigenvalues --   -0.86245  -0.82485  -0.80152  -0.78934  -0.77525
 Alpha  occ. eigenvalues --   -0.72079  -0.71204  -0.70531  -0.65822  -0.65088
 Alpha  occ. eigenvalues --   -0.64800  -0.62211  -0.61465  -0.59891  -0.58141
 Alpha  occ. eigenvalues --   -0.55846  -0.55330  -0.53256  -0.53174  -0.52999
 Alpha  occ. eigenvalues --   -0.52812  -0.50449  -0.48843  -0.48832  -0.48451
 Alpha  occ. eigenvalues --   -0.47192  -0.46437  -0.46390  -0.44833  -0.44368
 Alpha  occ. eigenvalues --   -0.37388  -0.36410
 Alpha virt. eigenvalues --    0.05009   0.11090   0.16461   0.19604   0.22779
 Alpha virt. eigenvalues --    0.23953   0.25114   0.26493   0.27385   0.28143
 Alpha virt. eigenvalues --    0.29119   0.31003   0.31351   0.31403   0.31685

 Mulliken charges:
               1
     1  C   -0.300321
     2  C   -0.299496
     3  C   -0.482990
     4  H    0.151411
     5  H    0.138372
     6  H    0.154849
     7  H    0.151273
     8  H    0.161208
     9  H    0.153201
    10  H    0.163707
    11  C   -0.298706
    12  C   -0.298930
    13  C   -0.475966
    14  H    0.153317
    15  H    0.149545
    16  H    0.152959
    17  H    0.145944
    18  H    0.156115
    19  H    0.157328
    20  H    0.161418
    21  C   -0.171377
    22  C   -0.218202
    23  C   -0.170519
    24  C    0.159046
    25  C   -0.171457
    26  C   -0.220629
    27  H    0.226970
    28  H    0.224033
    29  H    0.276046
    30  H    0.276071
    31  H    0.228065
    32  N    0.488086
    33  O   -0.460229
    34  O   -0.460142
 Sum of Mulliken charges =  -0.00000

 Dipole moment (field-independent basis, Debye):
    X=              3.6982    Y=              3.1714    Z=              1.8704  Tot=              5.2185
 Quadrupole moment (field-independent basis, Debye-Ang):
   XX=           -114.6417   YY=            -93.1217   ZZ=            -93.9688
   XY=            -10.5986   XZ=             -8.0153   YZ=              0.9457

 Normal termination of Gaussian 16 at Thu May  6 18:58:18 2021.
