 Gaussian 16, Revision A.03,
 Gaussian 16:  EM64L-G16RevA.03 25-Dec-2016

 -------------
 #p 6-31g* mp2
 -------------

 ------------------------------------------------------
 Input file generated by CHIRIPA (05-May-2021 14:55:21)
 ------------------------------------------------------
 Symbolic Z-matrix:
 Charge =  0 Multiplicity = 1

                         Standard orientation:
 ---------------------------------------------------------------------
 Center     Atomic      Atomic             Coordinates (Angstroms)
 Number     Number       Type             X           Y           Z
 ---------------------------------------------------------------------
      1          6           0       -0.418400    0.606635    1.741824
      2          6           0       -1.337656    1.586410    1.352557
      3          6           0       -2.432129    1.253830    0.548774
      4          6           0       -2.577324   -0.074222    0.150670
      5          6           0       -1.678558   -1.073042    0.521979
      6          6           0       -0.591480   -0.717630    1.326025
      7          1           0        0.428941    0.873859    2.366324
      8          1           0       -1.205760    2.615652    1.673977
      9          1           0       -3.158885    1.992359    0.232834
     10          1           0       -1.836594   -2.090606    0.185816
     11          1           0        0.120844   -1.480631    1.626806
     12          7           0       -3.732079   -0.438396   -0.700399
     13          8           0       -3.837577   -1.615532   -1.037826
     14          8           0       -4.509813    0.460197   -1.013923
     15          6           0        3.430675   -0.583036   -0.087586
     16          6           0        2.786774   -1.923634   -0.442798
     17          6           0        3.549072   -3.116888    0.134126
     18          1           0        4.465648   -0.571575   -0.455885
     19          1           0        3.486934   -0.489475    1.005792
     20          1           0        2.730486   -2.014035   -1.535169
     21          1           0        1.753153   -1.931829   -0.073779
     22          1           0        3.593623   -3.054039    1.226219
     23          1           0        4.576509   -3.136710   -0.243475
     24          1           0        3.071493   -4.065039   -0.131930
     25          6           0        2.680062    0.619393   -0.657211
     26          6           0        3.323963    1.959990   -0.302000
     27          6           0        2.561665    3.153244   -0.878923
     28          1           0        2.623803    0.525833   -1.750589
     29          1           0        1.645089    0.607933   -0.288913
     30          1           0        4.357584    1.968187   -0.671019
     31          1           0        3.380251    2.050392    0.790371
     32          1           0        1.534228    3.173068   -0.501323
     33          1           0        2.517114    3.090396   -1.971017
     34          1           0        3.039244    4.101397   -0.612868
 ---------------------------------------------------------------------

 SCF Done:  E(RHF) =  -669.534508596     A.U. after   15 cycles
 E2 =    -0.2094301674D+01 EUMP2 =    -0.67162881027021D+03

 The electronic state is 1-A.
 Alpha  occ. eigenvalues --  -20.60843 -20.60838 -15.85899 -11.31311 -11.27897
 Alpha  occ. eigenvalues --  -11.27890 -11.27648 -11.26922 -11.26891 -11.22264
 Alpha  occ. eigenvalues --  -11.22194 -11.22049 -11.21782 -11.21717 -11.21615
 Alpha  occ. eigenvalues --   -1.59918  -1.39470  -1.19507  -1.09072  -1.08865
 Alpha  occ. eigenvalues --   -1.04914  -1.04150  -0.96580  -0.95714  -0.87594
 Alpha  occ. eigenvalues --   -0.86310  -0.82544  -0.80213  -0.78843  -0.77573
 Alpha  occ. eigenvalues --   -0.72117  -0.71241  -0.70613  -0.65816  -0.65154
 Alpha  occ. eigenvalues --   -0.64839  -0.62310  -0.61516  -0.59938  -0.58185
 Alpha  occ. eigenvalues --   -0.55909  -0.55397  -0.53359  -0.53214  -0.53038
 Alpha  occ. eigenvalues --   -0.52940  -0.50526  -0.48883  -0.48868  -0.48512
 Alpha  occ. eigenvalues --   -0.47266  -0.46364  -0.46306  -0.44865  -0.44377
 Alpha  occ. eigenvalues --   -0.37392  -0.36471
 Alpha virt. eigenvalues --    0.04926   0.10984   0.16267   0.19406   0.22941
 Alpha virt. eigenvalues --    0.23409   0.25781   0.26489   0.27103   0.27870
 Alpha virt. eigenvalues --    0.29479   0.30194   0.31067   0.31455   0.31788

 Mulliken charges:
               1
     1  C   -0.173466
     2  C   -0.218973
     3  C   -0.170130
     4  C    0.158842
     5  C   -0.171053
     6  C   -0.216709
     7  H    0.227645
     8  H    0.224700
     9  H    0.276476
    10  H    0.276572
    11  H    0.226509
    12  N    0.488097
    13  O   -0.459890
    14  O   -0.460020
    15  C   -0.297665
    16  C   -0.303765
    17  C   -0.476339
    18  H    0.152886
    19  H    0.141607
    20  H    0.157286
    21  H    0.146494
    22  H    0.151525
    23  H    0.158735
    24  H    0.162127
    25  C   -0.308600
    26  C   -0.299060
    27  C   -0.475956
    28  H    0.152568
    29  H    0.159209
    30  H    0.154272
    31  H    0.144819
    32  H    0.151660
    33  H    0.159016
    34  H    0.160580
 Sum of Mulliken charges =  -0.00000

 Dipole moment (field-independent basis, Debye):
    X=              3.9958    Y=              1.2777    Z=              2.9076  Tot=              5.1043
 Quadrupole moment (field-independent basis, Debye-Ang):
   XX=           -115.7534   YY=            -91.4061   ZZ=            -93.8951
   XY=             -5.0458   XZ=             -8.2086   YZ=              0.4696

 Normal termination of Gaussian 16 at Thu May  6 04:34:16 2021.
