 Gaussian 16, Revision A.03,
 Gaussian 16:  EM64L-G16RevA.03 25-Dec-2016

 -------------
 #p 6-31g* mp2
 -------------

 ------------------------------------------------------
 Input file generated by CHIRIPA (05-May-2021 14:51:12)
 ------------------------------------------------------
 Symbolic Z-matrix:
 Charge =  0 Multiplicity = 1

                         Standard orientation:
 ---------------------------------------------------------------------
 Center     Atomic      Atomic             Coordinates (Angstroms)
 Number     Number       Type             X           Y           Z
 ---------------------------------------------------------------------
      1          6           0       -1.800936   -1.076575    0.000973
      2          6           0       -2.078171   -2.274209   -0.908312
      3          6           0       -0.985206   -3.340627   -0.831029
      4          1           0       -0.833779   -0.632900   -0.272351
      5          1           0       -1.702155   -1.427244    1.037635
      6          1           0       -2.177773   -1.921209   -1.942762
      7          1           0       -3.044870   -2.714967   -0.632918
      8          1           0       -0.889416   -3.720706    0.191206
      9          1           0       -0.017392   -2.922438   -1.126080
     10          1           0       -1.203529   -4.187660   -1.488852
     11          6           0       -2.884702   -0.001961   -0.065254
     12          6           0       -2.607467    1.195673    0.844030
     13          6           0       -3.700432    2.262091    0.766747
     14          1           0       -2.983482    0.348708   -1.101917
     15          1           0       -3.851859   -0.445636    0.208069
     16          1           0       -1.640768    1.636431    0.568636
     17          1           0       -2.507865    0.842673    1.878480
     18          1           0       -4.668246    1.843902    1.061798
     19          1           0       -3.796222    2.642170   -0.255488
     20          1           0       -3.482109    3.109124    1.424570
     21          6           0        2.254913    1.281731    0.188517
     22          6           0        1.935128    2.127398   -1.044596
     23          6           0        1.762113    3.610517   -0.715630
     24          1           0        1.451017    1.403548    0.927338
     25          1           0        3.171870    1.663407    0.658526
     26          1           0        1.019810    1.743376   -1.512930
     27          1           0        2.739785    2.003404   -1.780646
     28          1           0        2.676056    4.015203   -0.268933
     29          1           0        0.946309    3.753698    0.000304
     30          1           0        1.534088    4.196496   -1.611450
     31          6           0        2.430725   -0.203195   -0.124235
     32          6           0        2.750510   -1.048862    1.108878
     33          6           0        2.923525   -2.531980    0.779912
     34          1           0        1.513768   -0.584870   -0.594244
     35          1           0        3.234621   -0.325012   -0.863056
     36          1           0        1.945853   -0.924867    1.844928
     37          1           0        3.665828   -0.664840    1.577212
     38          1           0        3.739330   -2.675162    0.063976
     39          1           0        2.009582   -2.936666    0.333215
     40          1           0        3.151550   -3.117959    1.675732
 ---------------------------------------------------------------------

 SCF Done:  E(RHF) =  -470.732828363     A.U. after   11 cycles
 E2 =    -0.1584978556D+01 EUMP2 =    -0.47231780691826D+03

 The electronic state is 1-A.
 Alpha  occ. eigenvalues --  -11.21686 -11.21683 -11.21644 -11.21548 -11.21482
 Alpha  occ. eigenvalues --  -11.21423 -11.21402 -11.21337 -11.21152 -11.21126
 Alpha  occ. eigenvalues --  -11.21104 -11.20958  -1.08534  -1.08411  -1.03622
 Alpha  occ. eigenvalues --   -1.03506  -0.96076  -0.95948  -0.87101  -0.86956
 Alpha  occ. eigenvalues --   -0.79710  -0.79557  -0.78396  -0.78188  -0.65392
 Alpha  occ. eigenvalues --   -0.64837  -0.61125  -0.60820  -0.59425  -0.59325
 Alpha  occ. eigenvalues --   -0.57748  -0.57528  -0.55459  -0.55156  -0.52750
 Alpha  occ. eigenvalues --   -0.52654  -0.52592  -0.52286  -0.50074  -0.49808
 Alpha  occ. eigenvalues --   -0.48187  -0.47766  -0.46851  -0.46583  -0.46249
 Alpha  occ. eigenvalues --   -0.45831  -0.45702  -0.45125  -0.43862  -0.43770
 Alpha virt. eigenvalues --    0.19020   0.21591   0.23732   0.25085   0.25626
 Alpha virt. eigenvalues --    0.26181   0.26341   0.27552   0.28987   0.30134
 Alpha virt. eigenvalues --    0.31019   0.31285   0.31488   0.31953   0.32309

 Mulliken charges:
               1
     1  C   -0.307107
     2  C   -0.299338
     3  C   -0.481914
     4  H    0.157382
     5  H    0.149574
     6  H    0.152035
     7  H    0.152472
     8  H    0.156170
     9  H    0.160082
    10  H    0.161239
    11  C   -0.297549
    12  C   -0.302377
    13  C   -0.475707
    14  H    0.149620
    15  H    0.150175
    16  H    0.153401
    17  H    0.152086
    18  H    0.155487
    19  H    0.155526
    20  H    0.160482
    21  C   -0.300419
    22  C   -0.300238
    23  C   -0.476399
    24  H    0.151699
    25  H    0.150010
    26  H    0.150943
    27  H    0.152310
    28  H    0.155570
    29  H    0.155622
    30  H    0.160328
    31  C   -0.305256
    32  C   -0.299177
    33  C   -0.482388
    34  H    0.154858
    35  H    0.149770
    36  H    0.152530
    37  H    0.151653
    38  H    0.154370
    39  H    0.162734
    40  H    0.159740
 Sum of Mulliken charges =  -0.00000

 Dipole moment (field-independent basis, Debye):
    X=             -0.0422    Y=             -0.0161    Z=             -0.0037  Tot=              0.0453
 Quadrupole moment (field-independent basis, Debye-Ang):
   XX=            -84.0662   YY=            -86.4084   ZZ=            -84.1836
   XY=              1.2397   XZ=             -0.5102   YZ=             -0.4674

 Normal termination of Gaussian 16 at Wed May  5 18:21:02 2021.
