 Gaussian 16, Revision A.03,
 Gaussian 16:  EM64L-G16RevA.03 25-Dec-2016

 -------------
 #p 6-31g* mp2
 -------------

 ------------------------------------------------------
 Input file generated by CHIRIPA (05-May-2021 14:53:12)
 ------------------------------------------------------
 Symbolic Z-matrix:
 Charge =  0 Multiplicity = 1

                         Standard orientation:
 ---------------------------------------------------------------------
 Center     Atomic      Atomic             Coordinates (Angstroms)
 Number     Number       Type             X           Y           Z
 ---------------------------------------------------------------------
      1          6           0       -2.679840    1.043121   -0.587634
      2          6           0       -1.756072    1.814450    0.355599
      3          6           0       -0.683942    2.611592   -0.387970
      4          1           0       -2.077586    0.362931   -1.205353
      5          1           0       -3.160178    1.749938   -1.278344
      6          1           0       -1.278676    1.106549    1.045226
      7          1           0       -2.360616    2.492745    0.971277
      8          1           0       -1.144445    3.339781   -1.063454
      9          1           0       -0.056358    1.945710   -0.989085
     10          1           0       -0.034747    3.155287    0.305429
     11          6           0       -3.756931    0.241303    0.140851
     12          6           0       -4.680699   -0.530026   -0.802382
     13          6           0       -5.752829   -1.327168   -0.058813
     14          1           0       -3.276593   -0.465514    0.831561
     15          1           0       -4.359185    0.921493    0.758570
     16          1           0       -4.076155   -1.208320   -1.418061
     17          1           0       -5.158095    0.177875   -1.492009
     18          1           0       -6.380414   -0.661286    0.542302
     19          1           0       -5.292326   -2.055357    0.616671
     20          1           0       -6.402025   -1.870863   -0.752212
     21          6           0        0.333096   -1.292932    1.165479
     22          6           0        0.832485   -1.891846    0.004259
     23          6           0        2.040045   -1.461561   -0.553597
     24          6           0        2.725241   -0.425238    0.078722
     25          6           0        2.253701    0.191508    1.236551
     26          6           0        1.044045   -0.254997    1.776841
     27          1           0       -0.605779   -1.633488    1.592013
     28          1           0        0.282494   -2.698124   -0.472679
     29          1           0        2.449608   -1.907545   -1.451804
     30          1           0        2.824510    0.993099    1.689371
     31          1           0        0.658619    0.211981    2.678742
     32          7           0        4.004740    0.038871   -0.502556
     33          8           0        4.589359    0.953687    0.073611
     34          8           0        4.398764   -0.520965   -1.523324
 ---------------------------------------------------------------------

 SCF Done:  E(RHF) =  -669.534467749     A.U. after   15 cycles
 E2 =    -0.2094333418D+01 EUMP2 =    -0.67162880116724D+03

 The electronic state is 1-A.
 Alpha  occ. eigenvalues --  -20.60827 -20.60820 -15.85882 -11.31289 -11.27866
 Alpha  occ. eigenvalues --  -11.27849 -11.27611 -11.26893 -11.26867 -11.22226
 Alpha  occ. eigenvalues --  -11.22084 -11.21955 -11.21856 -11.21672 -11.21310
 Alpha  occ. eigenvalues --   -1.59901  -1.39453  -1.19475  -1.09016  -1.08838
 Alpha  occ. eigenvalues --   -1.04884  -1.04012  -0.96465  -0.95689  -0.87475
 Alpha  occ. eigenvalues --   -0.86283  -0.82514  -0.80101  -0.78816  -0.77551
 Alpha  occ. eigenvalues --   -0.72100  -0.71225  -0.70585  -0.65669  -0.65124
 Alpha  occ. eigenvalues --   -0.64867  -0.62232  -0.61447  -0.59844  -0.58088
 Alpha  occ. eigenvalues --   -0.55810  -0.55360  -0.53221  -0.53066  -0.52968
 Alpha  occ. eigenvalues --   -0.52872  -0.50409  -0.48864  -0.48852  -0.48402
 Alpha  occ. eigenvalues --   -0.47164  -0.46352  -0.46286  -0.44850  -0.44292
 Alpha  occ. eigenvalues --   -0.37362  -0.36430
 Alpha virt. eigenvalues --    0.04949   0.11070   0.16328   0.19860   0.22811
 Alpha virt. eigenvalues --    0.23795   0.25304   0.26318   0.26695   0.27910
 Alpha virt. eigenvalues --    0.29695   0.30553   0.30931   0.31413   0.31789

 Mulliken charges:
               1
     1  C   -0.298877
     2  C   -0.302194
     3  C   -0.475154
     4  H    0.149606
     5  H    0.152290
     6  H    0.149040
     7  H    0.150309
     8  H    0.156476
     9  H    0.159012
    10  H    0.158371
    11  C   -0.297222
    12  C   -0.299691
    13  C   -0.475487
    14  H    0.138608
    15  H    0.151935
    16  H    0.150048
    17  H    0.155236
    18  H    0.156861
    19  H    0.151849
    20  H    0.162329
    21  C   -0.170279
    22  C   -0.219680
    23  C   -0.171370
    24  C    0.158282
    25  C   -0.170314
    26  C   -0.217412
    27  H    0.228065
    28  H    0.223972
    29  H    0.276135
    30  H    0.276174
    31  H    0.225077
    32  N    0.488076
    33  O   -0.459861
    34  O   -0.460211
 Sum of Mulliken charges =  -0.00000

 Dipole moment (field-independent basis, Debye):
    X=             -4.4614    Y=             -1.6129    Z=              1.9948  Tot=              5.1463
 Quadrupole moment (field-independent basis, Debye-Ang):
   XX=           -120.1071   YY=            -91.2667   ZZ=            -92.2268
   XY=             -3.2970   XZ=              6.2331   YZ=              2.0031

 Normal termination of Gaussian 16 at Thu May  6 15:19:02 2021.
