 Gaussian 16, Revision A.03,
 Gaussian 16:  EM64L-G16RevA.03 25-Dec-2016

 -------------
 #p 6-31g* mp2
 -------------

 ------------------------------------------------------
 Input file generated by CHIRIPA (05-May-2021 14:53:15)
 ------------------------------------------------------
 Symbolic Z-matrix:
 Charge =  0 Multiplicity = 1

                         Standard orientation:
 ---------------------------------------------------------------------
 Center     Atomic      Atomic             Coordinates (Angstroms)
 Number     Number       Type             X           Y           Z
 ---------------------------------------------------------------------
      1          6           0        2.961487    1.005253   -0.394828
      2          6           0        2.240447    2.237628    0.152290
      3          6           0        1.936350    3.273743   -0.930201
      4          1           0        3.897373    1.319679   -0.876699
      5          1           0        2.344516    0.546466   -1.179848
      6          1           0        2.857966    2.693157    0.937005
      7          1           0        1.306262    1.920210    0.633082
      8          1           0        1.300586    2.841360   -1.709592
      9          1           0        2.861107    3.618699   -1.403943
     10          1           0        1.420779    4.146363   -0.517186
     11          6           0        3.272360   -0.039628    0.675364
     12          6           0        3.993400   -1.272003    0.128247
     13          6           0        4.297497   -2.308118    1.210737
     14          1           0        3.889331    0.419158    1.460384
     15          1           0        2.336474   -0.354055    1.157235
     16          1           0        4.927585   -0.954586   -0.352546
     17          1           0        3.375881   -1.727532   -0.656469
     18          1           0        3.372741   -2.653074    1.684479
     19          1           0        4.933261   -1.875736    1.990129
     20          1           0        4.813068   -3.180738    0.797723
     21          6           0       -4.183807    1.069378    0.992847
     22          6           0       -2.922072    1.597178    0.699633
     23          6           0       -1.945443    0.804859    0.088917
     24          6           0       -2.266038   -0.517047   -0.216164
     25          6           0       -3.513981   -1.071827    0.063380
     26          6           0       -4.475221   -0.261095    0.674347
     27          1           0       -4.936499    1.692022    1.467363
     28          1           0       -2.692959    2.630100    0.945851
     29          1           0       -0.960573    1.187945   -0.149191
     30          1           0       -3.712891   -2.105078   -0.194001
     31          1           0       -5.454255   -0.673666    0.900896
     32          7           0       -1.240270   -1.365586   -0.862833
     33          8           0       -1.547606   -2.527161   -1.121531
     34          8           0       -0.148361   -0.853029   -1.098751
 ---------------------------------------------------------------------

 SCF Done:  E(RHF) =  -669.536199362     A.U. after   15 cycles
 E2 =    -0.2092506123D+01 EUMP2 =    -0.67162870548453D+03

 The electronic state is 1-A.
 Alpha  occ. eigenvalues --  -20.61006 -20.60992 -15.86036 -11.31306 -11.27866
 Alpha  occ. eigenvalues --  -11.27845 -11.27595 -11.26866 -11.26851 -11.21370
 Alpha  occ. eigenvalues --  -11.20987 -11.20619 -11.20533 -11.20475 -11.20262
 Alpha  occ. eigenvalues --   -1.60062  -1.39620  -1.19471  -1.08886  -1.07703
 Alpha  occ. eigenvalues --   -1.04860  -1.02947  -0.95737  -0.95378  -0.86415
 Alpha  occ. eigenvalues --   -0.86264  -0.82575  -0.79026  -0.77638  -0.77463
 Alpha  occ. eigenvalues --   -0.72278  -0.71373  -0.70586  -0.65142  -0.64894
 Alpha  occ. eigenvalues --   -0.64267  -0.62219  -0.60321  -0.58803  -0.56989
 Alpha  occ. eigenvalues --   -0.55371  -0.54641  -0.53195  -0.52950  -0.52156
 Alpha  occ. eigenvalues --   -0.51818  -0.49357  -0.49009  -0.49003  -0.47340
 Alpha  occ. eigenvalues --   -0.46026  -0.45151  -0.44943  -0.44817  -0.43134
 Alpha  occ. eigenvalues --   -0.37450  -0.36457
 Alpha virt. eigenvalues --    0.04870   0.11167   0.16383   0.19885   0.23082
 Alpha virt. eigenvalues --    0.24581   0.26691   0.27480   0.28166   0.28637
 Alpha virt. eigenvalues --    0.29338   0.30792   0.31523   0.32009   0.32436

 Mulliken charges:
               1
     1  C   -0.305077
     2  C   -0.300218
     3  C   -0.478735
     4  H    0.145186
     5  H    0.174630
     6  H    0.150992
     7  H    0.141203
     8  H    0.157411
     9  H    0.158252
    10  H    0.153256
    11  C   -0.295356
    12  C   -0.302612
    13  C   -0.475310
    14  H    0.142616
    15  H    0.151668
    16  H    0.147394
    17  H    0.166158
    18  H    0.155893
    19  H    0.150631
    20  H    0.158934
    21  C   -0.170281
    22  C   -0.220936
    23  C   -0.178126
    24  C    0.156678
    25  C   -0.170081
    26  C   -0.218827
    27  H    0.226148
    28  H    0.224600
    29  H    0.287416
    30  H    0.275760
    31  H    0.223880
    32  N    0.494016
    33  O   -0.458475
    34  O   -0.468688
 Sum of Mulliken charges =  -0.00000

 Dipole moment (field-independent basis, Debye):
    X=             -3.7674    Y=              2.8084    Z=              2.1123  Tot=              5.1519
 Quadrupole moment (field-independent basis, Debye-Ang):
   XX=            -76.3233   YY=            -96.1424   ZZ=            -97.0754
   XY=             -1.7173   XZ=             -5.1177   YZ=             -1.0367

 Normal termination of Gaussian 16 at Thu May  6 15:28:16 2021.
