 Gaussian 16, Revision A.03,
 Gaussian 16:  EM64L-G16RevA.03 25-Dec-2016

 -------------
 #p 6-31g* mp2
 -------------

 ------------------------------------------------------
 Input file generated by CHIRIPA (05-May-2021 14:57:27)
 ------------------------------------------------------
 Symbolic Z-matrix:
 Charge =  0 Multiplicity = 1

                         Standard orientation:
 ---------------------------------------------------------------------
 Center     Atomic      Atomic             Coordinates (Angstroms)
 Number     Number       Type             X           Y           Z
 ---------------------------------------------------------------------
      1          6           0       -2.866232    2.104593    0.144088
      2          6           0       -2.320451    0.884645    0.556850
      3          6           0       -3.080258   -0.287666    0.502730
      4          6           0       -4.388340   -0.203235    0.028301
      5          6           0       -4.960397    0.997161   -0.390139
      6          6           0       -4.182143    2.156865   -0.327258
      7          1           0       -2.268830    3.010376    0.189532
      8          1           0       -1.298774    0.841058    0.923349
      9          1           0       -2.682689   -1.245404    0.815928
     10          1           0       -5.981772    1.009082   -0.750790
     11          1           0       -4.608619    3.102899   -0.648480
     12          7           0       -5.202478   -1.437635   -0.033631
     13          8           0       -6.352437   -1.336633   -0.455566
     14          8           0       -4.675224   -2.482786    0.340934
     15          6           0        2.673302    1.963877    0.057277
     16          6           0        2.168252    0.660092    0.017381
     17          6           0        3.034831   -0.435698   -0.035824
     18          6           0        4.406992   -0.190090   -0.047768
     19          6           0        4.940816    1.097082   -0.008917
     20          6           0        4.055534    2.177833    0.044024
     21          1           0        1.992858    2.809272    0.098505
     22          1           0        1.095253    0.490931    0.027557
     23          1           0        2.670866   -1.455474   -0.067502
     24          1           0        6.015299    1.234098   -0.020289
     25          1           0        4.450596    3.189277    0.074925
     26          7           0        5.334300   -1.342193   -0.103954
     27          8           0        6.539066   -1.099123   -0.113440
     28          8           0        4.838798   -2.466468   -0.137443
 ---------------------------------------------------------------------

 SCF Done:  E(RHF) =  -868.336365682     A.U. after   16 cycles
 E2 =    -0.2599582410D+01 EUMP2 =    -0.87093594809267D+03

 The electronic state is 1-A.
 Alpha  occ. eigenvalues --  -20.61265 -20.61260 -20.61173 -20.61168 -15.86328
 Alpha  occ. eigenvalues --  -15.86234 -11.31857 -11.31746 -11.28506 -11.28436
 Alpha  occ. eigenvalues --  -11.28367 -11.28323 -11.28305 -11.28196 -11.27639
 Alpha  occ. eigenvalues --  -11.27501 -11.27473 -11.27375  -1.60338  -1.60246
 Alpha  occ. eigenvalues --   -1.39887  -1.39795  -1.20070  -1.19953  -1.09444
 Alpha  occ. eigenvalues --   -1.09336  -1.05510  -1.05383  -0.96241  -0.96137
 Alpha  occ. eigenvalues --   -0.86924  -0.86775  -0.83081  -0.82965  -0.78101
 Alpha  occ. eigenvalues --   -0.77964  -0.72543  -0.72449  -0.71664  -0.71571
 Alpha  occ. eigenvalues --   -0.71196  -0.71091  -0.65736  -0.65714  -0.65613
 Alpha  occ. eigenvalues --   -0.65281  -0.62929  -0.62648  -0.56047  -0.55918
 Alpha  occ. eigenvalues --   -0.53824  -0.53735  -0.53690  -0.53370  -0.49318
 Alpha  occ. eigenvalues --   -0.49286  -0.49220  -0.49193  -0.45255  -0.45167
 Alpha  occ. eigenvalues --   -0.38068  -0.37960  -0.37107  -0.36981
 Alpha virt. eigenvalues --    0.04470   0.04574   0.10464   0.10636   0.15847
 Alpha virt. eigenvalues --    0.16007   0.18144   0.21955   0.24562   0.26823
 Alpha virt. eigenvalues --    0.27895   0.28832   0.29292   0.31499   0.31633

 Mulliken charges:
               1
     1  C   -0.170351
     2  C   -0.223803
     3  C   -0.170194
     4  C    0.159213
     5  C   -0.169229
     6  C   -0.218166
     7  H    0.222571
     8  H    0.218852
     9  H    0.277111
    10  H    0.278243
    11  H    0.225555
    12  N    0.488013
    13  O   -0.458353
    14  O   -0.458565
    15  C   -0.170766
    16  C   -0.222537
    17  C   -0.170321
    18  C    0.159324
    19  C   -0.169841
    20  C   -0.218137
    21  H    0.220534
    22  H    0.219554
    23  H    0.278090
    24  H    0.277725
    25  H    0.224835
    26  N    0.487917
    27  O   -0.458864
    28  O   -0.458411
 Sum of Mulliken charges =  -0.00000

 Dipole moment (field-independent basis, Debye):
    X=             -0.4427    Y=              8.3359    Z=              0.3653  Tot=              8.3556
 Quadrupole moment (field-independent basis, Debye-Ang):
   XX=           -151.0712   YY=           -105.4452   ZZ=           -105.8547
   XY=             -0.7307   XZ=              1.8997   YZ=             -1.3023

 Normal termination of Gaussian 16 at Thu May  6 09:58:04 2021.
