 Gaussian 16, Revision A.03,
 Gaussian 16:  EM64L-G16RevA.03 25-Dec-2016

 -------------
 #p 6-31g* mp2
 -------------

 ------------------------------------------------------
 Input file generated by CHIRIPA (05-May-2021 14:53:12)
 ------------------------------------------------------
 Symbolic Z-matrix:
 Charge =  0 Multiplicity = 1

                         Standard orientation:
 ---------------------------------------------------------------------
 Center     Atomic      Atomic             Coordinates (Angstroms)
 Number     Number       Type             X           Y           Z
 ---------------------------------------------------------------------
      1          6           0        2.510555   -1.345922   -0.373116
      2          6           0        1.141404   -1.199105   -1.037840
      3          6           0        0.417566   -2.535857   -1.201987
      4          1           0        3.129815   -2.028897   -0.970616
      5          1           0        2.383950   -1.818628    0.610711
      6          1           0        1.270406   -0.725555   -2.019535
      7          1           0        0.525398   -0.516249   -0.438790
      8          1           0        0.259694   -3.010586   -0.228175
      9          1           0        1.008935   -3.221082   -1.817901
     10          1           0       -0.558997   -2.407654   -1.679219
     11          6           0        3.246461   -0.018172   -0.202089
     12          6           0        4.615611   -0.164989    0.462635
     13          6           0        5.339450    1.171764    0.626782
     14          1           0        3.373066    0.454534   -1.185916
     15          1           0        2.627201    0.664804    0.395411
     16          1           0        5.231618   -0.847844   -0.136415
     17          1           0        4.486609   -0.638538    1.444330
     18          1           0        4.748080    1.856988    1.242696
     19          1           0        5.497322    1.646493   -0.347030
     20          1           0        6.316012    1.043560    1.104014
     21          6           0       -3.336633   -1.631018    0.932005
     22          6           0       -2.230252   -1.141529    1.634032
     23          6           0       -1.619546    0.056338    1.251020
     24          6           0       -2.143670    0.742043    0.156309
     25          6           0       -3.244659    0.280240   -0.563310
     26          6           0       -3.839419   -0.919825   -0.162496
     27          1           0       -3.804851   -2.562404    1.236452
     28          1           0       -1.837637   -1.691735    2.484427
     29          1           0       -0.761852    0.458125    1.776707
     30          1           0       -3.613440    0.851005   -1.406900
     31          1           0       -4.698527   -1.297575   -0.709565
     32          7           0       -1.505583    2.011336   -0.258592
     33          8           0       -1.986414    2.596622   -1.226516
     34          8           0       -0.536702    2.396887    0.391990
 ---------------------------------------------------------------------

 SCF Done:  E(RHF) =  -669.535042299     A.U. after   15 cycles
 E2 =    -0.2094208495D+01 EUMP2 =    -0.67162925079367D+03

 The electronic state is 1-A.
 Alpha  occ. eigenvalues --  -20.60886 -20.60872 -15.85913 -11.31255 -11.27849
 Alpha  occ. eigenvalues --  -11.27844 -11.27588 -11.26860 -11.26847 -11.21374
 Alpha  occ. eigenvalues --  -11.21288 -11.21200 -11.21067 -11.20943 -11.20681
 Alpha  occ. eigenvalues --   -1.59939  -1.39496  -1.19457  -1.08844  -1.08165
 Alpha  occ. eigenvalues --   -1.04864  -1.03295  -0.95748  -0.95679  -0.86767
 Alpha  occ. eigenvalues --   -0.86258  -0.82515  -0.79372  -0.77961  -0.77558
 Alpha  occ. eigenvalues --   -0.72137  -0.71261  -0.70565  -0.65111  -0.64899
 Alpha  occ. eigenvalues --   -0.64777  -0.62212  -0.60732  -0.59134  -0.57363
 Alpha  occ. eigenvalues --   -0.55354  -0.55087  -0.53126  -0.52949  -0.52421
 Alpha  occ. eigenvalues --   -0.52163  -0.49697  -0.48903  -0.48891  -0.47689
 Alpha  occ. eigenvalues --   -0.46438  -0.45552  -0.45457  -0.44777  -0.43538
 Alpha  occ. eigenvalues --   -0.37366  -0.36404
 Alpha virt. eigenvalues --    0.04948   0.11106   0.16439   0.21040   0.23062
 Alpha virt. eigenvalues --    0.24468   0.26253   0.27297   0.27586   0.27943
 Alpha virt. eigenvalues --    0.28799   0.31033   0.31609   0.31861   0.32140

 Mulliken charges:
               1
     1  C   -0.297424
     2  C   -0.305328
     3  C   -0.473520
     4  H    0.148736
     5  H    0.143045
     6  H    0.155165
     7  H    0.155170
     8  H    0.148554
     9  H    0.154424
    10  H    0.159150
    11  C   -0.301191
    12  C   -0.299292
    13  C   -0.475738
    14  H    0.152395
    15  H    0.158437
    16  H    0.150203
    17  H    0.148349
    18  H    0.158221
    19  H    0.156571
    20  H    0.158052
    21  C   -0.169856
    22  C   -0.215738
    23  C   -0.176042
    24  C    0.162843
    25  C   -0.171277
    26  C   -0.218745
    27  H    0.226269
    28  H    0.223765
    29  H    0.275393
    30  H    0.275979
    31  H    0.223923
    32  N    0.489845
    33  O   -0.459264
    34  O   -0.461074
 Sum of Mulliken charges =  -0.00000

 Dipole moment (field-independent basis, Debye):
    X=             -2.3665    Y=             -4.3254    Z=              1.4435  Tot=              5.1374
 Quadrupole moment (field-independent basis, Debye-Ang):
   XX=            -83.5636   YY=           -103.0939   ZZ=            -91.0755
   XY=              7.5014   XZ=             -1.3298   YZ=             -0.1951

 Normal termination of Gaussian 16 at Thu May  6 15:19:37 2021.
