 Gaussian 16, Revision A.03,
 Gaussian 16:  EM64L-G16RevA.03 25-Dec-2016

 -------------
 #p 6-31g* mp2
 -------------

 ------------------------------------------------------
 Input file generated by CHIRIPA (05-May-2021 14:51:14)
 ------------------------------------------------------
 Symbolic Z-matrix:
 Charge =  0 Multiplicity = 1

                         Standard orientation:
 ---------------------------------------------------------------------
 Center     Atomic      Atomic             Coordinates (Angstroms)
 Number     Number       Type             X           Y           Z
 ---------------------------------------------------------------------
      1          6           0       -3.009588   -0.349070    0.675733
      2          6           0       -2.428667   -1.703977    0.269845
      3          6           0       -2.610697   -2.772272    1.348457
      4          1           0       -2.531692   -0.016636    1.607424
      5          1           0       -4.079012   -0.468292    0.898249
      6          1           0       -1.360964   -1.581965    0.046824
      7          1           0       -2.907865   -2.033134   -0.661091
      8          1           0       -3.673050   -2.923196    1.565781
      9          1           0       -2.117360   -2.469463    2.277717
     10          1           0       -2.188227   -3.732830    1.037480
     11          6           0       -2.835344    0.729249   -0.392254
     12          6           0       -3.416265    2.084155    0.013635
     13          6           0       -3.234235    3.152450   -1.064977
     14          1           0       -1.765920    0.848470   -0.614770
     15          1           0       -3.313240    0.396814   -1.323944
     16          1           0       -2.937067    2.413313    0.944570
     17          1           0       -4.483968    1.962143    0.236655
     18          1           0       -3.727572    2.849641   -1.994238
     19          1           0       -2.171882    3.303374   -1.282301
     20          1           0       -3.656705    4.113008   -0.754000
     21          6           0        2.867527    0.526471    0.117017
     22          6           0        4.221726    1.163227    0.431140
     23          6           0        4.095321    2.596715    0.947795
     24          1           0        2.344313    1.141450   -0.627961
     25          1           0        2.246137    0.537154    1.023193
     26          1           0        4.840882    1.150095   -0.475000
     27          1           0        4.741859    0.546559    1.175315
     28          1           0        3.499580    2.624176    1.865912
     29          1           0        3.599166    3.231141    0.206221
     30          1           0        5.075205    3.032676    1.166026
     31          6           0        2.977405   -0.906650   -0.400496
     32          6           0        1.623206   -1.543406   -0.714620
     33          6           0        1.749610   -2.976893   -1.231274
     34          1           0        3.598796   -0.917332   -1.306672
     35          1           0        3.500619   -1.521628    0.344482
     36          1           0        1.103073   -0.926737   -1.458794
     37          1           0        1.004050   -1.530272    0.191521
     38          1           0        2.245766   -3.611320   -0.489699
     39          1           0        2.345352   -3.004355   -2.149392
     40          1           0        0.769726   -3.412855   -1.449506
 ---------------------------------------------------------------------

 SCF Done:  E(RHF) =  -470.733211002     A.U. after   11 cycles
 E2 =    -0.1583159320D+01 EUMP2 =    -0.47231637032179D+03

 The electronic state is 1-A.
 Alpha  occ. eigenvalues --  -11.21662 -11.21648 -11.21574 -11.21496 -11.21464
 Alpha  occ. eigenvalues --  -11.21404 -11.21363 -11.21304 -11.21111 -11.21111
 Alpha  occ. eigenvalues --  -11.21054 -11.21044  -1.08493  -1.08384  -1.03595
 Alpha  occ. eigenvalues --   -1.03481  -0.96029  -0.95944  -0.87043  -0.86961
 Alpha  occ. eigenvalues --   -0.79719  -0.79505  -0.78363  -0.78140  -0.65150
 Alpha  occ. eigenvalues --   -0.64999  -0.61066  -0.60831  -0.59456  -0.59254
 Alpha  occ. eigenvalues --   -0.57686  -0.57503  -0.55320  -0.55225  -0.52724
 Alpha  occ. eigenvalues --   -0.52634  -0.52452  -0.52371  -0.49988  -0.49880
 Alpha  occ. eigenvalues --   -0.48116  -0.47796  -0.46818  -0.46483  -0.46024
 Alpha  occ. eigenvalues --   -0.45769  -0.45724  -0.45355  -0.43832  -0.43742
 Alpha virt. eigenvalues --    0.21191   0.23194   0.23493   0.24747   0.25698
 Alpha virt. eigenvalues --    0.26553   0.26968   0.27320   0.28383   0.29269
 Alpha virt. eigenvalues --    0.30782   0.30922   0.31490   0.31729   0.32501

 Mulliken charges:
               1
     1  C   -0.297412
     2  C   -0.310562
     3  C   -0.475359
     4  H    0.148969
     5  H    0.149264
     6  H    0.164027
     7  H    0.151193
     8  H    0.155165
     9  H    0.154324
    10  H    0.159983
    11  C   -0.299052
    12  C   -0.299569
    13  C   -0.475663
    14  H    0.150428
    15  H    0.149375
    16  H    0.151945
    17  H    0.151845
    18  H    0.155036
    19  H    0.155059
    20  H    0.160189
    21  C   -0.298463
    22  C   -0.299659
    23  C   -0.475760
    24  H    0.149392
    25  H    0.149065
    26  H    0.152171
    27  H    0.152126
    28  H    0.155114
    29  H    0.155207
    30  H    0.160497
    31  C   -0.297431
    32  C   -0.304084
    33  C   -0.476934
    34  H    0.149808
    35  H    0.149874
    36  H    0.152803
    37  H    0.154455
    38  H    0.155350
    39  H    0.155579
    40  H    0.161706
 Sum of Mulliken charges =  -0.00000

 Dipole moment (field-independent basis, Debye):
    X=              0.0495    Y=             -0.0073    Z=             -0.0154  Tot=              0.0523
 Quadrupole moment (field-independent basis, Debye-Ang):
   XX=            -84.0455   YY=            -86.4761   ZZ=            -84.3083
   XY=              0.0862   XZ=              0.3454   YZ=              0.0092

 Normal termination of Gaussian 16 at Thu May  6 00:49:38 2021.
