 Gaussian 16, Revision A.03,
 Gaussian 16:  EM64L-G16RevA.03 25-Dec-2016

 -------------
 #p 6-31g* mp2
 -------------

 ------------------------------------------------------
 Input file generated by CHIRIPA (05-May-2021 14:55:20)
 ------------------------------------------------------
 Symbolic Z-matrix:
 Charge =  0 Multiplicity = 1

                         Standard orientation:
 ---------------------------------------------------------------------
 Center     Atomic      Atomic             Coordinates (Angstroms)
 Number     Number       Type             X           Y           Z
 ---------------------------------------------------------------------
      1          6           0       -1.194319    2.524208    0.798975
      2          6           0       -0.502487    1.776574   -0.159635
      3          6           0       -1.086568    0.643324   -0.733343
      4          6           0       -2.369766    0.284767   -0.323308
      5          6           0       -3.084570    1.009105    0.629414
      6          6           0       -2.480884    2.138767    1.189751
      7          1           0       -0.732976    3.403150    1.239452
      8          1           0        0.496803    2.073558   -0.465031
      9          1           0       -0.573487    0.046401   -1.477554
     10          1           0       -4.079384    0.688238    0.913679
     11          1           0       -3.020530    2.717488    1.934002
     12          7           0       -2.998483   -0.913055   -0.923589
     13          8           0       -4.130103   -1.207990   -0.545320
     14          8           0       -2.347748   -1.534292   -1.760993
     15          6           0        3.593348   -0.548388   -0.027269
     16          6           0        3.923665    0.880505   -0.459865
     17          6           0        5.312735    1.002069   -1.087161
     18          1           0        4.352044   -0.892545    0.688889
     19          1           0        3.662322   -1.213293   -0.899358
     20          1           0        3.852738    1.542745    0.412502
     21          1           0        3.163987    1.221369   -1.174931
     22          1           0        5.392147    0.364756   -1.973800
     23          1           0        6.084811    0.687957   -0.377348
     24          1           0        5.528173    2.031768   -1.389096
     25          6           0        2.207985   -0.685999    0.601667
     26          6           0        1.877668   -2.114893    1.034262
     27          6           0        0.488598   -2.236455    1.661559
     28          1           0        2.139011   -0.021094    1.473756
     29          1           0        1.449289   -0.341842   -0.114491
     30          1           0        2.637346   -2.455757    1.749328
     31          1           0        1.948595   -2.777131    0.161896
     32          1           0       -0.283478   -1.922344    0.951746
     33          1           0        0.409186   -1.599143    2.548198
     34          1           0        0.273160   -3.266155    1.963494
 ---------------------------------------------------------------------

 SCF Done:  E(RHF) =  -669.533774574     A.U. after   15 cycles
 E2 =    -0.2094963346D+01 EUMP2 =    -0.67162873792068D+03

 The electronic state is 1-A.
 Alpha  occ. eigenvalues --  -20.60820 -20.60814 -15.85862 -11.31199 -11.27751
 Alpha  occ. eigenvalues --  -11.27742 -11.27475 -11.26768 -11.26727 -11.22332
 Alpha  occ. eigenvalues --  -11.21837 -11.21753 -11.21693 -11.21604 -11.21002
 Alpha  occ. eigenvalues --   -1.59888  -1.39443  -1.19371  -1.08862  -1.08760
 Alpha  occ. eigenvalues --   -1.04780  -1.03873  -0.96299  -0.95609  -0.87322
 Alpha  occ. eigenvalues --   -0.86167  -0.82458  -0.79983  -0.78728  -0.77457
 Alpha  occ. eigenvalues --   -0.72080  -0.71212  -0.70487  -0.65533  -0.65006
 Alpha  occ. eigenvalues --   -0.64772  -0.62133  -0.61262  -0.59699  -0.57917
 Alpha  occ. eigenvalues --   -0.55580  -0.55263  -0.53172  -0.52986  -0.52838
 Alpha  occ. eigenvalues --   -0.52726  -0.50262  -0.48839  -0.48835  -0.48272
 Alpha  occ. eigenvalues --   -0.47031  -0.46195  -0.46108  -0.44827  -0.44136
 Alpha  occ. eigenvalues --   -0.37329  -0.36234
 Alpha virt. eigenvalues --    0.05012   0.11177   0.16439   0.19805   0.22928
 Alpha virt. eigenvalues --    0.23678   0.25013   0.26242   0.27486   0.28107
 Alpha virt. eigenvalues --    0.29470   0.30607   0.31280   0.31535   0.32012

 Mulliken charges:
               1
     1  C   -0.172991
     2  C   -0.214622
     3  C   -0.173336
     4  C    0.158708
     5  C   -0.171781
     6  C   -0.218030
     7  H    0.225794
     8  H    0.228690
     9  H    0.274592
    10  H    0.275597
    11  H    0.223395
    12  N    0.488463
    13  O   -0.459539
    14  O   -0.461073
    15  C   -0.298171
    16  C   -0.301127
    17  C   -0.475530
    18  H    0.152035
    19  H    0.152435
    20  H    0.149898
    21  H    0.143739
    22  H    0.157980
    23  H    0.157778
    24  H    0.160109
    25  C   -0.300278
    26  C   -0.300400
    27  C   -0.476733
    28  H    0.147286
    29  H    0.145850
    30  H    0.151747
    31  H    0.155907
    32  H    0.157686
    33  H    0.152363
    34  H    0.163559
 Sum of Mulliken charges =  -0.00000

 Dipole moment (field-independent basis, Debye):
    X=              2.2390    Y=              4.1489    Z=              2.1441  Tot=              5.1792
 Quadrupole moment (field-independent basis, Debye-Ang):
   XX=           -102.5541   YY=            -92.7426   ZZ=            -94.5648
   XY=            -10.4892   XZ=             -7.6521   YZ=              0.1089

 Normal termination of Gaussian 16 at Thu May  6 12:26:39 2021.
