 Gaussian 16, Revision A.03,
 Gaussian 16:  EM64L-G16RevA.03 25-Dec-2016

 -------------
 #p 6-31g* mp2
 -------------

 ------------------------------------------------------
 Input file generated by CHIRIPA (05-May-2021 14:57:23)
 ------------------------------------------------------
 Symbolic Z-matrix:
 Charge =  0 Multiplicity = 1

                         Standard orientation:
 ---------------------------------------------------------------------
 Center     Atomic      Atomic             Coordinates (Angstroms)
 Number     Number       Type             X           Y           Z
 ---------------------------------------------------------------------
      1          6           0        4.470466    2.354134   -0.168546
      2          6           0        4.456996    1.528018   -1.297205
      3          6           0        3.893227    0.250185   -1.235095
      4          6           0        3.349325   -0.171351   -0.022755
      5          6           0        3.347558    0.628326    1.119086
      6          6           0        3.916680    1.902448    1.033878
      7          1           0        4.910494    3.345344   -0.225766
      8          1           0        4.886347    1.876168   -2.232348
      9          1           0        3.869397   -0.410016   -2.093573
     10          1           0        2.911911    0.253508    2.037313
     11          1           0        3.925737    2.541857    1.912012
     12          7           0        2.749655   -1.522171    0.055224
     13          8           0        2.276934   -1.870105    1.135092
     14          8           0        2.763708   -2.207432   -0.965000
     15          6           0       -1.608197   -1.710426    0.512784
     16          6           0       -2.244464   -1.709797   -0.732881
     17          6           0       -3.265206   -0.795044   -1.008310
     18          6           0       -3.626039    0.109120   -0.010524
     19          6           0       -3.011132    0.133432    1.240311
     20          6           0       -1.992882   -0.790431    1.493676
     21          1           0       -0.816228   -2.424567    0.718175
     22          1           0       -1.947787   -2.423127   -1.496550
     23          1           0       -3.774567   -0.772554   -1.964062
     24          1           0       -3.328743    0.856645    1.981595
     25          1           0       -1.500509   -0.788613    2.461978
     26          7           0       -4.705333    1.082351   -0.290429
     27          8           0       -5.004764    1.868678    0.605487
     28          8           0       -5.231416    1.040413   -1.400436
 ---------------------------------------------------------------------

 SCF Done:  E(RHF) =  -868.340507021     A.U. after   16 cycles
 E2 =    -0.2598358388D+01 EUMP2 =    -0.87093886540851D+03

 The electronic state is 1-A.
 Alpha  occ. eigenvalues --  -20.61782 -20.61752 -20.60336 -20.60330 -15.86789
 Alpha  occ. eigenvalues --  -15.85385 -11.31840 -11.30561 -11.28389 -11.28359
 Alpha  occ. eigenvalues --  -11.28043 -11.27315 -11.27297 -11.27142 -11.27118
 Alpha  occ. eigenvalues --  -11.26591 -11.26024 -11.25986  -1.60832  -1.59417
 Alpha  occ. eigenvalues --   -1.40394  -1.38976  -1.19981  -1.18702  -1.09432
 Alpha  occ. eigenvalues --   -1.08083  -1.05339  -1.04089  -0.96321  -0.94954
 Alpha  occ. eigenvalues --   -0.86751  -0.85463  -0.83168  -0.81810  -0.78252
 Alpha  occ. eigenvalues --   -0.76926  -0.73025  -0.72136  -0.71603  -0.71085
 Alpha  occ. eigenvalues --   -0.70742  -0.69663  -0.65638  -0.65338  -0.64327
 Alpha  occ. eigenvalues --   -0.64058  -0.62695  -0.61449  -0.55844  -0.54407
 Alpha  occ. eigenvalues --   -0.53675  -0.53427  -0.52425  -0.52154  -0.49790
 Alpha  occ. eigenvalues --   -0.49751  -0.48372  -0.48342  -0.45865  -0.44425
 Alpha  occ. eigenvalues --   -0.37933  -0.36925  -0.36605  -0.35725
 Alpha virt. eigenvalues --    0.04239   0.05617   0.10735   0.11951   0.15796
 Alpha virt. eigenvalues --    0.17178   0.20889   0.22349   0.26811   0.27685
 Alpha virt. eigenvalues --    0.28088   0.29364   0.30550   0.31934   0.32078

 Mulliken charges:
               1
     1  C   -0.169355
     2  C   -0.218235
     3  C   -0.170184
     4  C    0.158570
     5  C   -0.170117
     6  C   -0.218112
     7  H    0.228481
     8  H    0.225889
     9  H    0.276022
    10  H    0.273167
    11  H    0.225386
    12  N    0.489104
    13  O   -0.468838
    14  O   -0.459254
    15  C   -0.176452
    16  C   -0.220857
    17  C   -0.172238
    18  C    0.156915
    19  C   -0.172827
    20  C   -0.221500
    21  H    0.247232
    22  H    0.226240
    23  H    0.273139
    24  H    0.271900
    25  H    0.223260
    26  N    0.488259
    27  O   -0.463259
    28  O   -0.462335
 Sum of Mulliken charges =  -0.00000

 Dipole moment (field-independent basis, Debye):
    X=              6.3457    Y=              1.2950    Z=              0.6547  Tot=              6.5095
 Quadrupole moment (field-independent basis, Debye-Ang):
   XX=           -119.8415   YY=           -107.1643   ZZ=            -96.1285
   XY=             29.5637   XZ=             -5.5422   YZ=              2.9576

 Normal termination of Gaussian 16 at Thu May  6 12:55:43 2021.
