 Gaussian 16, Revision A.03,
 Gaussian 16:  EM64L-G16RevA.03 25-Dec-2016

 -------------
 #p 6-31g* mp2
 -------------

 ------------------------------------------------------
 Input file generated by CHIRIPA (05-May-2021 14:57:27)
 ------------------------------------------------------
 Symbolic Z-matrix:
 Charge =  0 Multiplicity = 1

                         Standard orientation:
 ---------------------------------------------------------------------
 Center     Atomic      Atomic             Coordinates (Angstroms)
 Number     Number       Type             X           Y           Z
 ---------------------------------------------------------------------
      1          6           0        4.763874    1.540406    0.500697
      2          6           0        3.837658    1.168350    1.480605
      3          6           0        2.961762    0.101058    1.260962
      4          6           0        3.039865   -0.575238    0.044486
      5          6           0        3.951622   -0.228501   -0.951386
      6          6           0        4.817805    0.842025   -0.710036
      7          1           0        5.440518    2.370761    0.679753
      8          1           0        3.793520    1.708917    2.421819
      9          1           0        2.234962   -0.208110    2.002308
     10          1           0        3.971871   -0.786388   -1.879702
     11          1           0        5.536095    1.128753   -1.472854
     12          7           0        2.117734   -1.706844   -0.199530
     13          8           0        2.206593   -2.286601   -1.279633
     14          8           0        1.323570   -1.992612    0.693933
     15          6           0       -1.578110    2.255455   -0.611150
     16          6           0       -1.114374    0.940808   -0.496377
     17          6           0       -1.999488   -0.101409   -0.204991
     18          6           0       -3.347852    0.208268   -0.033808
     19          6           0       -3.840447    1.507875   -0.141802
     20          6           0       -2.937270    2.534301   -0.433808
     21          1           0       -0.883516    3.058941   -0.837746
     22          1           0       -0.059369    0.721306   -0.633593
     23          1           0       -1.667448   -1.128173   -0.110529
     24          1           0       -4.897780    1.695640    0.000348
     25          1           0       -3.300239    3.554329   -0.522354
     26          7           0       -4.294444   -0.886722    0.274998
     27          8           0       -5.477583   -0.587685    0.421279
     28          8           0       -3.835321   -2.023277    0.364911
 ---------------------------------------------------------------------

 SCF Done:  E(RHF) =  -868.338430485     A.U. after   16 cycles
 E2 =    -0.2600163548D+01 EUMP2 =    -0.87093859403326D+03

 The electronic state is 1-A.
 Alpha  occ. eigenvalues --  -20.61722 -20.61706 -20.60142 -20.60106 -15.86743
 Alpha  occ. eigenvalues --  -15.85180 -11.32057 -11.30569 -11.28591 -11.28585
 Alpha  occ. eigenvalues --  -11.28295 -11.27562 -11.27552 -11.27243 -11.27037
 Alpha  occ. eigenvalues --  -11.27020 -11.26283 -11.26199  -1.60795  -1.59205
 Alpha  occ. eigenvalues --   -1.40339  -1.38753  -1.20214  -1.18787  -1.09615
 Alpha  occ. eigenvalues --   -1.08201  -1.05579  -1.04182  -0.96451  -0.95009
 Alpha  occ. eigenvalues --   -0.86977  -0.85596  -0.83264  -0.81833  -0.78332
 Alpha  occ. eigenvalues --   -0.76853  -0.72931  -0.72150  -0.71398  -0.71275
 Alpha  occ. eigenvalues --   -0.70532  -0.69905  -0.65841  -0.65551  -0.64441
 Alpha  occ. eigenvalues --   -0.64213  -0.62906  -0.61495  -0.56060  -0.54754
 Alpha  occ. eigenvalues --   -0.53948  -0.53645  -0.52541  -0.52272  -0.49708
 Alpha  occ. eigenvalues --   -0.49696  -0.48175  -0.48138  -0.45734  -0.44151
 Alpha  occ. eigenvalues --   -0.38195  -0.37188  -0.36827  -0.35786
 Alpha virt. eigenvalues --    0.04133   0.05672   0.10435   0.11858   0.15626
 Alpha virt. eigenvalues --    0.17117   0.20710   0.21745   0.26648   0.27018
 Alpha virt. eigenvalues --    0.27669   0.28849   0.30403   0.31150   0.31858

 Mulliken charges:
               1
     1  C   -0.170746
     2  C   -0.219069
     3  C   -0.174248
     4  C    0.150949
     5  C   -0.172192
     6  C   -0.218966
     7  H    0.228335
     8  H    0.226529
     9  H    0.278934
    10  H    0.278026
    11  H    0.226250
    12  N    0.486331
    13  O   -0.454740
    14  O   -0.460310
    15  C   -0.172352
    16  C   -0.220905
    17  C   -0.172321
    18  C    0.157180
    19  C   -0.171209
    20  C   -0.219721
    21  H    0.220978
    22  H    0.218103
    23  H    0.293242
    24  H    0.273784
    25  H    0.220124
    26  N    0.487574
    27  O   -0.464288
    28  O   -0.455271
 Sum of Mulliken charges =  -0.00000

 Dipole moment (field-independent basis, Debye):
    X=              6.9127    Y=              7.6202    Z=             -0.1853  Tot=             10.2901
 Quadrupole moment (field-independent basis, Debye-Ang):
   XX=           -104.1792   YY=           -106.6356   ZZ=           -101.4100
   XY=             -4.3974   XZ=              4.1115   YZ=              0.3031

 Normal termination of Gaussian 16 at Thu May  6 06:50:47 2021.
