 Gaussian 16, Revision A.03,
 Gaussian 16:  EM64L-G16RevA.03 25-Dec-2016

 -------------
 #p 6-31g* mp2
 -------------

 ------------------------------------------------------
 Input file generated by CHIRIPA (05-May-2021 14:57:21)
 ------------------------------------------------------
 Symbolic Z-matrix:
 Charge =  0 Multiplicity = 1

                         Standard orientation:
 ---------------------------------------------------------------------
 Center     Atomic      Atomic             Coordinates (Angstroms)
 Number     Number       Type             X           Y           Z
 ---------------------------------------------------------------------
      1          6           0       -3.737391    0.820278   -1.243538
      2          6           0       -3.235000    1.354337   -0.052360
      3          6           0       -2.365913    0.608309    0.749311
      4          6           0       -2.018571   -0.674193    0.327608
      5          6           0       -2.502375   -1.234034   -0.853832
      6          6           0       -3.370123   -0.469928   -1.639774
      7          1           0       -4.411999    1.406833   -1.860186
      8          1           0       -3.518507    2.356054    0.257852
      9          1           0       -1.962207    0.997278    1.676211
     10          1           0       -2.201657   -2.235483   -1.136828
     11          1           0       -3.758738   -0.887251   -2.564362
     12          7           0       -1.099216   -1.473549    1.167976
     13          8           0       -0.808492   -2.600996    0.774303
     14          8           0       -0.686759   -0.957500    2.204417
     15          6           0        0.978696    2.551076    0.765838
     16          6           0        1.069409    2.384451   -0.619993
     17          6           0        1.727167    1.275372   -1.160221
     18          6           0        2.285272    0.348263   -0.281426
     19          6           0        2.211573    0.486338    1.103779
     20          6           0        1.549062    1.603159    1.621792
     21          1           0        0.465888    3.415643    1.176871
     22          1           0        0.627395    3.119013   -1.287141
     23          1           0        1.812113    1.121724   -2.229143
     24          1           0        2.662101   -0.262794    1.743501
     25          1           0        1.480156    1.729979    2.698460
     26          7           0        2.984126   -0.829968   -0.841582
     27          8           0        3.467453   -1.632498   -0.045982
     28          8           0        3.035329   -0.928625   -2.065625
 ---------------------------------------------------------------------

 SCF Done:  E(RHF) =  -868.337357276     A.U. after   16 cycles
 E2 =    -0.2603631837D+01 EUMP2 =    -0.87094098911224D+03

 The electronic state is 1-A.
 Alpha  occ. eigenvalues --  -20.61024 -20.60994 -20.60233 -20.60177 -15.86034
 Alpha  occ. eigenvalues --  -15.85265 -11.31415 -11.30718 -11.28063 -11.27965
 Alpha  occ. eigenvalues --  -11.27782 -11.27353 -11.27171 -11.27148 -11.27076
 Alpha  occ. eigenvalues --  -11.26984 -11.26450 -11.26271  -1.60068  -1.59278
 Alpha  occ. eigenvalues --   -1.39626  -1.38828  -1.19608  -1.18918  -1.09004
 Alpha  occ. eigenvalues --   -1.08325  -1.05023  -1.04297  -0.95837  -0.95131
 Alpha  occ. eigenvalues --   -0.86420  -0.85718  -0.82684  -0.81933  -0.77720
 Alpha  occ. eigenvalues --   -0.76947  -0.72283  -0.71490  -0.71414  -0.70735
 Alpha  occ. eigenvalues --   -0.70581  -0.70063  -0.65273  -0.65041  -0.64564
 Alpha  occ. eigenvalues --   -0.64318  -0.62379  -0.61630  -0.55539  -0.54899
 Alpha  occ. eigenvalues --   -0.53429  -0.53139  -0.52577  -0.52398  -0.49054
 Alpha  occ. eigenvalues --   -0.49006  -0.48259  -0.48221  -0.45040  -0.44208
 Alpha  occ. eigenvalues --   -0.37620  -0.37229  -0.36372  -0.35742
 Alpha virt. eigenvalues --    0.04813   0.05568   0.11025   0.11711   0.16155
 Alpha virt. eigenvalues --    0.17168   0.20890   0.21888   0.26797   0.27516
 Alpha virt. eigenvalues --    0.28170   0.28902   0.30629   0.31282   0.32211

 Mulliken charges:
               1
     1  C   -0.171238
     2  C   -0.221404
     3  C   -0.164470
     4  C    0.158663
     5  C   -0.169873
     6  C   -0.219162
     7  H    0.225279
     8  H    0.219359
     9  H    0.269803
    10  H    0.279325
    11  H    0.225209
    12  N    0.487512
    13  O   -0.453480
    14  O   -0.465604
    15  C   -0.179427
    16  C   -0.216827
    17  C   -0.173567
    18  C    0.151604
    19  C   -0.160213
    20  C   -0.210313
    21  H    0.218583
    22  H    0.218042
    23  H    0.272731
    24  H    0.282994
    25  H    0.226204
    26  N    0.489220
    27  O   -0.453718
    28  O   -0.465229
 Sum of Mulliken charges =  -0.00000

 Dipole moment (field-independent basis, Debye):
    X=             -5.6006    Y=              6.5995    Z=             -0.8337  Tot=              8.6957
 Quadrupole moment (field-independent basis, Debye-Ang):
   XX=           -104.1435   YY=           -103.6383   ZZ=           -101.9389
   XY=              4.9235   XZ=             12.2629   YZ=              3.6658

 Normal termination of Gaussian 16 at Thu May  6 14:27:45 2021.
