 Gaussian 16, Revision A.03,
 Gaussian 16:  EM64L-G16RevA.03 25-Dec-2016

 -------------
 #p 6-31g* mp2
 -------------

 ------------------------------------------------------
 Input file generated by CHIRIPA (05-May-2021 14:55:24)
 ------------------------------------------------------
 Symbolic Z-matrix:
 Charge =  0 Multiplicity = 1

                         Standard orientation:
 ---------------------------------------------------------------------
 Center     Atomic      Atomic             Coordinates (Angstroms)
 Number     Number       Type             X           Y           Z
 ---------------------------------------------------------------------
      1          6           0       -3.453127    1.644555    1.047740
      2          6           0       -2.056912    1.567799    1.082575
      3          6           0       -1.390138    0.489970    0.492452
      4          6           0       -2.154351   -0.497870   -0.126776
      5          6           0       -3.546594   -0.449726   -0.178060
      6          6           0       -4.192209    0.637323    0.418642
      7          1           0       -3.962874    2.485420    1.508717
      8          1           0       -1.480356    2.348577    1.570441
      9          1           0       -0.310259    0.405549    0.504794
     10          1           0       -4.094196   -1.243336   -0.671754
     11          1           0       -5.276635    0.694313    0.390055
     12          7           0       -1.459667   -1.643800   -0.754995
     13          8           0       -2.155851   -2.501177   -1.294318
     14          8           0       -0.232145   -1.662904   -0.696176
     15          6           0        2.940893   -0.107778    0.603122
     16          6           0        3.470445   -1.476867    0.175155
     17          6           0        3.538170   -2.472897    1.333228
     18          1           0        3.583745    0.294880    1.397826
     19          1           0        1.940898   -0.229957    1.041843
     20          1           0        4.468570   -1.351968   -0.263892
     21          1           0        2.826370   -1.876227   -0.618756
     22          1           0        2.545030   -2.626931    1.767447
     23          1           0        4.196561   -2.099692    2.124329
     24          1           0        3.919402   -3.444895    1.004990
     25          6           0        2.867345    0.898835   -0.543634
     26          6           0        2.337793    2.267924   -0.115666
     27          6           0        2.270068    3.263953   -1.273738
     28          1           0        3.867339    1.021013   -0.982355
     29          1           0        2.224493    0.496176   -1.338337
     30          1           0        2.981868    2.667285    0.678245
     31          1           0        1.339668    2.143025    0.323380
     32          1           0        1.611677    2.890748   -2.064839
     33          1           0        3.263208    3.417987   -1.707959
     34          1           0        1.888835    4.235951   -0.945500
 ---------------------------------------------------------------------

 SCF Done:  E(RHF) =  -669.535507887     A.U. after   15 cycles
 E2 =    -0.2093787054D+01 EUMP2 =    -0.67162929494099D+03

 The electronic state is 1-A.
 Alpha  occ. eigenvalues --  -20.60965 -20.60951 -15.85995 -11.31267 -11.27835
 Alpha  occ. eigenvalues --  -11.27789 -11.27564 -11.26836 -11.26816 -11.21864
 Alpha  occ. eigenvalues --  -11.21236 -11.21119 -11.20994 -11.20734 -11.20307
 Alpha  occ. eigenvalues --   -1.60021  -1.39579  -1.19438  -1.08850  -1.08148
 Alpha  occ. eigenvalues --   -1.04830  -1.03207  -0.95712  -0.95654  -0.86698
 Alpha  occ. eigenvalues --   -0.86235  -0.82538  -0.79359  -0.77923  -0.77574
 Alpha  occ. eigenvalues --   -0.72235  -0.71333  -0.70567  -0.65126  -0.65053
 Alpha  occ. eigenvalues --   -0.64573  -0.62138  -0.60569  -0.59098  -0.57267
 Alpha  occ. eigenvalues --   -0.55346  -0.54933  -0.53162  -0.52924  -0.52404
 Alpha  occ. eigenvalues --   -0.52082  -0.49655  -0.48973  -0.48958  -0.47651
 Alpha  occ. eigenvalues --   -0.46381  -0.45435  -0.45289  -0.44932  -0.43466
 Alpha  occ. eigenvalues --   -0.37417  -0.36421
 Alpha virt. eigenvalues --    0.04893   0.11202   0.16390   0.19619   0.23280
 Alpha virt. eigenvalues --    0.24368   0.25449   0.27171   0.27658   0.28291
 Alpha virt. eigenvalues --    0.29436   0.31264   0.31862   0.31923   0.32635

 Mulliken charges:
               1
     1  C   -0.170087
     2  C   -0.224073
     3  C   -0.180757
     4  C    0.155840
     5  C   -0.169359
     6  C   -0.219233
     7  H    0.226100
     8  H    0.225302
     9  H    0.294496
    10  H    0.275712
    11  H    0.223813
    12  N    0.491024
    13  O   -0.458515
    14  O   -0.467444
    15  C   -0.298533
    16  C   -0.303382
    17  C   -0.475914
    18  H    0.145146
    19  H    0.146841
    20  H    0.146788
    21  H    0.174406
    22  H    0.158850
    23  H    0.148926
    24  H    0.160340
    25  C   -0.304454
    26  C   -0.299850
    27  C   -0.475155
    28  H    0.150595
    29  H    0.162125
    30  H    0.152737
    31  H    0.135235
    32  H    0.157608
    33  H    0.158101
    34  H    0.156773
 Sum of Mulliken charges =  -0.00000

 Dipole moment (field-independent basis, Debye):
    X=             -2.5182    Y=              3.8620    Z=              2.0328  Tot=              5.0388
 Quadrupole moment (field-independent basis, Debye-Ang):
   XX=            -79.5794   YY=            -99.2741   ZZ=            -96.2542
   XY=             -5.4894   XZ=             -3.6041   YZ=             -0.1958

 Normal termination of Gaussian 16 at Wed May  5 19:07:46 2021.
