 Gaussian 16, Revision A.03,
 Gaussian 16:  EM64L-G16RevA.03 25-Dec-2016

 -------------
 #p 6-31g* mp2
 -------------

 ------------------------------------------------------
 Input file generated by CHIRIPA (05-May-2021 14:57:21)
 ------------------------------------------------------
 Symbolic Z-matrix:
 Charge =  0 Multiplicity = 1

                         Standard orientation:
 ---------------------------------------------------------------------
 Center     Atomic      Atomic             Coordinates (Angstroms)
 Number     Number       Type             X           Y           Z
 ---------------------------------------------------------------------
      1          6           0        4.538086    1.783816   -0.987554
      2          6           0        4.790877    0.460703   -1.364371
      3          6           0        4.081990   -0.592223   -0.778389
      4          6           0        3.123039   -0.284506    0.185464
      5          6           0        2.848343    1.023360    0.582097
      6          6           0        3.569334    2.060434   -0.017233
      7          1           0        5.093468    2.595597   -1.447944
      8          1           0        5.542645    0.242908   -2.117667
      9          1           0        4.257543   -1.625694   -1.051401
     10          1           0        2.092860    1.209171    1.335847
     11          1           0        3.370902    3.087020    0.277368
     12          7           0        2.366165   -1.390801    0.812883
     13          8           0        1.526463   -1.093278    1.659652
     14          8           0        2.626961   -2.534489    0.446004
     15          6           0       -3.343742    2.563319    0.465197
     16          6           0       -2.316140    1.769979    0.985936
     17          6           0       -2.253050    0.405202    0.689373
     18          6           0       -3.238503   -0.135758   -0.134965
     19          6           0       -4.274845    0.628437   -0.669091
     20          6           0       -4.318097    1.991024   -0.359201
     21          1           0       -3.385046    3.622660    0.700750
     22          1           0       -1.558085    2.211728    1.626448
     23          1           0       -1.468559   -0.232118    1.079010
     24          1           0       -5.016207    0.159593   -1.304691
     25          1           0       -5.117303    2.604716   -0.765028
     26          7           0       -3.182215   -1.579428   -0.455976
     27          8           0       -4.062477   -2.031964   -1.184664
     28          8           0       -2.258898   -2.231105    0.027181
 ---------------------------------------------------------------------

 SCF Done:  E(RHF) =  -868.337518366     A.U. after   16 cycles
 E2 =    -0.2599658761D+01 EUMP2 =    -0.87093717712661D+03

 The electronic state is 1-A.
 Alpha  occ. eigenvalues --  -20.60948 -20.60870 -20.60113 -20.60056 -15.85955
 Alpha  occ. eigenvalues --  -15.85143 -11.31391 -11.30660 -11.28035 -11.27916
 Alpha  occ. eigenvalues --  -11.27706 -11.27324 -11.27148 -11.27133 -11.27032
 Alpha  occ. eigenvalues --  -11.26953 -11.26376 -11.26349  -1.59951  -1.59171
 Alpha  occ. eigenvalues --   -1.39516  -1.38712  -1.19563  -1.18882  -1.08938
 Alpha  occ. eigenvalues --   -1.08267  -1.04985  -1.04304  -0.95766  -0.95057
 Alpha  occ. eigenvalues --   -0.86379  -0.85700  -0.82607  -0.81880  -0.77651
 Alpha  occ. eigenvalues --   -0.76878  -0.72173  -0.71358  -0.71256  -0.70678
 Alpha  occ. eigenvalues --   -0.70507  -0.69987  -0.65222  -0.64992  -0.64533
 Alpha  occ. eigenvalues --   -0.64324  -0.62345  -0.61616  -0.55473  -0.54842
 Alpha  occ. eigenvalues --   -0.53297  -0.53085  -0.52647  -0.52394  -0.48930
 Alpha  occ. eigenvalues --   -0.48904  -0.48148  -0.48089  -0.44894  -0.44085
 Alpha  occ. eigenvalues --   -0.37534  -0.36915  -0.36589  -0.35922
 Alpha virt. eigenvalues --    0.04870   0.05640   0.11063   0.11723   0.16320
 Alpha virt. eigenvalues --    0.17067   0.20722   0.21939   0.26107   0.27442
 Alpha virt. eigenvalues --    0.28457   0.29028   0.30944   0.31324   0.32857

 Mulliken charges:
               1
     1  C   -0.170812
     2  C   -0.218118
     3  C   -0.169889
     4  C    0.160210
     5  C   -0.170791
     6  C   -0.217780
     7  H    0.225927
     8  H    0.224857
     9  H    0.278100
    10  H    0.267923
    11  H    0.221229
    12  N    0.490588
    13  O   -0.467079
    14  O   -0.451151
    15  C   -0.171231
    16  C   -0.221330
    17  C   -0.178218
    18  C    0.156901
    19  C   -0.170931
    20  C   -0.219538
    21  H    0.221980
    22  H    0.218383
    23  H    0.294517
    24  H    0.274439
    25  H    0.221074
    26  N    0.486460
    27  O   -0.464762
    28  O   -0.450956
 Sum of Mulliken charges =  -0.00000

 Dipole moment (field-independent basis, Debye):
    X=              2.7666    Y=              8.6699    Z=             -1.1165  Tot=              9.1689
 Quadrupole moment (field-independent basis, Debye-Ang):
   XX=            -83.1828   YY=           -107.1955   ZZ=           -104.1389
   XY=             -7.3938   XZ=             -9.6134   YZ=              2.1635

 Normal termination of Gaussian 16 at Wed May  5 22:31:02 2021.
