 Gaussian 16, Revision A.03,
 Gaussian 16:  EM64L-G16RevA.03 25-Dec-2016

 -------------
 #p 6-31g* mp2
 -------------

 ------------------------------------------------------
 Input file generated by CHIRIPA (05-May-2021 14:53:12)
 ------------------------------------------------------
 Symbolic Z-matrix:
 Charge =  0 Multiplicity = 1

                         Standard orientation:
 ---------------------------------------------------------------------
 Center     Atomic      Atomic             Coordinates (Angstroms)
 Number     Number       Type             X           Y           Z
 ---------------------------------------------------------------------
      1          6           0        2.516615    0.035869    0.167010
      2          6           0        2.633368   -0.866130   -1.062117
      3          6           0        3.301190   -2.205887   -0.750896
      4          1           0        3.518747    0.211601    0.581492
      5          1           0        1.944178   -0.488302    0.944799
      6          1           0        3.204230   -0.339872   -1.837865
      7          1           0        1.630860   -1.039579   -1.473834
      8          1           0        2.730129   -2.754590    0.005024
      9          1           0        4.312438   -2.050908   -0.361075
     10          1           0        3.374401   -2.834920   -1.643542
     11          6           0        1.851067    1.378873   -0.128140
     12          6           0        1.734315    2.280872    1.100987
     13          6           0        1.066493    3.620629    0.789766
     14          1           0        2.423504    1.903044   -0.905929
     15          1           0        0.848936    1.203141   -0.542622
     16          1           0        2.736822    2.454321    1.512704
     17          1           0        1.163453    1.754614    1.876735
     18          1           0        0.055245    3.465650    0.399945
     19          1           0        1.637554    4.169333    0.033846
     20          1           0        0.993282    4.249663    1.682412
     21          6           0       -0.902013   -2.286578    1.631863
     22          6           0       -0.562016   -2.395016    0.279397
     23          6           0       -1.001983   -1.440104   -0.642081
     24          6           0       -1.783864   -0.385002   -0.174414
     25          6           0       -2.139321   -0.249420    1.166689
     26          6           0       -1.688195   -1.216014    2.070420
     27          1           0       -0.555902   -3.032914    2.340796
     28          1           0        0.048412   -3.225364   -0.064034
     29          1           0       -0.753513   -1.499748   -1.694755
     30          1           0       -2.749201    0.589547    1.479097
     31          1           0       -1.953786   -1.129253    3.120171
     32          7           0       -2.255546    0.632104   -1.140547
     33          8           0       -2.943223    1.552164   -0.703253
     34          8           0       -1.928639    0.489992   -2.316801
 ---------------------------------------------------------------------

 SCF Done:  E(RHF) =  -669.534106340     A.U. after   15 cycles
 E2 =    -0.2096969712D+01 EUMP2 =    -0.67163107605188D+03

 The electronic state is 1-A.
 Alpha  occ. eigenvalues --  -20.60950 -20.60939 -15.85984 -11.31344 -11.27920
 Alpha  occ. eigenvalues --  -11.27905 -11.27661 -11.26933 -11.26911 -11.21835
 Alpha  occ. eigenvalues --  -11.21595 -11.21482 -11.21431 -11.21253 -11.20752
 Alpha  occ. eigenvalues --   -1.60014  -1.39566  -1.19542  -1.08929  -1.08470
 Alpha  occ. eigenvalues --   -1.04948  -1.03602  -0.96049  -0.95761  -0.87068
 Alpha  occ. eigenvalues --   -0.86333  -0.82592  -0.79687  -0.78261  -0.77632
 Alpha  occ. eigenvalues --   -0.72201  -0.71352  -0.70645  -0.65249  -0.65117
 Alpha  occ. eigenvalues --   -0.64935  -0.62351  -0.60961  -0.59446  -0.57648
 Alpha  occ. eigenvalues --   -0.55473  -0.55327  -0.53205  -0.53038  -0.52755
 Alpha  occ. eigenvalues --   -0.52463  -0.49994  -0.48962  -0.48959  -0.47987
 Alpha  occ. eigenvalues --   -0.46724  -0.45795  -0.45732  -0.44929  -0.43827
 Alpha  occ. eigenvalues --   -0.37453  -0.36444
 Alpha virt. eigenvalues --    0.04860   0.10969   0.16284   0.20300   0.22996
 Alpha virt. eigenvalues --    0.23967   0.25817   0.26530   0.27205   0.28347
 Alpha virt. eigenvalues --    0.28629   0.30493   0.31171   0.31584   0.32540

 Mulliken charges:
               1
     1  C   -0.300149
     2  C   -0.300401
     3  C   -0.477563
     4  H    0.148741
     5  H    0.150107
     6  H    0.156078
     7  H    0.148157
     8  H    0.145735
     9  H    0.158844
    10  H    0.159680
    11  C   -0.298974
    12  C   -0.300151
    13  C   -0.478081
    14  H    0.151835
    15  H    0.150438
    16  H    0.150238
    17  H    0.148110
    18  H    0.163222
    19  H    0.156416
    20  H    0.158098
    21  C   -0.172303
    22  C   -0.215437
    23  C   -0.172555
    24  C    0.157590
    25  C   -0.171955
    26  C   -0.218342
    27  H    0.226738
    28  H    0.227326
    29  H    0.276959
    30  H    0.276446
    31  H    0.224454
    32  N    0.489760
    33  O   -0.459888
    34  O   -0.459176
 Sum of Mulliken charges =  -0.00000

 Dipole moment (field-independent basis, Debye):
    X=              1.5353    Y=             -3.5335    Z=              3.3701  Tot=              5.1187
 Quadrupole moment (field-independent basis, Debye-Ang):
   XX=            -99.6890   YY=            -92.1732   ZZ=            -93.4846
   XY=              5.4788   XZ=             -8.7693   YZ=              1.0859

 Normal termination of Gaussian 16 at Wed May  5 23:21:57 2021.
