 Gaussian 16, Revision A.03,
 Gaussian 16:  EM64L-G16RevA.03 25-Dec-2016

 -------------
 #p 6-31g* mp2
 -------------

 ------------------------------------------------------
 Input file generated by CHIRIPA (05-May-2021 14:53:13)
 ------------------------------------------------------
 Symbolic Z-matrix:
 Charge =  0 Multiplicity = 1

                         Standard orientation:
 ---------------------------------------------------------------------
 Center     Atomic      Atomic             Coordinates (Angstroms)
 Number     Number       Type             X           Y           Z
 ---------------------------------------------------------------------
      1          6           0        4.367819   -0.548074   -0.390090
      2          6           0        5.507132   -1.408495    0.157289
      3          6           0        5.527485   -2.814324   -0.443563
      4          1           0        3.410323   -1.047994   -0.189523
      5          1           0        4.461779   -0.479510   -1.482732
      6          1           0        5.411844   -1.474273    1.248715
      7          1           0        6.462015   -0.906376   -0.044434
      8          1           0        5.646109   -2.766867   -1.530889
      9          1           0        4.589971   -3.337990   -0.230393
     10          1           0        6.349777   -3.412240   -0.038357
     11          6           0        4.334252    0.860156    0.201086
     12          6           0        3.194938    1.720578   -0.346294
     13          6           0        3.174585    3.126407    0.254559
     14          1           0        4.240292    0.791593    1.293727
     15          1           0        5.291748    1.360076    0.000519
     16          1           0        2.240056    1.218459   -0.144570
     17          1           0        3.290227    1.786356   -1.437719
     18          1           0        4.112100    3.650073    0.041388
     19          1           0        3.055962    3.078950    1.341884
     20          1           0        2.352293    3.724323   -0.150648
     21          6           0       -0.971883    0.406430    0.515064
     22          6           0       -1.815970    1.386410   -0.017548
     23          6           0       -3.162627    1.104829   -0.266094
     24          6           0       -3.633916   -0.172985    0.031173
     25          6           0       -2.817961   -1.170620    0.562429
     26          6           0       -1.474685   -0.866714    0.802846
     27          1           0        0.072920    0.633840    0.704983
     28          1           0       -1.428231    2.376014   -0.242018
     29          1           0       -3.838178    1.844741   -0.677894
     30          1           0       -3.233391   -2.147994    0.775916
     31          1           0       -0.821471   -1.629744    1.216534
     32          7           0       -5.057770   -0.482899   -0.227648
     33          8           0       -5.448566   -1.616350    0.042919
     34          8           0       -5.756032    0.413508   -0.696179
 ---------------------------------------------------------------------

 SCF Done:  E(RHF) =  -669.535456502     A.U. after   15 cycles
 E2 =    -0.2091031033D+01 EUMP2 =    -0.67162648753493D+03

 The electronic state is 1-A.
 Alpha  occ. eigenvalues --  -20.60748 -20.60742 -15.85801 -11.31168 -11.27738
 Alpha  occ. eigenvalues --  -11.27733 -11.27463 -11.26757 -11.26743 -11.22758
 Alpha  occ. eigenvalues --  -11.22320 -11.22290 -11.22200 -11.22114 -11.21658
 Alpha  occ. eigenvalues --   -1.59823  -1.39377  -1.19340  -1.09330  -1.08735
 Alpha  occ. eigenvalues --   -1.04745  -1.04408  -0.96832  -0.95571  -0.87846
 Alpha  occ. eigenvalues --   -0.86141  -0.82407  -0.80486  -0.79121  -0.77449
 Alpha  occ. eigenvalues --   -0.72019  -0.71146  -0.70473  -0.65971  -0.64993
 Alpha  occ. eigenvalues --   -0.64749  -0.62093  -0.61816  -0.60221  -0.58443
 Alpha  occ. eigenvalues --   -0.56122  -0.55259  -0.53528  -0.53245  -0.53072
 Alpha  occ. eigenvalues --   -0.52837  -0.50771  -0.48811  -0.48774  -0.48750
 Alpha  occ. eigenvalues --   -0.47525  -0.46660  -0.46571  -0.44782  -0.44656
 Alpha  occ. eigenvalues --   -0.37316  -0.36349
 Alpha virt. eigenvalues --    0.05075   0.11304   0.16516   0.19096   0.22583
 Alpha virt. eigenvalues --    0.23650   0.25125   0.26353   0.26597   0.27774
 Alpha virt. eigenvalues --    0.29044   0.29894   0.30909   0.31238   0.32189

 Mulliken charges:
               1
     1  C   -0.297587
     2  C   -0.300365
     3  C   -0.475921
     4  H    0.144486
     5  H    0.152375
     6  H    0.151975
     7  H    0.154081
     8  H    0.156813
     9  H    0.154268
    10  H    0.162536
    11  C   -0.298712
    12  C   -0.304812
    13  C   -0.476461
    14  H    0.149258
    15  H    0.153831
    16  H    0.142650
    17  H    0.157306
    18  H    0.160863
    19  H    0.155519
    20  H    0.158157
    21  C   -0.176347
    22  C   -0.220936
    23  C   -0.170872
    24  C    0.158455
    25  C   -0.170724
    26  C   -0.220335
    27  H    0.235409
    28  H    0.223608
    29  H    0.275582
    30  H    0.275496
    31  H    0.223329
    32  N    0.488007
    33  O   -0.460479
    34  O   -0.460454
 Sum of Mulliken charges =  -0.00000

 Dipole moment (field-independent basis, Debye):
    X=              5.2589    Y=              1.1139    Z=              0.8700  Tot=              5.4456
 Quadrupole moment (field-independent basis, Debye-Ang):
   XX=           -130.3058   YY=            -91.6272   ZZ=            -94.4412
   XY=             -5.1447   XZ=             -3.4648   YZ=             -2.6166

 Normal termination of Gaussian 16 at Thu May  6 05:47:45 2021.
