 Gaussian 16, Revision A.03,
 Gaussian 16:  EM64L-G16RevA.03 25-Dec-2016

 -------------
 #p 6-31g* mp2
 -------------

 ------------------------------------------------------
 Input file generated by CHIRIPA (05-May-2021 14:55:24)
 ------------------------------------------------------
 Symbolic Z-matrix:
 Charge =  0 Multiplicity = 1

                         Standard orientation:
 ---------------------------------------------------------------------
 Center     Atomic      Atomic             Coordinates (Angstroms)
 Number     Number       Type             X           Y           Z
 ---------------------------------------------------------------------
      1          6           0        2.555679   -1.597771   -1.750546
      2          6           0        3.043857   -0.309833   -1.506785
      3          6           0        2.643324    0.397847   -0.369547
      4          6           0        1.749347   -0.215493    0.506758
      5          6           0        1.245277   -1.497241    0.291529
      6          6           0        1.659527   -2.186327   -0.852195
      7          1           0        2.872150   -2.140292   -2.636500
      8          1           0        3.739924    0.149739   -2.202722
      9          1           0        3.005649    1.396209   -0.156448
     10          1           0        0.552493   -1.929104    1.003542
     11          1           0        1.278766   -3.186422   -1.038948
     12          7           0        1.318060    0.523854    1.714135
     13          8           0        0.529545   -0.038670    2.470737
     14          8           0        1.776699    1.651879    1.881012
     15          6           0       -1.743233    0.920583   -0.386478
     16          6           0       -2.045923    2.242416   -1.092963
     17          6           0       -0.862099    3.209790   -1.069643
     18          1           0       -1.455858    1.125614    0.653870
     19          1           0       -0.873333    0.448546   -0.863814
     20          1           0       -2.915844    2.711150   -0.615321
     21          1           0       -2.332795    2.034201   -2.131697
     22          1           0        0.007974    2.765842   -1.564094
     23          1           0       -0.578387    3.446638   -0.039103
     24          1           0       -1.100310    4.148143   -1.580141
     25          6           0       -2.917064   -0.056978   -0.401409
     26          6           0       -2.614374   -1.378810    0.305077
     27          6           0       -3.798198   -2.346184    0.281756
     28          1           0       -3.786964    0.415059    0.075928
     29          1           0       -3.204438   -0.262008   -1.441756
     30          1           0       -2.327502   -1.170596    1.343810
     31          1           0       -1.744454   -1.847545   -0.172565
     32          1           0       -4.081911   -2.583032   -0.748783
     33          1           0       -4.668272   -1.902237    0.776209
     34          1           0       -3.559987   -3.284538    0.792255
 ---------------------------------------------------------------------

 SCF Done:  E(RHF) =  -669.535250892     A.U. after   15 cycles
 E2 =    -0.2095913920D+01 EUMP2 =    -0.67163116481142D+03

 The electronic state is 1-A.
 Alpha  occ. eigenvalues --  -20.60908 -20.60894 -15.85903 -11.31194 -11.27809
 Alpha  occ. eigenvalues --  -11.27749 -11.27557 -11.26819 -11.26808 -11.21437
 Alpha  occ. eigenvalues --  -11.21247 -11.21149 -11.21016 -11.20935 -11.20663
 Alpha  occ. eigenvalues --   -1.59949  -1.39507  -1.19413  -1.08814  -1.08156
 Alpha  occ. eigenvalues --   -1.04811  -1.03288  -0.95730  -0.95656  -0.86751
 Alpha  occ. eigenvalues --   -0.86204  -0.82496  -0.79378  -0.78085  -0.77492
 Alpha  occ. eigenvalues --   -0.72147  -0.71231  -0.70519  -0.65073  -0.64825
 Alpha  occ. eigenvalues --   -0.64766  -0.62166  -0.60674  -0.59114  -0.57358
 Alpha  occ. eigenvalues --   -0.55318  -0.55017  -0.53211  -0.52908  -0.52420
 Alpha  occ. eigenvalues --   -0.52156  -0.49666  -0.48915  -0.48905  -0.47677
 Alpha  occ. eigenvalues --   -0.46386  -0.45629  -0.45444  -0.44690  -0.43520
 Alpha  occ. eigenvalues --   -0.37331  -0.36362
 Alpha virt. eigenvalues --    0.04906   0.11171   0.16345   0.21077   0.23295
 Alpha virt. eigenvalues --    0.24273   0.26414   0.26827   0.27518   0.28357
 Alpha virt. eigenvalues --    0.29003   0.30743   0.31420   0.31806   0.32128

 Mulliken charges:
               1
     1  C   -0.170578
     2  C   -0.219194
     3  C   -0.171530
     4  C    0.159378
     5  C   -0.169080
     6  C   -0.220418
     7  H    0.225889
     8  H    0.223780
     9  H    0.276262
    10  H    0.279191
    11  H    0.224010
    12  N    0.489581
    13  O   -0.460241
    14  O   -0.459089
    15  C   -0.314947
    16  C   -0.297693
    17  C   -0.479701
    18  H    0.165148
    19  H    0.149257
    20  H    0.152937
    21  H    0.148013
    22  H    0.148504
    23  H    0.167140
    24  H    0.158257
    25  C   -0.295506
    26  C   -0.308109
    27  C   -0.475090
    28  H    0.151375
    29  H    0.146129
    30  H    0.167604
    31  H    0.140863
    32  H    0.152699
    33  H    0.157839
    34  H    0.157322
 Sum of Mulliken charges =  -0.00000

 Dipole moment (field-independent basis, Debye):
    X=              1.5993    Y=             -2.5239    Z=             -4.0485  Tot=              5.0317
 Quadrupole moment (field-independent basis, Debye-Ang):
   XX=            -88.7930   YY=            -91.5778   ZZ=            -98.7007
   XY=             -3.3481   XZ=             -8.3262   YZ=             -0.9371

 Normal termination of Gaussian 16 at Wed May  5 16:05:53 2021.
