 Gaussian 16, Revision A.03,
 Gaussian 16:  EM64L-G16RevA.03 25-Dec-2016

 -------------
 #p 6-31g* mp2
 -------------

 ------------------------------------------------------
 Input file generated by CHIRIPA (05-May-2021 14:55:22)
 ------------------------------------------------------
 Symbolic Z-matrix:
 Charge =  0 Multiplicity = 1

                         Standard orientation:
 ---------------------------------------------------------------------
 Center     Atomic      Atomic             Coordinates (Angstroms)
 Number     Number       Type             X           Y           Z
 ---------------------------------------------------------------------
      1          6           0        0.755118   -1.323786    0.546617
      2          6           0        0.988793   -0.086370    1.155483
      3          6           0        2.178060    0.608897    0.917163
      4          6           0        3.116113    0.034797    0.060568
      5          6           0        2.912493   -1.196254   -0.560995
      6          6           0        1.716020   -1.873810   -0.308172
      7          1           0       -0.171532   -1.857007    0.737383
      8          1           0        0.244331    0.343199    1.819781
      9          1           0        2.384725    1.568467    1.375349
     10          1           0        3.673435   -1.599035   -1.218378
     11          1           0        1.537245   -2.834635   -0.782406
     12          7           0        4.378951    0.761470   -0.199407
     13          8           0        5.189483    0.234214   -0.958140
     14          8           0        4.534319    1.844533    0.360479
     15          6           0       -4.188020    0.714038   -0.122559
     16          6           0       -3.456180    2.045253   -0.296514
     17          6           0       -4.401497    3.246793   -0.274737
     18          1           0       -4.936867    0.607722   -0.919346
     19          1           0       -4.741492    0.729155    0.826564
     20          1           0       -2.903138    2.027102   -1.244371
     21          1           0       -2.708856    2.148325    0.500668
     22          1           0       -4.944060    3.292935    0.675052
     23          1           0       -5.139445    3.171023   -1.079902
     24          1           0       -3.857383    4.188033   -0.400701
     25          6           0       -3.256415   -0.496522   -0.142184
     26          6           0       -3.988254   -1.827737    0.031771
     27          6           0       -3.042938   -3.029276    0.009994
     28          1           0       -2.702942   -0.511638   -1.091307
     29          1           0       -2.507567   -0.390206    0.654603
     30          1           0       -4.735578   -1.930809   -0.765411
     31          1           0       -4.541296   -1.809586    0.979627
     32          1           0       -2.304989   -2.953506    0.815158
     33          1           0       -2.500375   -3.075419   -0.939795
     34          1           0       -3.587051   -3.970516    0.135957
 ---------------------------------------------------------------------

 SCF Done:  E(RHF) =  -669.535329161     A.U. after   15 cycles
 E2 =    -0.2092005030D+01 EUMP2 =    -0.67162733419044D+03

 The electronic state is 1-A.
 Alpha  occ. eigenvalues --  -20.60700 -20.60695 -15.85754 -11.31096 -11.27675
 Alpha  occ. eigenvalues --  -11.27671 -11.27343 -11.26673 -11.26656 -11.22634
 Alpha  occ. eigenvalues --  -11.22420 -11.22374 -11.22273 -11.22155 -11.21587
 Alpha  occ. eigenvalues --   -1.59776  -1.39331  -1.19268  -1.09336  -1.08658
 Alpha  occ. eigenvalues --   -1.04673  -1.04415  -0.96883  -0.95500  -0.87899
 Alpha  occ. eigenvalues --   -0.86068  -0.82343  -0.80491  -0.79130  -0.77392
 Alpha  occ. eigenvalues --   -0.71972  -0.71100  -0.70382  -0.65969  -0.64917
 Alpha  occ. eigenvalues --   -0.64675  -0.62026  -0.61810  -0.60266  -0.58491
 Alpha  occ. eigenvalues --   -0.56213  -0.55161  -0.53547  -0.53299  -0.52994
 Alpha  occ. eigenvalues --   -0.52764  -0.50830  -0.48801  -0.48728  -0.48706
 Alpha  occ. eigenvalues --   -0.47515  -0.46663  -0.46560  -0.44741  -0.44657
 Alpha  occ. eigenvalues --   -0.37221  -0.36281
 Alpha virt. eigenvalues --    0.05140   0.11325   0.16608   0.19159   0.22425
 Alpha virt. eigenvalues --    0.23305   0.24837   0.25896   0.26377   0.28449
 Alpha virt. eigenvalues --    0.29174   0.30451   0.30874   0.31321   0.31862

 Mulliken charges:
               1
     1  C   -0.174856
     2  C   -0.221654
     3  C   -0.170729
     4  C    0.157930
     5  C   -0.170670
     6  C   -0.222701
     7  H    0.237486
     8  H    0.222820
     9  H    0.275166
    10  H    0.275206
    11  H    0.223625
    12  N    0.488031
    13  O   -0.460750
    14  O   -0.460764
    15  C   -0.299190
    16  C   -0.299251
    17  C   -0.476402
    18  H    0.152848
    19  H    0.150599
    20  H    0.154995
    21  H    0.147788
    22  H    0.155595
    23  H    0.156848
    24  H    0.162969
    25  C   -0.299524
    26  C   -0.300130
    27  C   -0.480926
    28  H    0.153350
    29  H    0.140180
    30  H    0.156986
    31  H    0.154710
    32  H    0.147028
    33  H    0.155993
    34  H    0.167393
 Sum of Mulliken charges =  -0.00000

 Dipole moment (field-independent basis, Debye):
    X=             -4.7252    Y=             -2.5392    Z=              0.8129  Tot=              5.4255
 Quadrupole moment (field-independent basis, Debye-Ang):
   XX=           -122.1107   YY=            -93.1421   ZZ=            -92.3462
   XY=             -8.8562   XZ=              1.9220   YZ=              2.5914

 Normal termination of Gaussian 16 at Thu May  6 10:58:55 2021.
