 Gaussian 16, Revision A.03,
 Gaussian 16:  EM64L-G16RevA.03 25-Dec-2016

 -------------
 #p 6-31g* mp2
 -------------

 ------------------------------------------------------
 Input file generated by CHIRIPA (05-May-2021 14:55:22)
 ------------------------------------------------------
 Symbolic Z-matrix:
 Charge =  0 Multiplicity = 1

                         Standard orientation:
 ---------------------------------------------------------------------
 Center     Atomic      Atomic             Coordinates (Angstroms)
 Number     Number       Type             X           Y           Z
 ---------------------------------------------------------------------
      1          6           0       -2.927041    2.160972    0.828660
      2          6           0       -3.808266    1.239584    1.403992
      3          6           0       -3.832833   -0.088004    0.966436
      4          6           0       -2.958538   -0.461606   -0.053035
      5          6           0       -2.069012    0.432956   -0.646156
      6          6           0       -2.061752    1.755432   -0.192778
      7          1           0       -2.914679    3.190288    1.174710
      8          1           0       -4.481388    1.551715    2.197419
      9          1           0       -4.504866   -0.821994    1.394276
     10          1           0       -1.409888    0.092135   -1.435342
     11          1           0       -1.376314    2.468826   -0.641429
     12          7           0       -2.975385   -1.864357   -0.524631
     13          8           0       -2.195104   -2.168449   -1.424257
     14          8           0       -3.768553   -2.633181    0.014287
     15          6           0        4.496014    0.020094   -0.025169
     16          6           0        4.639488   -1.274340    0.775980
     17          6           0        6.070890   -1.811805    0.779498
     18          1           0        4.825183   -0.157152   -1.058211
     19          1           0        5.172433    0.778575    0.392634
     20          1           0        3.961988   -2.029729    0.357654
     21          1           0        4.309758   -1.094041    1.807187
     22          1           0        6.756632   -1.078569    1.216217
     23          1           0        6.406885   -2.019573   -0.241551
     24          1           0        6.150716   -2.737513    1.357901
     25          6           0        3.070736    0.569769   -0.038037
     26          6           0        2.927262    1.864203   -0.839186
     27          6           0        1.495859    2.401667   -0.842705
     28          1           0        2.394316   -0.188713   -0.455841
     29          1           0        2.741566    0.747015    0.995005
     30          1           0        3.256991    1.683904   -1.870394
     31          1           0        3.604763    2.619592   -0.420862
     32          1           0        1.159865    2.609436    0.178344
     33          1           0        0.810118    1.668431   -1.279424
     34          1           0        1.416033    3.327377   -1.421108
 ---------------------------------------------------------------------

 SCF Done:  E(RHF) =  -669.534727954     A.U. after   15 cycles
 E2 =    -0.2091968668D+01 EUMP2 =    -0.67162669662203D+03

 The electronic state is 1-A.
 Alpha  occ. eigenvalues --  -20.60725 -20.60720 -15.85776 -11.31119 -11.27669
 Alpha  occ. eigenvalues --  -11.27658 -11.27388 -11.26696 -11.26584 -11.22175
 Alpha  occ. eigenvalues --  -11.22040 -11.21713 -11.21664 -11.21557 -11.21097
 Alpha  occ. eigenvalues --   -1.59800  -1.39355  -1.19275  -1.08750  -1.08672
 Alpha  occ. eigenvalues --   -1.04681  -1.03906  -0.96401  -0.95519  -0.87455
 Alpha  occ. eigenvalues --   -0.86062  -0.82359  -0.80007  -0.78508  -0.77390
 Alpha  occ. eigenvalues --   -0.71995  -0.71122  -0.70393  -0.65376  -0.64926
 Alpha  occ. eigenvalues --   -0.64681  -0.62088  -0.61281  -0.59784  -0.57957
 Alpha  occ. eigenvalues --   -0.55690  -0.55179  -0.53279  -0.53065  -0.52868
 Alpha  occ. eigenvalues --   -0.52457  -0.50348  -0.48754  -0.48752  -0.48268
 Alpha  occ. eigenvalues --   -0.46994  -0.46058  -0.45945  -0.44766  -0.44137
 Alpha  occ. eigenvalues --   -0.37255  -0.36247
 Alpha virt. eigenvalues --    0.05113   0.11340   0.16583   0.20664   0.22578
 Alpha virt. eigenvalues --    0.23899   0.25452   0.26295   0.27148   0.27971
 Alpha virt. eigenvalues --    0.29060   0.29934   0.30951   0.31477   0.32181

 Mulliken charges:
               1
     1  C   -0.173188
     2  C   -0.218262
     3  C   -0.171626
     4  C    0.158809
     5  C   -0.174714
     6  C   -0.219922
     7  H    0.225239
     8  H    0.222943
     9  H    0.275153
    10  H    0.274427
    11  H    0.234542
    12  N    0.488433
    13  O   -0.461204
    14  O   -0.460559
    15  C   -0.298789
    16  C   -0.300552
    17  C   -0.476001
    18  H    0.150896
    19  H    0.149071
    20  H    0.155646
    21  H    0.151795
    22  H    0.154402
    23  H    0.155863
    24  H    0.161659
    25  C   -0.299664
    26  C   -0.300203
    27  C   -0.482468
    28  H    0.153034
    29  H    0.149922
    30  H    0.155086
    31  H    0.153813
    32  H    0.156061
    33  H    0.150177
    34  H    0.160183
 Sum of Mulliken charges =  -0.00000

 Dipole moment (field-independent basis, Debye):
    X=              0.2288    Y=              4.9215    Z=              1.6816  Tot=              5.2059
 Quadrupole moment (field-independent basis, Debye-Ang):
   XX=            -93.5118   YY=            -99.7164   ZZ=            -92.5871
   XY=            -13.4048   XZ=             -7.7281   YZ=             -1.2685

 Normal termination of Gaussian 16 at Thu May  6 10:57:11 2021.
