 Gaussian 16, Revision A.03,
 Gaussian 16:  EM64L-G16RevA.03 25-Dec-2016

 -------------
 #p 6-31g* mp2
 -------------

 ------------------------------------------------------
 Input file generated by CHIRIPA (05-May-2021 14:51:11)
 ------------------------------------------------------
 Symbolic Z-matrix:
 Charge =  0 Multiplicity = 1

                         Standard orientation:
 ---------------------------------------------------------------------
 Center     Atomic      Atomic             Coordinates (Angstroms)
 Number     Number       Type             X           Y           Z
 ---------------------------------------------------------------------
      1          6           0       -3.332530    0.655523   -0.647991
      2          6           0       -1.822461    0.647097   -0.888004
      3          6           0       -1.306277    1.970822   -1.452893
      4          1           0       -3.846390    0.877680   -1.593263
      5          1           0       -3.582373    1.472453    0.043093
      6          1           0       -1.575374   -0.170443   -1.577346
      7          1           0       -1.312143    0.424745    0.057909
      8          1           0       -1.524036    2.794247   -0.765032
      9          1           0       -1.788763    2.195678   -2.409580
     10          1           0       -0.224518    1.942758   -1.616812
     11          6           0       -3.863560   -0.660890   -0.083373
     12          6           0       -5.373629   -0.652464    0.156639
     13          6           0       -5.889813   -1.976189    0.721529
     14          1           0       -3.613717   -1.477820   -0.774458
     15          1           0       -3.349700   -0.883047    0.861898
     16          1           0       -5.883947   -0.430112   -0.789274
     17          1           0       -5.620716    0.165075    0.845982
     18          1           0       -5.407327   -2.201045    1.678215
     19          1           0       -5.672054   -2.799614    0.033668
     20          1           0       -6.971572   -1.948125    0.885448
     21          6           0        4.165098   -0.113283   -0.132751
     22          6           0        4.867961   -1.458763    0.050692
     23          6           0        6.000016   -1.676146   -0.953792
     24          1           0        3.767251   -0.050984   -1.154895
     25          1           0        4.903476    0.694571   -0.034957
     26          1           0        4.128228   -2.263781   -0.046043
     27          1           0        5.264014   -1.517946    1.072580
     28          1           0        6.759207   -0.893679   -0.853910
     29          1           0        5.616967   -1.643751   -1.978890
     30          1           0        6.488715   -2.644027   -0.804660
     31          6           0        3.030993    0.118650    0.864115
     32          6           0        2.328129    1.464131    0.680672
     33          6           0        1.196073    1.681513    1.685157
     34          1           0        2.292613   -0.689204    0.766322
     35          1           0        3.428838    0.056351    1.886261
     36          1           0        1.932076    1.523313   -0.341216
     37          1           0        3.067862    2.269148    0.777408
     38          1           0        1.579123    1.649119    2.710254
     39          1           0        0.436884    0.899047    1.585275
     40          1           0        0.707375    2.649394    1.536026
 ---------------------------------------------------------------------

 SCF Done:  E(RHF) =  -470.732822374     A.U. after   11 cycles
 E2 =    -0.1583515417D+01 EUMP2 =    -0.47231633779071D+03

 The electronic state is 1-A.
 Alpha  occ. eigenvalues --  -11.21604 -11.21601 -11.21598 -11.21586 -11.21407
 Alpha  occ. eigenvalues --  -11.21404 -11.21347 -11.21345 -11.21073 -11.21070
 Alpha  occ. eigenvalues --  -11.21063 -11.21058  -1.08452  -1.08411  -1.03588
 Alpha  occ. eigenvalues --   -1.03475  -0.96039  -0.95922  -0.87000  -0.86997
 Alpha  occ. eigenvalues --   -0.79663  -0.79535  -0.78268  -0.78224  -0.65168
 Alpha  occ. eigenvalues --   -0.64983  -0.61192  -0.60745  -0.59419  -0.59250
 Alpha  occ. eigenvalues --   -0.57638  -0.57544  -0.55413  -0.55094  -0.52703
 Alpha  occ. eigenvalues --   -0.52640  -0.52422  -0.52404  -0.50023  -0.49856
 Alpha  occ. eigenvalues --   -0.47948  -0.47915  -0.46785  -0.46454  -0.45841
 Alpha  occ. eigenvalues --   -0.45775  -0.45726  -0.45557  -0.43797  -0.43751
 Alpha virt. eigenvalues --    0.20481   0.23116   0.23537   0.25307   0.25791
 Alpha virt. eigenvalues --    0.26137   0.26820   0.27641   0.27949   0.29255
 Alpha virt. eigenvalues --    0.29951   0.30762   0.31040   0.32255   0.32385

 Mulliken charges:
               1
     1  C   -0.297800
     2  C   -0.305660
     3  C   -0.478457
     4  H    0.149602
     5  H    0.149768
     6  H    0.151181
     7  H    0.157753
     8  H    0.155591
     9  H    0.154851
    10  H    0.163294
    11  C   -0.298302
    12  C   -0.299658
    13  C   -0.475733
    14  H    0.149381
    15  H    0.149405
    16  H    0.151958
    17  H    0.152062
    18  H    0.155225
    19  H    0.155117
    20  H    0.160288
    21  C   -0.298315
    22  C   -0.299675
    23  C   -0.475716
    24  H    0.149503
    25  H    0.149552
    26  H    0.152017
    27  H    0.151939
    28  H    0.155181
    29  H    0.155177
    30  H    0.160258
    31  C   -0.298210
    32  C   -0.304112
    33  C   -0.479010
    34  H    0.149686
    35  H    0.149626
    36  H    0.155813
    37  H    0.152131
    38  H    0.154889
    39  H    0.158389
    40  H    0.161013
 Sum of Mulliken charges =  -0.00000

 Dipole moment (field-independent basis, Debye):
    X=              0.0010    Y=              0.0091    Z=              0.0069  Tot=              0.0114
 Quadrupole moment (field-independent basis, Debye-Ang):
   XX=            -85.3495   YY=            -85.3703   ZZ=            -84.0788
   XY=              0.1194   XZ=              1.3222   YZ=              0.7896

 Normal termination of Gaussian 16 at Thu May  6 07:02:03 2021.
