 Gaussian 16, Revision A.03,
 Gaussian 16:  EM64L-G16RevA.03 25-Dec-2016

 -------------
 #p 6-31g* mp2
 -------------

 ------------------------------------------------------
 Input file generated by CHIRIPA (05-May-2021 14:53:16)
 ------------------------------------------------------
 Symbolic Z-matrix:
 Charge =  0 Multiplicity = 1

                         Standard orientation:
 ---------------------------------------------------------------------
 Center     Atomic      Atomic             Coordinates (Angstroms)
 Number     Number       Type             X           Y           Z
 ---------------------------------------------------------------------
      1          6           0        4.132571   -0.266788    0.395214
      2          6           0        2.985658   -0.757138   -0.489168
      3          6           0        1.641811   -0.772343    0.239967
      4          1           0        4.202929   -0.909585    1.283361
      5          1           0        3.899983    0.743837    0.758442
      6          1           0        3.220973   -1.765991   -0.851741
      7          1           0        2.918145   -0.113215   -1.375408
      8          1           0        1.380804    0.232425    0.587699
      9          1           0        1.685352   -1.429742    1.114342
     10          1           0        0.836007   -1.126142   -0.410699
     11          6           0        5.482508   -0.245931   -0.319604
     12          6           0        6.629422    0.244419    0.564778
     13          6           0        7.973269    0.259623   -0.164357
     14          1           0        5.715097   -1.256556   -0.682832
     15          1           0        5.412150    0.396866   -1.207751
     16          1           0        6.696934   -0.399505    1.451018
     17          1           0        6.394107    1.253271    0.927351
     18          1           0        7.929728    0.917022   -1.038732
     19          1           0        8.234276   -0.745144   -0.512089
     20          1           0        8.779073    0.613423    0.486309
     21          6           0       -2.289916    2.249732   -0.158355
     22          6           0       -3.663085    2.384625    0.071278
     23          6           0       -4.484937    1.256025    0.144577
     24          6           0       -3.897616    0.002147   -0.017081
     25          6           0       -2.532881   -0.164897   -0.247053
     26          6           0       -1.730184    0.977644   -0.316509
     27          1           0       -1.658922    3.131870   -0.213802
     28          1           0       -4.100523    3.371293    0.194481
     29          1           0       -5.550988    1.331649    0.321308
     30          1           0       -2.125714   -1.161647   -0.365886
     31          1           0       -0.664076    0.869865   -0.494954
     32          7           0       -4.757533   -1.200030    0.058482
     33          8           0       -4.215711   -2.293562   -0.087300
     34          8           0       -5.957078   -1.026000    0.262061
 ---------------------------------------------------------------------

 SCF Done:  E(RHF) =  -669.534959415     A.U. after   15 cycles
 E2 =    -0.2091444371D+01 EUMP2 =    -0.67162640378645D+03

 The electronic state is 1-A.
 Alpha  occ. eigenvalues --  -20.60692 -20.60687 -15.85743 -11.31090 -11.27655
 Alpha  occ. eigenvalues --  -11.27632 -11.27381 -11.26676 -11.26557 -11.22416
 Alpha  occ. eigenvalues --  -11.22184 -11.22039 -11.22025 -11.21881 -11.21422
 Alpha  occ. eigenvalues --   -1.59767  -1.39322  -1.19252  -1.09051  -1.08653
 Alpha  occ. eigenvalues --   -1.04655  -1.04189  -0.96669  -0.95494  -0.87703
 Alpha  occ. eigenvalues --   -0.86046  -0.82328  -0.80262  -0.78822  -0.77372
 Alpha  occ. eigenvalues --   -0.71963  -0.71090  -0.70373  -0.65699  -0.64904
 Alpha  occ. eigenvalues --   -0.64676  -0.62127  -0.61516  -0.60023  -0.58245
 Alpha  occ. eigenvalues --   -0.55976  -0.55152  -0.53434  -0.53096  -0.52968
 Alpha  occ. eigenvalues --   -0.52668  -0.50549  -0.48720  -0.48717  -0.48566
 Alpha  occ. eigenvalues --   -0.47261  -0.46372  -0.46274  -0.44731  -0.44432
 Alpha  occ. eigenvalues --   -0.37238  -0.36244
 Alpha virt. eigenvalues --    0.05149   0.11371   0.16627   0.20258   0.22525
 Alpha virt. eigenvalues --    0.23812   0.25768   0.26007   0.26760   0.27439
 Alpha virt. eigenvalues --    0.29001   0.30406   0.31215   0.31369   0.31771

 Mulliken charges:
               1
     1  C   -0.299110
     2  C   -0.300593
     3  C   -0.482805
     4  H    0.152362
     5  H    0.148497
     6  H    0.157120
     7  H    0.151106
     8  H    0.151411
     9  H    0.164544
    10  H    0.156225
    11  C   -0.298805
    12  C   -0.300062
    13  C   -0.476038
    14  H    0.151441
    15  H    0.149611
    16  H    0.153167
    17  H    0.151626
    18  H    0.155280
    19  H    0.156237
    20  H    0.161471
    21  C   -0.172680
    22  C   -0.218367
    23  C   -0.171442
    24  C    0.158952
    25  C   -0.174947
    26  C   -0.222781
    27  H    0.224858
    28  H    0.222828
    29  H    0.275154
    30  H    0.275523
    31  H    0.233514
    32  N    0.488221
    33  O   -0.460701
    34  O   -0.460819
 Sum of Mulliken charges =  -0.00000

 Dipole moment (field-independent basis, Debye):
    X=              3.2988    Y=              4.1673    Z=             -0.2293  Tot=              5.3199
 Quadrupole moment (field-independent basis, Debye-Ang):
   XX=           -115.8265   YY=            -92.4985   ZZ=            -95.5586
   XY=            -19.7198   XZ=              0.7584   YZ=              0.1436

 Normal termination of Gaussian 16 at Wed May  5 23:33:32 2021.
