 Gaussian 16, Revision A.03,
 Gaussian 16:  EM64L-G16RevA.03 25-Dec-2016

 -------------
 #p 6-31g* mp2
 -------------

 ------------------------------------------------------
 Input file generated by CHIRIPA (05-May-2021 14:55:20)
 ------------------------------------------------------
 Symbolic Z-matrix:
 Charge =  0 Multiplicity = 1

                         Standard orientation:
 ---------------------------------------------------------------------
 Center     Atomic      Atomic             Coordinates (Angstroms)
 Number     Number       Type             X           Y           Z
 ---------------------------------------------------------------------
      1          6           0       -1.511170    1.727618   -0.917674
      2          6           0       -1.038348    0.696821   -0.098884
      3          6           0       -1.901926   -0.307604    0.348230
      4          6           0       -3.238255   -0.249991   -0.044446
      5          6           0       -3.739442    0.763907   -0.859378
      6          6           0       -2.857834    1.757818   -1.294643
      7          1           0       -0.833318    2.503795   -1.260401
      8          1           0        0.006991    0.670821    0.195456
      9          1           0       -1.562444   -1.117181    0.982860
     10          1           0       -4.786736    0.763000   -1.136132
     11          1           0       -3.227818    2.557136   -1.930448
     12          7           0       -4.162031   -1.307765    0.422622
     13          8           0       -5.334908   -1.234362    0.062609
     14          8           0       -3.695718   -2.190223    1.139879
     15          6           0        4.256551   -0.314952   -0.410208
     16          6           0        4.958602   -1.583684    0.075003
     17          6           0        5.566631   -2.396864   -1.068165
     18          1           0        3.469440   -0.589844   -1.125634
     19          1           0        4.976397    0.306296   -0.960904
     20          1           0        4.237993   -2.201706    0.625809
     21          1           0        5.744006   -1.305754    0.789503
     22          1           0        6.306013   -1.801556   -1.613621
     23          1           0        4.791444   -2.702599   -1.778244
     24          1           0        6.063444   -3.299438   -0.698842
     25          6           0        3.643624    0.508634    0.721055
     26          6           0        2.941574    1.777367    0.235845
     27          6           0        2.333544    2.590547    1.379012
     28          1           0        2.923779   -0.112613    1.271752
     29          1           0        4.430736    0.783527    1.436482
     30          1           0        2.156170    1.499437   -0.478656
     31          1           0        3.662183    2.395388   -0.314962
     32          1           0        3.108732    2.896281    2.089092
     33          1           0        1.594162    1.995238    1.924467
     34          1           0        1.836732    3.493120    1.009690
 ---------------------------------------------------------------------

 SCF Done:  E(RHF) =  -669.535318354     A.U. after   15 cycles
 E2 =    -0.2091730186D+01 EUMP2 =    -0.67162704853948D+03

 The electronic state is 1-A.
 Alpha  occ. eigenvalues --  -20.60745 -20.60740 -15.85798 -11.31159 -11.27729
 Alpha  occ. eigenvalues --  -11.27722 -11.27462 -11.26742 -11.26696 -11.22784
 Alpha  occ. eigenvalues --  -11.22328 -11.22187 -11.22165 -11.22094 -11.21503
 Alpha  occ. eigenvalues --   -1.59821  -1.39375  -1.19329  -1.09299  -1.08723
 Alpha  occ. eigenvalues --   -1.04738  -1.04367  -0.96795  -0.95560  -0.87806
 Alpha  occ. eigenvalues --   -0.86134  -0.82394  -0.80454  -0.79056  -0.77448
 Alpha  occ. eigenvalues --   -0.72017  -0.71144  -0.70438  -0.66067  -0.64980
 Alpha  occ. eigenvalues --   -0.64705  -0.62259  -0.61551  -0.60190  -0.58391
 Alpha  occ. eigenvalues --   -0.56086  -0.55222  -0.53488  -0.53208  -0.53062
 Alpha  occ. eigenvalues --   -0.52795  -0.50748  -0.48811  -0.48772  -0.48702
 Alpha  occ. eigenvalues --   -0.47521  -0.46591  -0.46507  -0.44781  -0.44607
 Alpha  occ. eigenvalues --   -0.37306  -0.36334
 Alpha virt. eigenvalues --    0.05091   0.11265   0.16571   0.18600   0.22658
 Alpha virt. eigenvalues --    0.23884   0.25503   0.25722   0.26987   0.28047
 Alpha virt. eigenvalues --    0.29073   0.29834   0.30931   0.31428   0.31903

 Mulliken charges:
               1
     1  C   -0.173374
     2  C   -0.225700
     3  C   -0.172524
     4  C    0.159004
     5  C   -0.171222
     6  C   -0.218485
     7  H    0.226045
     8  H    0.235047
     9  H    0.275454
    10  H    0.275503
    11  H    0.223307
    12  N    0.487996
    13  O   -0.460503
    14  O   -0.460567
    15  C   -0.298758
    16  C   -0.300365
    17  C   -0.476288
    18  H    0.148912
    19  H    0.151415
    20  H    0.152981
    21  H    0.153436
    22  H    0.155734
    23  H    0.156118
    24  H    0.162709
    25  C   -0.299428
    26  C   -0.306212
    27  C   -0.478685
    28  H    0.147000
    29  H    0.154629
    30  H    0.142368
    31  H    0.158412
    32  H    0.162423
    33  H    0.153933
    34  H    0.159688
 Sum of Mulliken charges =  -0.00000

 Dipole moment (field-independent basis, Debye):
    X=              3.4979    Y=              3.7346    Z=             -1.6135  Tot=              5.3652
 Quadrupole moment (field-independent basis, Debye-Ang):
   XX=           -111.7149   YY=            -96.2173   ZZ=            -94.4577
   XY=            -14.0578   XZ=              7.9837   YZ=             -1.3861

 Normal termination of Gaussian 16 at Thu May  6 07:43:02 2021.
