 Gaussian 16, Revision A.03,
 Gaussian 16:  EM64L-G16RevA.03 25-Dec-2016

 -------------
 #p 6-31g* mp2
 -------------

 ------------------------------------------------------
 Input file generated by CHIRIPA (05-May-2021 14:51:12)
 ------------------------------------------------------
 Symbolic Z-matrix:
 Charge =  0 Multiplicity = 1

                         Standard orientation:
 ---------------------------------------------------------------------
 Center     Atomic      Atomic             Coordinates (Angstroms)
 Number     Number       Type             X           Y           Z
 ---------------------------------------------------------------------
      1          6           0       -3.314984    1.207134   -0.115103
      2          6           0       -2.221639    2.200399    0.279875
      3          6           0       -2.673836    3.656023    0.159579
      4          1           0       -3.630579    1.410406   -1.147587
      5          1           0       -4.196830    1.371741    0.519442
      6          1           0       -1.341620    2.033049   -0.354298
      7          1           0       -1.908475    1.994616    1.311475
      8          1           0       -3.537484    3.845727    0.805122
      9          1           0       -2.967407    3.884378   -0.870115
     10          1           0       -1.876889    4.349030    0.446766
     11          6           0       -2.878039   -0.252173   -0.000081
     12          6           0       -3.971384   -1.245438   -0.395059
     13          6           0       -3.519187   -2.701062   -0.274763
     14          1           0       -1.996193   -0.416780   -0.634626
     15          1           0       -2.562444   -0.455445    1.032403
     16          1           0       -4.284548   -1.039655   -1.426659
     17          1           0       -4.851404   -1.078088    0.239114
     18          1           0       -3.225616   -2.929417    0.754931
     19          1           0       -2.655539   -2.890766   -0.920306
     20          1           0       -4.316134   -3.394069   -0.561950
     21          6           0        2.643593   -0.948376    0.453262
     22          6           0        1.256623   -1.119335   -0.167280
     23          6           0        0.362133   -2.064276    0.635695
     24          1           0        3.126008   -1.932103    0.533905
     25          1           0        2.534612   -0.568692    1.478619
     26          1           0        1.368243   -1.497272   -1.191644
     27          1           0        0.777531   -0.135064   -0.246631
     28          1           0        0.221204   -1.688615    1.654330
     29          1           0        0.815273   -3.058563    0.703949
     30          1           0       -0.624463   -2.172025    0.174306
     31          6           0        3.549429   -0.006585   -0.338079
     32          6           0        4.936400    0.164374    0.282464
     33          6           0        5.830891    1.109315   -0.520510
     34          1           0        3.658411   -0.386269   -1.363436
     35          1           0        3.067016    0.977141   -0.418721
     36          1           0        5.415492   -0.819897    0.361816
     37          1           0        4.824779    0.542310    1.306828
     38          1           0        5.377751    2.103602   -0.588764
     39          1           0        5.971820    0.733654   -1.539146
     40          1           0        6.817486    1.217065   -0.059121
 ---------------------------------------------------------------------

 SCF Done:  E(RHF) =  -470.731669516     A.U. after   11 cycles
 E2 =    -0.1584638982D+01 EUMP2 =    -0.47231630849789D+03

 The electronic state is 1-A.
 Alpha  occ. eigenvalues --  -11.21643 -11.21625 -11.21575 -11.21523 -11.21402
 Alpha  occ. eigenvalues --  -11.21361 -11.21329 -11.21299 -11.21104 -11.21102
 Alpha  occ. eigenvalues --  -11.21052 -11.20824  -1.08476  -1.08362  -1.03591
 Alpha  occ. eigenvalues --   -1.03446  -0.96013  -0.95911  -0.87032  -0.86934
 Alpha  occ. eigenvalues --   -0.79695  -0.79477  -0.78304  -0.78184  -0.65106
 Alpha  occ. eigenvalues --   -0.64999  -0.60984  -0.60860  -0.59659  -0.59078
 Alpha  occ. eigenvalues --   -0.57640  -0.57516  -0.55302  -0.55193  -0.52777
 Alpha  occ. eigenvalues --   -0.52600  -0.52431  -0.52338  -0.49956  -0.49851
 Alpha  occ. eigenvalues --   -0.48081  -0.47692  -0.46648  -0.46603  -0.45847
 Alpha  occ. eigenvalues --   -0.45756  -0.45705  -0.45483  -0.43811  -0.43626
 Alpha virt. eigenvalues --    0.21316   0.23142   0.23398   0.24164   0.25671
 Alpha virt. eigenvalues --    0.26281   0.27136   0.27291   0.28012   0.29507
 Alpha virt. eigenvalues --    0.30754   0.31329   0.31607   0.31825   0.32312

 Mulliken charges:
               1
     1  C   -0.297601
     2  C   -0.301436
     3  C   -0.475683
     4  H    0.149468
     5  H    0.149448
     6  H    0.153084
     7  H    0.151757
     8  H    0.155407
     9  H    0.155367
    10  H    0.160157
    11  C   -0.304426
    12  C   -0.298899
    13  C   -0.479894
    14  H    0.154544
    15  H    0.152040
    16  H    0.151780
    17  H    0.151993
    18  H    0.157272
    19  H    0.156008
    20  H    0.161285
    21  C   -0.298116
    22  C   -0.303039
    23  C   -0.483654
    24  H    0.149623
    25  H    0.149485
    26  H    0.150452
    27  H    0.154252
    28  H    0.153246
    29  H    0.153308
    30  H    0.173468
    31  C   -0.298209
    32  C   -0.299583
    33  C   -0.475668
    34  H    0.149224
    35  H    0.149395
    36  H    0.151907
    37  H    0.151891
    38  H    0.155100
    39  H    0.155082
    40  H    0.160165
 Sum of Mulliken charges =  -0.00000

 Dipole moment (field-independent basis, Debye):
    X=             -0.0718    Y=             -0.0045    Z=             -0.0006  Tot=              0.0719
 Quadrupole moment (field-independent basis, Debye-Ang):
   XX=            -85.2183   YY=            -85.8255   ZZ=            -83.7724
   XY=             -0.4646   XZ=             -0.1844   YZ=              0.7880

 Normal termination of Gaussian 16 at Thu May  6 02:18:14 2021.
