 Gaussian 16, Revision A.03,
 Gaussian 16:  EM64L-G16RevA.03 25-Dec-2016

 -------------
 #p 6-31g* mp2
 -------------

 ------------------------------------------------------
 Input file generated by CHIRIPA (05-May-2021 14:57:22)
 ------------------------------------------------------
 Symbolic Z-matrix:
 Charge =  0 Multiplicity = 1

                         Standard orientation:
 ---------------------------------------------------------------------
 Center     Atomic      Atomic             Coordinates (Angstroms)
 Number     Number       Type             X           Y           Z
 ---------------------------------------------------------------------
      1          6           0       -5.310803   -0.512808    0.404315
      2          6           0       -4.830145    0.800369    0.371812
      3          6           0       -3.492162    1.059190    0.059782
      4          6           0       -2.658863   -0.023863   -0.215713
      5          6           0       -3.107925   -1.343349   -0.191389
      6          6           0       -4.449677   -1.578596    0.123106
      7          1           0       -6.351644   -0.704710    0.647665
      8          1           0       -5.496625    1.630033    0.589769
      9          1           0       -3.093732    2.065982    0.027508
     10          1           0       -2.419510   -2.149756   -0.413221
     11          1           0       -4.820204   -2.599456    0.147602
     12          7           0       -1.240405    0.237661   -0.547350
     13          8           0       -0.526558   -0.733939   -0.786210
     14          8           0       -0.869324    1.409291   -0.562148
     15          6           0        2.273712    2.512401    0.213016
     16          6           0        2.654353    1.912111   -0.991678
     17          6           0        2.999363    0.557907   -1.032263
     18          6           0        2.952477   -0.169450    0.156031
     19          6           0        2.577370    0.400018    1.371881
     20          6           0        2.236500    1.755772    1.388877
     21          1           0        2.007307    3.564980    0.235381
     22          1           0        2.684159    2.497269   -1.906417
     23          1           0        3.297692    0.067935   -1.951146
     24          1           0        2.557220   -0.209112    2.267410
     25          1           0        1.941272    2.219318    2.325900
     26          7           0        3.315532   -1.603905    0.125552
     27          8           0        3.266153   -2.222911    1.186227
     28          8           0        3.642600   -2.082064   -0.958435
 ---------------------------------------------------------------------

 SCF Done:  E(RHF) =  -868.337988987     A.U. after   16 cycles
 E2 =    -0.2601580604D+01 EUMP2 =    -0.87093956959026D+03

 The electronic state is 1-A.
 Alpha  occ. eigenvalues --  -20.61114 -20.61070 -20.59359 -20.59339 -15.86125
 Alpha  occ. eigenvalues --  -15.84397 -11.31418 -11.29452 -11.28014 -11.27931
 Alpha  occ. eigenvalues --  -11.27703 -11.26996 -11.26939 -11.26117 -11.26013
 Alpha  occ. eigenvalues --  -11.25799 -11.25100 -11.24984  -1.60153  -1.58420
 Alpha  occ. eigenvalues --   -1.39714  -1.37991  -1.19582  -1.17610  -1.08991
 Alpha  occ. eigenvalues --   -1.07077  -1.04972  -1.03043  -0.95840  -0.93980
 Alpha  occ. eigenvalues --   -0.86373  -0.84477  -0.82677  -0.80866  -0.77731
 Alpha  occ. eigenvalues --   -0.75934  -0.72366  -0.71476  -0.70687  -0.70654
 Alpha  occ. eigenvalues --   -0.69699  -0.68844  -0.65237  -0.64973  -0.63339
 Alpha  occ. eigenvalues --   -0.63140  -0.62318  -0.60464  -0.55484  -0.53620
 Alpha  occ. eigenvalues --   -0.53312  -0.53061  -0.51529  -0.51219  -0.49115
 Alpha  occ. eigenvalues --   -0.48799  -0.47408  -0.47375  -0.45149  -0.43476
 Alpha  occ. eigenvalues --   -0.37561  -0.36573  -0.35429  -0.34587
 Alpha virt. eigenvalues --    0.04776   0.06674   0.11082   0.13065   0.16291
 Alpha virt. eigenvalues --    0.18238   0.21241   0.22853   0.27152   0.28132
 Alpha virt. eigenvalues --    0.28697   0.29741   0.30798   0.32306   0.32359

 Mulliken charges:
               1
     1  C   -0.170534
     2  C   -0.218578
     3  C   -0.171621
     4  C    0.157907
     5  C   -0.170530
     6  C   -0.218588
     7  H    0.226440
     8  H    0.223064
     9  H    0.272363
    10  H    0.279480
    11  H    0.225548
    12  N    0.488870
    13  O   -0.457230
    14  O   -0.464334
    15  C   -0.153188
    16  C   -0.208873
    17  C   -0.162234
    18  C    0.170452
    19  C   -0.173495
    20  C   -0.218206
    21  H    0.218053
    22  H    0.216551
    23  H    0.270254
    24  H    0.267809
    25  H    0.213850
    26  N    0.489174
    27  O   -0.468307
    28  O   -0.464098
 Sum of Mulliken charges =  -0.00000

 Dipole moment (field-independent basis, Debye):
    X=             -6.5986    Y=              4.1018    Z=              1.0754  Tot=              7.8436
 Quadrupole moment (field-independent basis, Debye-Ang):
   XX=            -87.7141   YY=           -102.5848   ZZ=           -101.7189
   XY=             17.4448   XZ=             -3.5645   YZ=              1.0927

 Normal termination of Gaussian 16 at Thu May  6 04:57:28 2021.
