 Gaussian 16, Revision A.03,
 Gaussian 16:  EM64L-G16RevA.03 25-Dec-2016

 -------------
 #p 6-31g* mp2
 -------------

 ------------------------------------------------------
 Input file generated by CHIRIPA (05-May-2021 14:53:11)
 ------------------------------------------------------
 Symbolic Z-matrix:
 Charge =  0 Multiplicity = 1

                         Standard orientation:
 ---------------------------------------------------------------------
 Center     Atomic      Atomic             Coordinates (Angstroms)
 Number     Number       Type             X           Y           Z
 ---------------------------------------------------------------------
      1          6           0       -3.065194    0.087096   -0.002699
      2          6           0       -4.526119   -0.192359   -0.357085
      3          6           0       -4.932658   -1.641699   -0.088880
      4          1           0       -2.418936   -0.589126   -0.578911
      5          1           0       -2.900330   -0.150780    1.057315
      6          1           0       -4.688512    0.047286   -1.415771
      7          1           0       -5.168965    0.484738    0.219895
      8          1           0       -4.798975   -1.889834    0.969023
      9          1           0       -4.315793   -2.329771   -0.675936
     10          1           0       -5.980753   -1.819411   -0.349214
     11          6           0       -2.643785    1.531805   -0.265298
     12          6           0       -1.182861    1.811259    0.089088
     13          6           0       -0.776322    3.260599   -0.179117
     14          1           0       -2.808650    1.769680   -1.325312
     15          1           0       -3.290044    2.208027    0.310913
     16          1           0       -0.540015    1.134163   -0.487892
     17          1           0       -1.020467    1.571615    1.147773
     18          1           0       -1.393187    3.948672    0.407939
     19          1           0       -0.910005    3.508735   -1.237020
     20          1           0        0.271774    3.438312    0.081217
     21          6           0        4.399040    0.558363   -0.388886
     22          6           0        3.740451    0.778096    0.825403
     23          6           0        2.538094    0.123772    1.109560
     24          6           0        2.020382   -0.747500    0.152403
     25          6           0        2.652885   -0.987315   -1.066497
     26          6           0        3.854116   -0.322089   -1.329303
     27          1           0        5.332624    1.070892   -0.601333
     28          1           0        4.161314    1.461317    1.557611
     29          1           0        2.007354    0.275451    2.041615
     30          1           0        2.208780   -1.674176   -1.776716
     31          1           0        4.363397   -0.494668   -2.273175
     32          7           0        0.748097   -1.445974    0.441926
     33          8           0        0.312734   -2.208677   -0.417947
     34          8           0        0.210332   -1.217510    1.523245
 ---------------------------------------------------------------------

 SCF Done:  E(RHF) =  -669.536186267     A.U. after   15 cycles
 E2 =    -0.2093654211D+01 EUMP2 =    -0.67162984047729D+03

 The electronic state is 1-A.
 Alpha  occ. eigenvalues --  -20.60944 -20.60931 -15.85939 -11.31274 -11.27841
 Alpha  occ. eigenvalues --  -11.27835 -11.27573 -11.26845 -11.26836 -11.20999
 Alpha  occ. eigenvalues --  -11.20742 -11.20576 -11.20571 -11.20048 -11.19994
 Alpha  occ. eigenvalues --   -1.59977  -1.39536  -1.19443  -1.08846  -1.07512
 Alpha  occ. eigenvalues --   -1.04839  -1.02726  -0.95687  -0.95160  -0.86239
 Alpha  occ. eigenvalues --   -0.86180  -0.82526  -0.78836  -0.77578  -0.77248
 Alpha  occ. eigenvalues --   -0.72175  -0.71267  -0.70550  -0.65099  -0.64843
 Alpha  occ. eigenvalues --   -0.64147  -0.62188  -0.60135  -0.58576  -0.56767
 Alpha  occ. eigenvalues --   -0.55343  -0.54448  -0.53159  -0.52931  -0.51927
 Alpha  occ. eigenvalues --   -0.51577  -0.49116  -0.48943  -0.48917  -0.47153
 Alpha  occ. eigenvalues --   -0.45875  -0.45170  -0.44720  -0.44405  -0.42927
 Alpha  occ. eigenvalues --   -0.37402  -0.36435
 Alpha virt. eigenvalues --    0.04907   0.11192   0.16391   0.21289   0.23641
 Alpha virt. eigenvalues --    0.24992   0.27048   0.27458   0.27696   0.28657
 Alpha virt. eigenvalues --    0.28765   0.30972   0.31837   0.32148   0.32397

 Mulliken charges:
               1
     1  C   -0.303640
     2  C   -0.299449
     3  C   -0.475045
     4  H    0.162007
     5  H    0.159874
     6  H    0.147301
     7  H    0.147179
     8  H    0.156952
     9  H    0.160081
    10  H    0.154572
    11  C   -0.298085
    12  C   -0.300694
    13  C   -0.474781
    14  H    0.145405
    15  H    0.146215
    16  H    0.144095
    17  H    0.160048
    18  H    0.154452
    19  H    0.153537
    20  H    0.153490
    21  C   -0.170419
    22  C   -0.218895
    23  C   -0.169721
    24  C    0.157501
    25  C   -0.171965
    26  C   -0.218395
    27  H    0.225996
    28  H    0.223833
    29  H    0.275766
    30  H    0.275702
    31  H    0.223759
    32  N    0.491416
    33  O   -0.460704
    34  O   -0.457387
 Sum of Mulliken charges =  -0.00000

 Dipole moment (field-independent basis, Debye):
    X=              4.6391    Y=              2.2434    Z=             -0.9025  Tot=              5.2315
 Quadrupole moment (field-independent basis, Debye-Ang):
   XX=            -78.0675   YY=            -99.5016   ZZ=            -90.3405
   XY=              1.4019   XZ=             -2.1705   YZ=              3.9895

 Normal termination of Gaussian 16 at Thu May  6 05:40:17 2021.
