 Gaussian 16, Revision A.03,
 Gaussian 16:  EM64L-G16RevA.03 25-Dec-2016

 -------------
 #p 6-31g* mp2
 -------------

 ------------------------------------------------------
 Input file generated by CHIRIPA (05-May-2021 14:51:14)
 ------------------------------------------------------
 Symbolic Z-matrix:
 Charge =  0 Multiplicity = 1

                         Standard orientation:
 ---------------------------------------------------------------------
 Center     Atomic      Atomic             Coordinates (Angstroms)
 Number     Number       Type             X           Y           Z
 ---------------------------------------------------------------------
      1          6           0       -3.217505    0.879447    0.400947
      2          6           0       -3.113312    2.166750   -0.417575
      3          6           0       -2.196998    3.205951    0.229127
      4          1           0       -3.587205    1.120996    1.406890
      5          1           0       -2.212961    0.453578    0.531031
      6          1           0       -4.117916    2.589328   -0.547253
      7          1           0       -2.744000    1.922084   -1.421748
      8          1           0       -1.183628    2.807808    0.343870
      9          1           0       -2.565350    3.478844    1.223334
     10          1           0       -2.136981    4.118180   -0.372617
     11          6           0       -4.130044   -0.169145   -0.232658
     12          6           0       -4.234237   -1.456448    0.585865
     13          6           0       -5.150552   -2.495649   -0.060837
     14          1           0       -5.134588    0.256724   -0.362741
     15          1           0       -3.760345   -0.410694   -1.238601
     16          1           0       -4.603549   -1.211782    1.590038
     17          1           0       -3.229634   -1.879027    0.715543
     18          1           0       -4.782199   -2.768542   -1.055044
     19          1           0       -6.163921   -2.097507   -0.175581
     20          1           0       -5.210568   -3.407878    0.540906
     21          6           0        4.290605    0.094916   -0.103970
     22          6           0        5.583714   -0.631902    0.266964
     23          6           0        6.808927    0.281711    0.222733
     24          1           0        4.394064    0.523474   -1.110241
     25          1           0        4.143632    0.940422    0.582261
     26          1           0        5.727487   -1.476615   -0.418898
     27          1           0        5.477094   -1.058943    1.272390
     28          1           0        6.691488    1.117670    0.919857
     29          1           0        6.943304    0.697625   -0.781041
     30          1           0        7.722259   -0.258250    0.491296
     31          6           0        3.056945   -0.805217   -0.064320
     32          6           0        1.763836   -0.078400   -0.435253
     33          6           0        0.538622   -0.992013   -0.391023
     34          1           0        3.203917   -1.650723   -0.750551
     35          1           0        2.953486   -1.233776    0.941950
     36          1           0        1.870455    0.348641   -1.440680
     37          1           0        1.620063    0.766313    0.250607
     38          1           0        0.404247   -1.407926    0.612750
     39          1           0        0.656061   -1.827971   -1.088147
     40          1           0       -0.374710   -0.452052   -0.659586
 ---------------------------------------------------------------------

 SCF Done:  E(RHF) =  -470.733293550     A.U. after   11 cycles
 E2 =    -0.1582868920D+01 EUMP2 =    -0.47231616246969D+03

 The electronic state is 1-A.
 Alpha  occ. eigenvalues --  -11.21685 -11.21628 -11.21585 -11.21549 -11.21451
 Alpha  occ. eigenvalues --  -11.21389 -11.21355 -11.21286 -11.21163 -11.21089
 Alpha  occ. eigenvalues --  -11.21061 -11.21030  -1.08482  -1.08393  -1.03588
 Alpha  occ. eigenvalues --   -1.03496  -0.96045  -0.95940  -0.87065  -0.86956
 Alpha  occ. eigenvalues --   -0.79652  -0.79557  -0.78290  -0.78205  -0.65126
 Alpha  occ. eigenvalues --   -0.65044  -0.60990  -0.60899  -0.59415  -0.59304
 Alpha  occ. eigenvalues --   -0.57660  -0.57544  -0.55334  -0.55233  -0.52765
 Alpha  occ. eigenvalues --   -0.52638  -0.52478  -0.52340  -0.49994  -0.49870
 Alpha  occ. eigenvalues --   -0.47975  -0.47867  -0.46684  -0.46586  -0.45833
 Alpha  occ. eigenvalues --   -0.45756  -0.45742  -0.45659  -0.43799  -0.43738
 Alpha virt. eigenvalues --    0.20266   0.22988   0.23800   0.24836   0.26171
 Alpha virt. eigenvalues --    0.26450   0.27033   0.27281   0.28054   0.29411
 Alpha virt. eigenvalues --    0.30298   0.31228   0.31743   0.31910   0.32191

 Mulliken charges:
               1
     1  C   -0.305358
     2  C   -0.299840
     3  C   -0.476247
     4  H    0.149647
     5  H    0.156406
     6  H    0.152077
     7  H    0.151476
     8  H    0.155489
     9  H    0.155157
    10  H    0.160253
    11  C   -0.298175
    12  C   -0.300388
    13  C   -0.475664
    14  H    0.149422
    15  H    0.149400
    16  H    0.151634
    17  H    0.153383
    18  H    0.155250
    19  H    0.154945
    20  H    0.160112
    21  C   -0.298383
    22  C   -0.299708
    23  C   -0.475745
    24  H    0.149755
    25  H    0.149753
    26  H    0.151959
    27  H    0.152032
    28  H    0.155294
    29  H    0.155226
    30  H    0.160348
    31  C   -0.298492
    32  C   -0.300280
    33  C   -0.481594
    34  H    0.149750
    35  H    0.149910
    36  H    0.152322
    37  H    0.152308
    38  H    0.155556
    39  H    0.155665
    40  H    0.165344
 Sum of Mulliken charges =  -0.00000

 Dipole moment (field-independent basis, Debye):
    X=              0.0399    Y=             -0.0134    Z=              0.0020  Tot=              0.0421
 Quadrupole moment (field-independent basis, Debye-Ang):
   XX=            -85.5335   YY=            -85.6210   ZZ=            -83.6582
   XY=             -1.3961   XZ=             -0.7966   YZ=              0.1504

 Normal termination of Gaussian 16 at Wed May  5 15:23:12 2021.
