 Gaussian 16, Revision A.03,
 Gaussian 16:  EM64L-G16RevA.03 25-Dec-2016

 -------------
 #p 6-31g* mp2
 -------------

 ------------------------------------------------------
 Input file generated by CHIRIPA (05-May-2021 14:51:13)
 ------------------------------------------------------
 Symbolic Z-matrix:
 Charge =  0 Multiplicity = 1

                         Standard orientation:
 ---------------------------------------------------------------------
 Center     Atomic      Atomic             Coordinates (Angstroms)
 Number     Number       Type             X           Y           Z
 ---------------------------------------------------------------------
      1          6           0        2.718281   -0.841919    0.310652
      2          6           0        2.938147    0.598198    0.775096
      3          6           0        4.285931    0.796164    1.469417
      4          1           0        2.788602   -1.514471    1.176489
      5          1           0        3.529561   -1.127115   -0.373368
      6          1           0        2.125942    0.881056    1.456954
      7          1           0        2.867105    1.267419   -0.091917
      8          1           0        5.108581    0.540694    0.793707
      9          1           0        4.363207    0.152136    2.351379
     10          1           0        4.422304    1.832699    1.793236
     11          6           0        1.375272   -1.055648   -0.385317
     12          6           0        1.155406   -2.495765   -0.849761
     13          6           0       -0.192378   -2.693731   -1.544082
     14          1           0        0.563993   -0.770452    0.298704
     15          1           0        1.304951   -0.383096   -1.251154
     16          1           0        1.226448   -3.164986    0.017252
     17          1           0        1.967611   -2.778624   -1.531619
     18          1           0       -0.269654   -2.049703   -2.426044
     19          1           0       -1.015028   -2.438261   -0.868372
     20          1           0       -0.328751   -3.730266   -1.867900
     21          6           0       -2.333878    0.652190    0.680012
     22          6           0       -3.382519   -0.432541    0.431626
     23          6           0       -3.947536   -1.016224    1.726951
     24          1           0       -1.516379    0.232022    1.281760
     25          1           0       -2.782726    1.455739    1.280210
     26          1           0       -2.932220   -1.233154   -0.169096
     27          1           0       -4.197524   -0.009794   -0.169762
     28          1           0       -4.421954   -0.233365    2.327500
     29          1           0       -3.149461   -1.463675    2.328171
     30          1           0       -4.695315   -1.789751    1.526099
     31          6           0       -1.759676    1.245378   -0.605347
     32          6           0       -0.711034    2.330108   -0.356961
     33          6           0       -0.146017    2.913791   -1.652286
     34          1           0       -1.310827    0.441828   -1.205545
     35          1           0       -2.577174    1.665545   -1.207095
     36          1           0        0.103971    1.907362    0.244427
     37          1           0       -1.161333    3.130721    0.243761
     38          1           0       -0.944092    3.361242   -2.253506
     39          1           0        0.328401    2.130932   -2.252836
     40          1           0        0.601763    3.687318   -1.451433
 ---------------------------------------------------------------------

 SCF Done:  E(RHF) =  -470.731545593     A.U. after   11 cycles
 E2 =    -0.1587228918D+01 EUMP2 =    -0.47231877451140D+03

 The electronic state is 1-A.
 Alpha  occ. eigenvalues --  -11.21698 -11.21676 -11.21570 -11.21489 -11.21430
 Alpha  occ. eigenvalues --  -11.21426 -11.21351 -11.21206 -11.21166 -11.21124
 Alpha  occ. eigenvalues --  -11.21073 -11.21017  -1.08587  -1.08312  -1.03628
 Alpha  occ. eigenvalues --   -1.03468  -0.96075  -0.95930  -0.87098  -0.86943
 Alpha  occ. eigenvalues --   -0.79723  -0.79533  -0.78395  -0.78163  -0.65328
 Alpha  occ. eigenvalues --   -0.64867  -0.61135  -0.60797  -0.59462  -0.59279
 Alpha  occ. eigenvalues --   -0.57707  -0.57511  -0.55500  -0.55120  -0.52762
 Alpha  occ. eigenvalues --   -0.52649  -0.52499  -0.52346  -0.50077  -0.49852
 Alpha  occ. eigenvalues --   -0.48166  -0.47822  -0.46752  -0.46573  -0.46280
 Alpha  occ. eigenvalues --   -0.45948  -0.45344  -0.45112  -0.43869  -0.43709
 Alpha virt. eigenvalues --    0.19942   0.21893   0.23052   0.23857   0.25163
 Alpha virt. eigenvalues --    0.25904   0.26765   0.28507   0.29186   0.29758
 Alpha virt. eigenvalues --    0.30236   0.31310   0.31768   0.31837   0.32568

 Mulliken charges:
               1
     1  C   -0.297533
     2  C   -0.303884
     3  C   -0.475343
     4  H    0.149617
     5  H    0.149834
     6  H    0.153427
     7  H    0.154395
     8  H    0.155414
     9  H    0.155264
    10  H    0.160695
    11  C   -0.308485
    12  C   -0.298761
    13  C   -0.483766
    14  H    0.156920
    15  H    0.152380
    16  H    0.152023
    17  H    0.152332
    18  H    0.155625
    19  H    0.161768
    20  H    0.161187
    21  C   -0.300925
    22  C   -0.306847
    23  C   -0.475310
    24  H    0.149332
    25  H    0.149949
    26  H    0.157858
    27  H    0.152661
    28  H    0.155393
    29  H    0.154220
    30  H    0.160327
    31  C   -0.303671
    32  C   -0.306919
    33  C   -0.476729
    34  H    0.156874
    35  H    0.149140
    36  H    0.161434
    37  H    0.150834
    38  H    0.154934
    39  H    0.154608
    40  H    0.159731
 Sum of Mulliken charges =  -0.00000

 Dipole moment (field-independent basis, Debye):
    X=              0.0545    Y=             -0.0434    Z=             -0.0038  Tot=              0.0698
 Quadrupole moment (field-independent basis, Debye-Ang):
   XX=            -85.1694   YY=            -84.6638   ZZ=            -84.9944
   XY=             -0.9057   XZ=             -0.4042   YZ=              0.1480

 Normal termination of Gaussian 16 at Wed May  5 19:59:00 2021.
