 Gaussian 16, Revision A.03,
 Gaussian 16:  EM64L-G16RevA.03 25-Dec-2016

 -------------
 #p 6-31g* mp2
 -------------

 ------------------------------------------------------
 Input file generated by CHIRIPA (05-May-2021 14:55:21)
 ------------------------------------------------------
 Symbolic Z-matrix:
 Charge =  0 Multiplicity = 1

                         Standard orientation:
 ---------------------------------------------------------------------
 Center     Atomic      Atomic             Coordinates (Angstroms)
 Number     Number       Type             X           Y           Z
 ---------------------------------------------------------------------
      1          6           0        3.702276    2.438554   -0.040491
      2          6           0        3.190582    1.919497    1.153355
      3          6           0        2.832261    0.571288    1.245482
      4          6           0        2.999618   -0.232972    0.119228
      5          6           0        3.506750    0.254600   -1.084258
      6          6           0        3.858452    1.605917   -1.153526
      7          1           0        3.978058    3.487082   -0.103179
      8          1           0        3.068206    2.563793    2.019353
      9          1           0        2.433757    0.143355    2.157340
     10          1           0        3.617283   -0.412338   -1.930659
     11          1           0        4.255593    2.006287   -2.081980
     12          7           0        2.623784   -1.661905    0.204659
     13          8           0        2.780897   -2.349629   -0.801814
     14          8           0        2.179207   -2.067122    1.276474
     15          6           0       -3.253206   -0.238049    0.157447
     16          6           0       -2.110247   -0.233927   -0.858235
     17          6           0       -0.785209   -0.706159   -0.259016
     18          1           0       -2.983204    0.404928    1.006345
     19          1           0       -3.372981   -1.253398    0.560082
     20          1           0       -1.993569    0.780818   -1.259854
     21          1           0       -2.383080   -0.876835   -1.704903
     22          1           0       -0.878293   -1.727089    0.125223
     23          1           0       -0.486569   -0.060018    0.572800
     24          1           0        0.018052   -0.695342   -1.002329
     25          6           0       -4.584389    0.231563   -0.426628
     26          6           0       -5.727347    0.227441    0.589056
     27          6           0       -7.052385    0.699674   -0.010165
     28          1           0       -4.464612    1.246913   -0.829262
     29          1           0       -4.854390   -0.411414   -1.275525
     30          1           0       -5.454514    0.870350    1.435723
     31          1           0       -5.844025   -0.787303    0.990674
     32          1           0       -7.351025    0.053532   -0.841980
     33          1           0       -6.959301    1.720603   -0.394403
     34          1           0       -7.855647    0.688856    0.733149
 ---------------------------------------------------------------------

 SCF Done:  E(RHF) =  -669.535676908     A.U. after   15 cycles
 E2 =    -0.2092491531D+01 EUMP2 =    -0.67162816843959D+03

 The electronic state is 1-A.
 Alpha  occ. eigenvalues --  -20.60782 -20.60757 -15.85792 -11.31164 -11.27738
 Alpha  occ. eigenvalues --  -11.27729 -11.27486 -11.26772 -11.26762 -11.21431
 Alpha  occ. eigenvalues --  -11.21257 -11.21179 -11.21079 -11.20941 -11.20557
 Alpha  occ. eigenvalues --   -1.59824  -1.39381  -1.19344  -1.08741  -1.08174
 Alpha  occ. eigenvalues --   -1.04753  -1.03254  -0.95702  -0.95575  -0.86727
 Alpha  occ. eigenvalues --   -0.86150  -0.82412  -0.79337  -0.77989  -0.77455
 Alpha  occ. eigenvalues --   -0.72030  -0.71128  -0.70457  -0.65003  -0.64808
 Alpha  occ. eigenvalues --   -0.64760  -0.62103  -0.60648  -0.59085  -0.57313
 Alpha  occ. eigenvalues --   -0.55258  -0.54989  -0.53104  -0.52848  -0.52369
 Alpha  occ. eigenvalues --   -0.52119  -0.49623  -0.48787  -0.48786  -0.47651
 Alpha  occ. eigenvalues --   -0.46352  -0.45552  -0.45450  -0.44718  -0.43530
 Alpha  occ. eigenvalues --   -0.37296  -0.36351
 Alpha virt. eigenvalues --    0.05076   0.11218   0.16552   0.21398   0.23107
 Alpha virt. eigenvalues --    0.24527   0.26854   0.27262   0.27729   0.27853
 Alpha virt. eigenvalues --    0.28546   0.30874   0.31356   0.31911   0.32060

 Mulliken charges:
               1
     1  C   -0.170970
     2  C   -0.218890
     3  C   -0.171121
     4  C    0.159989
     5  C   -0.172806
     6  C   -0.218172
     7  H    0.225411
     8  H    0.223269
     9  H    0.275637
    10  H    0.275520
    11  H    0.223364
    12  N    0.492096
    13  O   -0.460560
    14  O   -0.458743
    15  C   -0.298031
    16  C   -0.300403
    17  C   -0.479764
    18  H    0.147312
    19  H    0.152311
    20  H    0.147654
    21  H    0.153123
    22  H    0.169716
    23  H    0.150022
    24  H    0.156202
    25  C   -0.297994
    26  C   -0.299433
    27  C   -0.475531
    28  H    0.147622
    29  H    0.150084
    30  H    0.150811
    31  H    0.152947
    32  H    0.155418
    33  H    0.154120
    34  H    0.159787
 Sum of Mulliken charges =  -0.00000

 Dipole moment (field-independent basis, Debye):
    X=              1.3838    Y=              4.9241    Z=             -0.2649  Tot=              5.1217
 Quadrupole moment (field-independent basis, Debye-Ang):
   XX=            -88.4955   YY=            -96.6926   ZZ=            -90.4376
   XY=             15.5707   XZ=             -2.5381   YZ=              1.7149

 Normal termination of Gaussian 16 at Thu May  6 15:50:31 2021.
