 Gaussian 16, Revision A.03,
 Gaussian 16:  EM64L-G16RevA.03 25-Dec-2016

 -------------
 #p 6-31g* mp2
 -------------

 ------------------------------------------------------
 Input file generated by CHIRIPA (05-May-2021 14:53:16)
 ------------------------------------------------------
 Symbolic Z-matrix:
 Charge =  0 Multiplicity = 1

                         Standard orientation:
 ---------------------------------------------------------------------
 Center     Atomic      Atomic             Coordinates (Angstroms)
 Number     Number       Type             X           Y           Z
 ---------------------------------------------------------------------
      1          6           0        2.828781    0.514154   -0.496376
      2          6           0        2.908609    2.040427   -0.450513
      3          6           0        1.610676    2.713961   -0.897186
      4          1           0        2.582357    0.196784   -1.518871
      5          1           0        2.001087    0.177845    0.143323
      6          1           0        3.736781    2.373677   -1.089021
      7          1           0        3.155061    2.354192    0.571949
      8          1           0        0.778013    2.410041   -0.254609
      9          1           0        1.363038    2.429637   -1.925016
     10          1           0        1.689867    3.804807   -0.856654
     11          6           0        4.118707   -0.173559   -0.052674
     12          6           0        4.038878   -1.699832   -0.098538
     13          6           0        5.336811   -2.373366    0.348135
     14          1           0        4.946400    0.162749   -0.692373
     15          1           0        4.365131    0.143811    0.969821
     16          1           0        3.792427   -2.013597   -1.121000
     17          1           0        3.210707   -2.033082    0.539970
     18          1           0        5.584450   -2.089042    1.375966
     19          1           0        6.169475   -2.069446   -0.294442
     20          1           0        5.257621   -3.464213    0.307603
     21          6           0       -3.787499   -1.215017   -1.796139
     22          6           0       -3.837079   -1.848797   -0.550192
     23          6           0       -3.245636   -1.258547    0.570677
     24          6           0       -2.610068   -0.028443    0.408851
     25          6           0       -2.543852    0.627884   -0.819212
     26          6           0       -3.142180    0.019124   -1.926443
     27          1           0       -4.249621   -1.680728   -2.661561
     28          1           0       -4.337560   -2.807294   -0.446036
     29          1           0       -3.269183   -1.727245    1.546990
     30          1           0       -2.037759    1.582877   -0.891852
     31          1           0       -3.102120    0.513627   -2.892832
     32          7           0       -1.980288    0.606226    1.588247
     33          8           0       -1.426420    1.690356    1.419348
     34          8           0       -2.052461    0.007531    2.659224
 ---------------------------------------------------------------------

 SCF Done:  E(RHF) =  -669.536425766     A.U. after   15 cycles
 E2 =    -0.2091296682D+01 EUMP2 =    -0.67162772244870D+03

 The electronic state is 1-A.
 Alpha  occ. eigenvalues --  -20.60961 -20.60948 -15.85982 -11.31258 -11.27825
 Alpha  occ. eigenvalues --  -11.27806 -11.27558 -11.26824 -11.26810 -11.21315
 Alpha  occ. eigenvalues --  -11.21068 -11.21013 -11.20925 -11.20824 -11.20415
 Alpha  occ. eigenvalues --   -1.60015  -1.39572  -1.19427  -1.08841  -1.08016
 Alpha  occ. eigenvalues --   -1.04817  -1.03103  -0.95694  -0.95551  -0.86579
 Alpha  occ. eigenvalues --   -0.86220  -0.82524  -0.79185  -0.77843  -0.77573
 Alpha  occ. eigenvalues --   -0.72208  -0.71325  -0.70538  -0.65087  -0.64823
 Alpha  occ. eigenvalues --   -0.64634  -0.62167  -0.60482  -0.58937  -0.57173
 Alpha  occ. eigenvalues --   -0.55328  -0.54825  -0.53151  -0.52913  -0.52254
 Alpha  occ. eigenvalues --   -0.51990  -0.49516  -0.48956  -0.48941  -0.47500
 Alpha  occ. eigenvalues --   -0.46215  -0.45407  -0.45327  -0.44866  -0.43369
 Alpha  occ. eigenvalues --   -0.37407  -0.36414
 Alpha virt. eigenvalues --    0.04906   0.11223   0.16387   0.21191   0.23295
 Alpha virt. eigenvalues --    0.24620   0.26475   0.27090   0.27661   0.27995
 Alpha virt. eigenvalues --    0.29088   0.30588   0.31658   0.32005   0.32379

 Mulliken charges:
               1
     1  C   -0.298674
     2  C   -0.297622
     3  C   -0.489819
     4  H    0.144702
     5  H    0.153064
     6  H    0.148313
     7  H    0.156136
     8  H    0.178047
     9  H    0.144226
    10  H    0.159221
    11  C   -0.298173
    12  C   -0.299508
    13  C   -0.475500
    14  H    0.147892
    15  H    0.151976
    16  H    0.149299
    17  H    0.152965
    18  H    0.156319
    19  H    0.154274
    20  H    0.158732
    21  C   -0.170378
    22  C   -0.218655
    23  C   -0.170797
    24  C    0.157582
    25  C   -0.170925
    26  C   -0.219023
    27  H    0.225894
    28  H    0.223660
    29  H    0.275554
    30  H    0.278561
    31  H    0.224076
    32  N    0.489642
    33  O   -0.462213
    34  O   -0.458846
 Sum of Mulliken charges =  -0.00000

 Dipole moment (field-independent basis, Debye):
    X=             -2.3719    Y=             -2.2420    Z=             -4.0111  Tot=              5.1712
 Quadrupole moment (field-independent basis, Debye-Ang):
   XX=            -84.3754   YY=            -92.5261   ZZ=            -96.2666
   XY=              7.9434   XZ=              9.0093   YZ=             -2.8626

 Normal termination of Gaussian 16 at Thu May  6 04:20:09 2021.
