 Gaussian 16, Revision A.03,
 Gaussian 16:  EM64L-G16RevA.03 25-Dec-2016

 -------------
 #p 6-31g* mp2
 -------------

 ------------------------------------------------------
 Input file generated by CHIRIPA (05-May-2021 14:57:23)
 ------------------------------------------------------
 Symbolic Z-matrix:
 Charge =  0 Multiplicity = 1

                         Standard orientation:
 ---------------------------------------------------------------------
 Center     Atomic      Atomic             Coordinates (Angstroms)
 Number     Number       Type             X           Y           Z
 ---------------------------------------------------------------------
      1          6           0        3.618507   -2.137012    1.067453
      2          6           0        4.621780   -1.192224    1.306906
      3          6           0        4.562593    0.072216    0.713410
      4          6           0        3.481000    0.359494   -0.117806
      5          6           0        2.465900   -0.560430   -0.375883
      6          6           0        2.545661   -1.818661    0.228302
      7          1           0        3.672476   -3.116848    1.532647
      8          1           0        5.456140   -1.436693    1.958153
      9          1           0        5.325604    0.822517    0.881578
     10          1           0        1.646535   -0.287587   -1.029806
     11          1           0        1.765071   -2.550418    0.040535
     12          7           0        3.407452    1.694813   -0.751772
     13          8           0        2.444127    1.923301   -1.480083
     14          8           0        4.314521    2.487664   -0.508359
     15          6           0       -5.063683    1.452188    1.182104
     16          6           0       -3.747329    1.310151    1.633280
     17          6           0       -2.868379    0.431235    0.993359
     18          6           0       -3.341286   -0.293287   -0.099673
     19          6           0       -4.647069   -0.173774   -0.572893
     20          6           0       -5.508567    0.711079    0.082397
     21          1           0       -5.739695    2.137257    1.685179
     22          1           0       -3.399084    1.884424    2.487084
     23          1           0       -1.844244    0.301860    1.321729
     24          1           0       -4.965314   -0.759748   -1.426574
     25          1           0       -6.530335    0.819352   -0.270184
     26          7           0       -2.420018   -1.226898   -0.785263
     27          8           0       -2.861053   -1.853797   -1.746058
     28          8           0       -1.274339   -1.314088   -0.348854
 ---------------------------------------------------------------------

 SCF Done:  E(RHF) =  -868.340601341     A.U. after   16 cycles
 E2 =    -0.2598461976D+01 EUMP2 =    -0.87093906331680D+03

 The electronic state is 1-A.
 Alpha  occ. eigenvalues --  -20.61409 -20.61346 -20.60150 -20.60140 -15.86409
 Alpha  occ. eigenvalues --  -15.85189 -11.31465 -11.30342 -11.28002 -11.27998
 Alpha  occ. eigenvalues --  -11.27697 -11.26969 -11.26957 -11.26941 -11.26710
 Alpha  occ. eigenvalues --  -11.26624 -11.25977 -11.25680  -1.60434  -1.59229
 Alpha  occ. eigenvalues --   -1.39999  -1.38785  -1.19611  -1.18500  -1.09065
 Alpha  occ. eigenvalues --   -1.07952  -1.04971  -1.03830  -0.95953  -0.94812
 Alpha  occ. eigenvalues --   -0.86385  -0.85258  -0.82805  -0.81619  -0.77877
 Alpha  occ. eigenvalues --   -0.76682  -0.72658  -0.71724  -0.71412  -0.70724
 Alpha  occ. eigenvalues --   -0.70553  -0.69612  -0.65275  -0.64976  -0.64136
 Alpha  occ. eigenvalues --   -0.63810  -0.62324  -0.61139  -0.55490  -0.54398
 Alpha  occ. eigenvalues --   -0.53312  -0.53063  -0.52235  -0.51889  -0.49412
 Alpha  occ. eigenvalues --   -0.49365  -0.48176  -0.48152  -0.45467  -0.44236
 Alpha  occ. eigenvalues --   -0.37574  -0.36556  -0.36528  -0.35435
 Alpha virt. eigenvalues --    0.04622   0.05785   0.11103   0.12194   0.16164
 Alpha virt. eigenvalues --    0.17312   0.21219   0.22403   0.27175   0.27851
 Alpha virt. eigenvalues --    0.28561   0.29232   0.30867   0.31903   0.32333

 Mulliken charges:
               1
     1  C   -0.172572
     2  C   -0.219515
     3  C   -0.173295
     4  C    0.156495
     5  C   -0.173616
     6  C   -0.222087
     7  H    0.223015
     8  H    0.219430
     9  H    0.271793
    10  H    0.286288
    11  H    0.238909
    12  N    0.487795
    13  O   -0.460900
    14  O   -0.464413
    15  C   -0.169605
    16  C   -0.218145
    17  C   -0.169076
    18  C    0.158079
    19  C   -0.170091
    20  C   -0.218535
    21  H    0.227191
    22  H    0.225399
    23  H    0.275265
    24  H    0.275887
    25  H    0.224612
    26  N    0.492196
    27  O   -0.456409
    28  O   -0.474094
 Sum of Mulliken charges =  -0.00000

 Dipole moment (field-independent basis, Debye):
    X=             -3.4955    Y=             -1.4851    Z=              4.5787  Tot=              5.9488
 Quadrupole moment (field-independent basis, Debye-Ang):
   XX=            -76.1042   YY=           -110.8167   ZZ=           -103.8660
   XY=            -24.8080   XZ=              4.5229   YZ=              2.2191

 Normal termination of Gaussian 16 at Thu May  6 01:50:11 2021.
