 Gaussian 16, Revision A.03,
 Gaussian 16:  EM64L-G16RevA.03 25-Dec-2016

 -------------
 #p 6-31g* mp2
 -------------

 ------------------------------------------------------
 Input file generated by CHIRIPA (05-May-2021 14:53:12)
 ------------------------------------------------------
 Symbolic Z-matrix:
 Charge =  0 Multiplicity = 1

                         Standard orientation:
 ---------------------------------------------------------------------
 Center     Atomic      Atomic             Coordinates (Angstroms)
 Number     Number       Type             X           Y           Z
 ---------------------------------------------------------------------
      1          6           0        3.499899   -0.371050   -0.515383
      2          6           0        3.506983   -1.783731    0.069653
      3          6           0        4.126831   -2.812365   -0.876652
      4          1           0        2.947774   -0.377139   -1.465155
      5          1           0        4.530810   -0.075768   -0.755019
      6          1           0        2.476509   -2.075728    0.309398
      7          1           0        4.058991   -1.774240    1.018238
      8          1           0        5.163962   -2.548041   -1.107073
      9          1           0        3.572488   -2.851242   -1.819941
     10          1           0        4.121654   -3.815298   -0.438520
     11          6           0        2.883346    0.668499    0.418923
     12          6           0        2.876262    2.081180   -0.166114
     13          6           0        2.256413    3.109814    0.780192
     14          1           0        1.852434    0.373216    0.658558
     15          1           0        3.435471    0.674588    1.368694
     16          1           0        2.324253    2.071688   -1.114698
     17          1           0        3.906736    2.373176   -0.405858
     18          1           0        2.810757    3.148691    1.723480
     19          1           0        1.219283    2.845489    1.010613
     20          1           0        2.261591    4.112746    0.342059
     21          6           0       -2.701337   -2.560107    0.629274
     22          6           0       -1.662915   -1.794831    1.170157
     23          6           0       -1.538013   -0.439830    0.849349
     24          6           0       -2.473358    0.120078   -0.019513
     25          6           0       -3.518944   -0.616034   -0.574651
     26          6           0       -3.624410   -1.969307   -0.239872
     27          1           0       -2.790815   -3.612033    0.883911
     28          1           0       -0.944595   -2.250998    1.845415
     29          1           0       -0.743790    0.175871    1.253751
     30          1           0       -4.219733   -0.133314   -1.244945
     31          1           0       -4.431878   -2.561193   -0.661430
     32          7           0       -2.351417    1.553643   -0.366533
     33          8           0       -3.188347    2.023290   -1.134399
     34          8           0       -1.421219    2.180477    0.135908
 ---------------------------------------------------------------------

 SCF Done:  E(RHF) =  -669.536033493     A.U. after   15 cycles
 E2 =    -0.2092082132D+01 EUMP2 =    -0.67162811562564D+03

 The electronic state is 1-A.
 Alpha  occ. eigenvalues --  -20.60930 -20.60919 -15.85972 -11.31293 -11.27857
 Alpha  occ. eigenvalues --  -11.27854 -11.27590 -11.26867 -11.26857 -11.21796
 Alpha  occ. eigenvalues --  -11.21366 -11.21272 -11.21249 -11.21049 -11.20130
 Alpha  occ. eigenvalues --   -1.59993  -1.39550  -1.19463  -1.08864  -1.08307
 Alpha  occ. eigenvalues --   -1.04860  -1.03287  -0.95737  -0.95691  -0.86744
 Alpha  occ. eigenvalues --   -0.86259  -0.82542  -0.79402  -0.78119  -0.77581
 Alpha  occ. eigenvalues --   -0.72201  -0.71310  -0.70573  -0.65123  -0.64977
 Alpha  occ. eigenvalues --   -0.64824  -0.62210  -0.60658  -0.59164  -0.57332
 Alpha  occ. eigenvalues --   -0.55365  -0.54981  -0.53189  -0.52956  -0.52399
 Alpha  occ. eigenvalues --   -0.52151  -0.49680  -0.48951  -0.48926  -0.47689
 Alpha  occ. eigenvalues --   -0.46436  -0.45633  -0.45528  -0.44947  -0.43573
 Alpha  occ. eigenvalues --   -0.37439  -0.36456
 Alpha virt. eigenvalues --    0.04906   0.11151   0.16403   0.20010   0.23046
 Alpha virt. eigenvalues --    0.23911   0.25359   0.27190   0.27620   0.28313
 Alpha virt. eigenvalues --    0.29716   0.30008   0.31585   0.31892   0.32235

 Mulliken charges:
               1
     1  C   -0.297997
     2  C   -0.298287
     3  C   -0.475493
     4  H    0.151238
     5  H    0.150920
     6  H    0.144441
     7  H    0.151481
     8  H    0.156848
     9  H    0.155808
    10  H    0.158112
    11  C   -0.299425
    12  C   -0.298200
    13  C   -0.484452
    14  H    0.142457
    15  H    0.148054
    16  H    0.156513
    17  H    0.148932
    18  H    0.147228
    19  H    0.177198
    20  H    0.161732
    21  C   -0.170490
    22  C   -0.220277
    23  C   -0.174623
    24  C    0.157648
    25  C   -0.170625
    26  C   -0.218498
    27  H    0.226176
    28  H    0.224790
    29  H    0.281064
    30  H    0.275850
    31  H    0.223895
    32  N    0.494332
    33  O   -0.459022
    34  O   -0.467331
 Sum of Mulliken charges =  -0.00000

 Dipole moment (field-independent basis, Debye):
    X=             -0.5799    Y=             -4.9588    Z=              1.1463  Tot=              5.1225
 Quadrupole moment (field-independent basis, Debye-Ang):
   XX=            -89.1224   YY=            -97.1156   ZZ=            -93.8943
   XY=             13.5101   XZ=              0.0993   YZ=             -0.0585

 Normal termination of Gaussian 16 at Thu May  6 16:59:59 2021.
