 Gaussian 16, Revision A.03,
 Gaussian 16:  EM64L-G16RevA.03 25-Dec-2016

 -------------
 #p 6-31g* mp2
 -------------

 ------------------------------------------------------
 Input file generated by CHIRIPA (05-May-2021 14:57:25)
 ------------------------------------------------------
 Symbolic Z-matrix:
 Charge =  0 Multiplicity = 1

                         Standard orientation:
 ---------------------------------------------------------------------
 Center     Atomic      Atomic             Coordinates (Angstroms)
 Number     Number       Type             X           Y           Z
 ---------------------------------------------------------------------
      1          6           0        1.840879    2.729665   -0.400009
      2          6           0        3.013285    2.469932    0.317294
      3          6           0        3.512994    1.167792    0.413573
      4          6           0        2.811753    0.144664   -0.222636
      5          6           0        1.641041    0.371530   -0.944615
      6          6           0        1.159700    1.681483   -1.027568
      7          1           0        1.459828    3.744234   -0.469625
      8          1           0        3.544385    3.282003    0.805678
      9          1           0        4.418324    0.938556    0.962433
     10          1           0        1.133604   -0.458645   -1.420782
     11          1           0        0.248952    1.880244   -1.585311
     12          7           0        3.331050   -1.237989   -0.127764
     13          8           0        2.694691   -2.121920   -0.697280
     14          8           0        4.364601   -1.411601    0.514317
     15          6           0       -4.760824    1.039526   -0.243552
     16          6           0       -3.824881    1.461524    0.706420
     17          6           0       -2.693827    0.687182    0.981481
     18          6           0       -2.529464   -0.509055    0.284853
     19          6           0       -3.444089   -0.956467   -0.667288
     20          6           0       -4.567782   -0.165997   -0.926171
     21          1           0       -5.636595    1.647318   -0.450942
     22          1           0       -3.972213    2.397301    1.238078
     23          1           0       -1.953475    0.990087    1.711923
     24          1           0       -3.269962   -1.894027   -1.181174
     25          1           0       -5.292995   -0.496220   -1.664456
     26          7           0       -1.335964   -1.337354    0.567484
     27          8           0       -1.214174   -2.387246   -0.059836
     28          8           0       -0.544888   -0.920998    1.410979
 ---------------------------------------------------------------------

 SCF Done:  E(RHF) =  -868.336441045     A.U. after   16 cycles
 E2 =    -0.2601975564D+01 EUMP2 =    -0.87093841660865D+03

 The electronic state is 1-A.
 Alpha  occ. eigenvalues --  -20.61008 -20.60998 -20.59676 -20.59596 -15.86028
 Alpha  occ. eigenvalues --  -15.84700 -11.31570 -11.30301 -11.28154 -11.28131
 Alpha  occ. eigenvalues --  -11.27904 -11.27192 -11.27162 -11.26970 -11.26940
 Alpha  occ. eigenvalues --  -11.26844 -11.26078 -11.26061  -1.60072  -1.58700
 Alpha  occ. eigenvalues --   -1.39616  -1.38249  -1.19755  -1.18536  -1.09115
 Alpha  occ. eigenvalues --   -1.07904  -1.05168  -1.04013  -0.95917  -0.94697
 Alpha  occ. eigenvalues --   -0.86553  -0.85402  -0.82739  -0.81545  -0.77768
 Alpha  occ. eigenvalues --   -0.76523  -0.72235  -0.71475  -0.70926  -0.70834
 Alpha  occ. eigenvalues --   -0.69993  -0.69695  -0.65389  -0.65153  -0.64220
 Alpha  occ. eigenvalues --   -0.64059  -0.62499  -0.61363  -0.55647  -0.54566
 Alpha  occ. eigenvalues --   -0.53515  -0.53245  -0.52295  -0.52134  -0.49015
 Alpha  occ. eigenvalues --   -0.48982  -0.47720  -0.47657  -0.44978  -0.43601
 Alpha  occ. eigenvalues --   -0.37757  -0.36805  -0.36518  -0.35572
 Alpha virt. eigenvalues --    0.04730   0.06054   0.10832   0.12070   0.16204
 Alpha virt. eigenvalues --    0.17456   0.21053   0.21947   0.26962   0.27719
 Alpha virt. eigenvalues --    0.27993   0.28859   0.30624   0.31470   0.32198

 Mulliken charges:
               1
     1  C   -0.172359
     2  C   -0.219124
     3  C   -0.170018
     4  C    0.165183
     5  C   -0.163930
     6  C   -0.222573
     7  H    0.219403
     8  H    0.219524
     9  H    0.274227
    10  H    0.278583
    11  H    0.217145
    12  N    0.489007
    13  O   -0.451740
    14  O   -0.466000
    15  C   -0.171508
    16  C   -0.220002
    17  C   -0.172829
    18  C    0.154918
    19  C   -0.172694
    20  C   -0.218890
    21  H    0.226354
    22  H    0.223219
    23  H    0.276878
    24  H    0.278004
    25  H    0.224980
    26  N    0.483887
    27  O   -0.452665
    28  O   -0.456979
 Sum of Mulliken charges =  -0.00000

 Dipole moment (field-independent basis, Debye):
    X=             -6.1341    Y=              7.4082    Z=             -1.2640  Tot=              9.7009
 Quadrupole moment (field-independent basis, Debye-Ang):
   XX=            -91.5731   YY=           -104.8360   ZZ=           -102.5465
   XY=             10.4254   XZ=              4.5756   YZ=              4.0832

 Normal termination of Gaussian 16 at Fri May  7 12:39:52 2021.
