 Gaussian 16, Revision A.03,
 Gaussian 16:  EM64L-G16RevA.03 25-Dec-2016

 -------------
 #p 6-31g* mp2
 -------------

 ------------------------------------------------------
 Input file generated by CHIRIPA (05-May-2021 14:51:09)
 ------------------------------------------------------
 Symbolic Z-matrix:
 Charge =  0 Multiplicity = 1

                         Standard orientation:
 ---------------------------------------------------------------------
 Center     Atomic      Atomic             Coordinates (Angstroms)
 Number     Number       Type             X           Y           Z
 ---------------------------------------------------------------------
      1          6           0       -4.067807    0.378693   -0.219592
      2          6           0       -3.972206    1.743927    0.462304
      3          6           0       -5.314154    2.475001    0.512314
      4          1           0       -4.452759    0.511709   -1.239917
      5          1           0       -4.803347   -0.239160    0.313919
      6          1           0       -3.236052    2.358534   -0.071504
      7          1           0       -3.587256    1.607665    1.481059
      8          1           0       -6.054009    1.884968    1.062838
      9          1           0       -5.700810    2.640103   -0.498546
     10          1           0       -5.222845    3.448616    1.003840
     11          6           0       -2.734291   -0.364364   -0.277305
     12          6           0       -2.829892   -1.729598   -0.959201
     13          6           0       -1.487944   -2.460672   -1.009211
     14          1           0       -1.998751    0.253489   -0.810816
     15          1           0       -2.349339   -0.497380    0.743020
     16          1           0       -3.214842   -1.593336   -1.977956
     17          1           0       -3.566046   -2.344205   -0.425393
     18          1           0       -1.101288   -2.625774    0.001649
     19          1           0       -0.748089   -1.870639   -1.559735
     20          1           0       -1.579253   -3.434287   -1.500737
     21          6           0        3.587923    0.731318    0.192285
     22          6           0        4.892907    0.970453   -0.567859
     23          6           0        5.253358    2.452699   -0.671863
     24          1           0        2.774464    1.273671   -0.308797
     25          1           0        3.675008    1.160048    1.200254
     26          1           0        4.803884    0.540182   -1.573621
     27          1           0        5.703318    0.427312   -0.065019
     28          1           0        5.369353    2.891773    0.324310
     29          1           0        4.464810    3.005284   -1.192864
     30          1           0        6.189622    2.600753   -1.218991
     31          6           0        3.214175   -0.745647    0.304612
     32          6           0        1.909191   -0.984783    1.064755
     33          6           0        1.548740   -2.467028    1.168760
     34          1           0        3.127090   -1.174377   -0.703357
     35          1           0        4.027633   -1.288000    0.805694
     36          1           0        1.098780   -0.441641    0.561917
     37          1           0        1.998214   -0.554511    2.070519
     38          1           0        2.337289   -3.019613    1.689761
     39          1           0        1.432745   -2.906102    0.172588
     40          1           0        0.612475   -2.615082    1.715888
 ---------------------------------------------------------------------

 SCF Done:  E(RHF) =  -470.732483502     A.U. after   11 cycles
 E2 =    -0.1583326572D+01 EUMP2 =    -0.47231581007309D+03

 The electronic state is 1-A.
 Alpha  occ. eigenvalues --  -11.21605 -11.21589 -11.21575 -11.21544 -11.21414
 Alpha  occ. eigenvalues --  -11.21381 -11.21354 -11.21320 -11.21073 -11.21063
 Alpha  occ. eigenvalues --  -11.20991 -11.20966  -1.08437  -1.08393  -1.03563
 Alpha  occ. eigenvalues --   -1.03455  -0.96053  -0.95873  -0.87097  -0.86866
 Alpha  occ. eigenvalues --   -0.79639  -0.79508  -0.78252  -0.78207  -0.65070
 Alpha  occ. eigenvalues --   -0.65028  -0.61005  -0.60858  -0.59413  -0.59265
 Alpha  occ. eigenvalues --   -0.57659  -0.57492  -0.55400  -0.55125  -0.52750
 Alpha  occ. eigenvalues --   -0.52656  -0.52372  -0.52288  -0.50039  -0.49726
 Alpha  occ. eigenvalues --   -0.47910  -0.47822  -0.46680  -0.46497  -0.45856
 Alpha  occ. eigenvalues --   -0.45716  -0.45688  -0.45637  -0.43775  -0.43743
 Alpha virt. eigenvalues --    0.21217   0.23068   0.23552   0.25073   0.25844
 Alpha virt. eigenvalues --    0.26542   0.26939   0.27576   0.28095   0.29389
 Alpha virt. eigenvalues --    0.29710   0.31370   0.31507   0.31782   0.32493

 Mulliken charges:
               1
     1  C   -0.298265
     2  C   -0.299641
     3  C   -0.475714
     4  H    0.149714
     5  H    0.149608
     6  H    0.151823
     7  H    0.152062
     8  H    0.155195
     9  H    0.155159
    10  H    0.160292
    11  C   -0.298725
    12  C   -0.300081
    13  C   -0.480932
    14  H    0.149004
    15  H    0.149859
    16  H    0.151410
    17  H    0.151676
    18  H    0.164669
    19  H    0.153561
    20  H    0.159446
    21  C   -0.298195
    22  C   -0.299634
    23  C   -0.475668
    24  H    0.149413
    25  H    0.149528
    26  H    0.151833
    27  H    0.151958
    28  H    0.155188
    29  H    0.155060
    30  H    0.160201
    31  C   -0.298540
    32  C   -0.301942
    33  C   -0.477849
    34  H    0.149521
    35  H    0.149631
    36  H    0.154611
    37  H    0.151439
    38  H    0.154773
    39  H    0.160042
    40  H    0.158511
 Sum of Mulliken charges =  -0.00000

 Dipole moment (field-independent basis, Debye):
    X=              0.0016    Y=             -0.0202    Z=              0.0089  Tot=              0.0222
 Quadrupole moment (field-independent basis, Debye-Ang):
   XX=            -85.5387   YY=            -86.0438   ZZ=            -83.2980
   XY=              0.2123   XZ=              0.3679   YZ=             -0.3817

 Normal termination of Gaussian 16 at Thu May  6 03:44:45 2021.
