 Gaussian 16, Revision A.03,
 Gaussian 16:  EM64L-G16RevA.03 25-Dec-2016

 -------------
 #p 6-31g* mp2
 -------------

 ------------------------------------------------------
 Input file generated by CHIRIPA (05-May-2021 14:57:23)
 ------------------------------------------------------
 Symbolic Z-matrix:
 Charge =  0 Multiplicity = 1

                         Standard orientation:
 ---------------------------------------------------------------------
 Center     Atomic      Atomic             Coordinates (Angstroms)
 Number     Number       Type             X           Y           Z
 ---------------------------------------------------------------------
      1          6           0        6.416895    0.793712   -0.300658
      2          6           0        5.449829    1.024615   -1.284522
      3          6           0        4.136916    0.577662   -1.108340
      4          6           0        3.824408   -0.099886    0.069181
      5          6           0        4.765513   -0.345329    1.067865
      6          6           0        6.072258    0.110681    0.870330
      7          1           0        7.434402    1.144434   -0.445814
      8          1           0        5.714624    1.554791   -2.194930
      9          1           0        3.368474    0.742841   -1.853747
     10          1           0        4.471475   -0.876732    1.964843
     11          1           0        6.821222   -0.070065    1.636117
     12          7           0        2.437750   -0.577850    0.267000
     13          8           0        2.187823   -1.172324    1.313314
     14          8           0        1.627072   -0.348953   -0.628011
     15          6           0       -6.410305    0.880681    0.227841
     16          6           0       -6.181790   -0.364029   -0.367976
     17          6           0       -4.879828   -0.850274   -0.519665
     18          6           0       -3.825045   -0.061988   -0.062142
     19          6           0       -4.020380    1.182132    0.535604
     20          6           0       -5.330775    1.648435    0.676938
     21          1           0       -7.424976    1.250663    0.341655
     22          1           0       -7.018245   -0.962436   -0.717683
     23          1           0       -4.674383   -1.810371   -0.977293
     24          1           0       -3.166308    1.755895    0.874389
     25          1           0       -5.505252    2.615462    1.140039
     26          7           0       -2.442253   -0.566199   -0.217246
     27          8           0       -1.530085    0.147498    0.194123
     28          8           0       -2.296771   -1.665548   -0.747250
 ---------------------------------------------------------------------

 SCF Done:  E(RHF) =  -868.333778927     A.U. after   16 cycles
 E2 =    -0.2600767907D+01 EUMP2 =    -0.87093454683385D+03

 The electronic state is 1-A.
 Alpha  occ. eigenvalues --  -20.59386 -20.59365 -20.59330 -20.59279 -15.84451
 Alpha  occ. eigenvalues --  -15.84409 -11.30296 -11.30271 -11.26926 -11.26922
 Alpha  occ. eigenvalues --  -11.26907 -11.26892 -11.26761 -11.26741 -11.26054
 Alpha  occ. eigenvalues --  -11.26043 -11.26034 -11.26023  -1.58428  -1.58387
 Alpha  occ. eigenvalues --   -1.37981  -1.37933  -1.18516  -1.18492  -1.07823
 Alpha  occ. eigenvalues --   -1.07787  -1.03992  -1.03970  -0.94591  -0.94515
 Alpha  occ. eigenvalues --   -0.85368  -0.85345  -0.81424  -0.81361  -0.76371
 Alpha  occ. eigenvalues --   -0.76339  -0.70755  -0.70493  -0.69797  -0.69748
 Alpha  occ. eigenvalues --   -0.69623  -0.69599  -0.64161  -0.64128  -0.64005
 Alpha  occ. eigenvalues --   -0.63971  -0.61337  -0.61313  -0.54488  -0.54452
 Alpha  occ. eigenvalues --   -0.52295  -0.52273  -0.52093  -0.52070  -0.47782
 Alpha  occ. eigenvalues --   -0.47391  -0.47357  -0.46866  -0.43321  -0.43194
 Alpha  occ. eigenvalues --   -0.36526  -0.36503  -0.35619  -0.35598
 Alpha virt. eigenvalues --    0.06157   0.06222   0.12028   0.12049   0.17564
 Alpha virt. eigenvalues --    0.17630   0.22093   0.22119   0.27971   0.27991
 Alpha virt. eigenvalues --    0.29025   0.29055   0.31607   0.31630   0.33290

 Mulliken charges:
               1
     1  C   -0.172562
     2  C   -0.218584
     3  C   -0.171786
     4  C    0.159715
     5  C   -0.171974
     6  C   -0.218530
     7  H    0.222144
     8  H    0.220474
     9  H    0.275892
    10  H    0.274483
    11  H    0.220363
    12  N    0.486272
    13  O   -0.462270
    14  O   -0.443648
    15  C   -0.172483
    16  C   -0.218493
    17  C   -0.171805
    18  C    0.159732
    19  C   -0.171734
    20  C   -0.218522
    21  H    0.222268
    22  H    0.220610
    23  H    0.274858
    24  H    0.275146
    25  H    0.220389
    26  N    0.486311
    27  O   -0.446124
    28  O   -0.460143
 Sum of Mulliken charges =  -0.00000

 Dipole moment (field-independent basis, Debye):
    X=             -0.0013    Y=              3.3900    Z=             -0.1953  Tot=              3.3956
 Quadrupole moment (field-independent basis, Debye-Ang):
   XX=            -34.3976   YY=           -102.4197   ZZ=           -101.1507
   XY=              0.6255   XZ=             -2.0165   YZ=              0.2061

 Normal termination of Gaussian 16 at Fri May  7 06:28:10 2021.
