 Gaussian 16, Revision A.03,
 Gaussian 16:  EM64L-G16RevA.03 25-Dec-2016

 -------------
 #p 6-31g* mp2
 -------------

 ------------------------------------------------------
 Input file generated by CHIRIPA (05-May-2021 14:51:11)
 ------------------------------------------------------
 Symbolic Z-matrix:
 Charge =  0 Multiplicity = 1

                         Standard orientation:
 ---------------------------------------------------------------------
 Center     Atomic      Atomic             Coordinates (Angstroms)
 Number     Number       Type             X           Y           Z
 ---------------------------------------------------------------------
      1          6           0        3.199685    0.459057   -0.255581
      2          6           0        3.161638   -0.810602   -1.106758
      3          6           0        4.556310   -1.345839   -1.432652
      4          1           0        3.775630    1.230526   -0.784795
      5          1           0        3.740673    0.250336    0.677780
      6          1           0        2.619682   -0.599920   -2.037625
      7          1           0        2.585555   -1.579076   -0.575541
      8          1           0        5.102070   -1.583665   -0.513856
      9          1           0        5.136392   -0.598946   -1.984247
     10          1           0        4.505681   -2.253696   -2.041824
     11          6           0        1.813060    1.006226    0.078491
     12          6           0        1.851106    2.275885    0.929669
     13          6           0        0.456435    2.811122    1.255562
     14          1           0        1.272072    1.214948   -0.854870
     15          1           0        1.237115    0.234757    0.607706
     16          1           0        2.427190    3.044359    0.398451
     17          1           0        2.393062    2.065203    1.860535
     18          1           0       -0.123647    2.064230    1.807157
     19          1           0       -0.089325    3.048949    0.336766
     20          1           0        0.507063    3.718980    1.864735
     21          6           0       -3.232038   -0.566944   -0.082878
     22          6           0       -3.370329    0.531160   -1.137880
     23          6           0       -4.827986    0.851459   -1.470199
     24          1           0       -3.736318   -1.475298   -0.440006
     25          1           0       -3.757637   -0.256301    0.830709
     26          1           0       -2.843452    0.219136   -2.048736
     27          1           0       -2.865496    1.436947   -0.778282
     28          1           0       -5.362173    1.187544   -0.575608
     29          1           0       -5.340003   -0.037185   -1.853281
     30          1           0       -4.903635    1.639015   -2.226435
     31          6           0       -1.780707   -0.898340    0.259968
     32          6           0       -1.642416   -1.996443    1.314970
     33          6           0       -0.184758   -2.316742    1.647289
     34          1           0       -1.255107   -1.208982   -0.653619
     35          1           0       -1.276428    0.010014    0.617096
     36          1           0       -2.147249   -2.902230    0.955372
     37          1           0       -2.169293   -1.684420    2.225826
     38          1           0        0.327259   -1.428098    2.030371
     39          1           0        0.349429   -2.652828    0.752698
     40          1           0       -0.109110   -3.104299    2.403524
 ---------------------------------------------------------------------

 SCF Done:  E(RHF) =  -470.732213993     A.U. after   11 cycles
 E2 =    -0.1585171445D+01 EUMP2 =    -0.47231738543807D+03

 The electronic state is 1-A.
 Alpha  occ. eigenvalues --  -11.21627 -11.21595 -11.21573 -11.21553 -11.21358
 Alpha  occ. eigenvalues --  -11.21327 -11.21283 -11.21227 -11.21156 -11.21139
 Alpha  occ. eigenvalues --  -11.21050 -11.21038  -1.08456  -1.08349  -1.03550
 Alpha  occ. eigenvalues --   -1.03513  -0.96004  -0.95952  -0.87013  -0.86984
 Alpha  occ. eigenvalues --   -0.79658  -0.79564  -0.78476  -0.77930  -0.65160
 Alpha  occ. eigenvalues --   -0.64937  -0.61067  -0.60803  -0.59384  -0.59316
 Alpha  occ. eigenvalues --   -0.57656  -0.57534  -0.55398  -0.55150  -0.52695
 Alpha  occ. eigenvalues --   -0.52666  -0.52434  -0.52396  -0.50071  -0.49777
 Alpha  occ. eigenvalues --   -0.48106  -0.47923  -0.46865  -0.46436  -0.46308
 Alpha  occ. eigenvalues --   -0.45681  -0.45638  -0.44850  -0.43779  -0.43746
 Alpha virt. eigenvalues --    0.20507   0.22205   0.23648   0.23900   0.25864
 Alpha virt. eigenvalues --    0.26308   0.26399   0.27781   0.28629   0.29828
 Alpha virt. eigenvalues --    0.30402   0.31122   0.31503   0.32164   0.32508

 Mulliken charges:
               1
     1  C   -0.297302
     2  C   -0.303168
     3  C   -0.475530
     4  H    0.149177
     5  H    0.149006
     6  H    0.151421
     7  H    0.155317
     8  H    0.155261
     9  H    0.155081
    10  H    0.159862
    11  C   -0.308919
    12  C   -0.299488
    13  C   -0.478594
    14  H    0.149489
    15  H    0.162625
    16  H    0.151964
    17  H    0.151367
    18  H    0.155414
    19  H    0.156040
    20  H    0.160692
    21  C   -0.297707
    22  C   -0.300452
    23  C   -0.475654
    24  H    0.149307
    25  H    0.149190
    26  H    0.151630
    27  H    0.152934
    28  H    0.155248
    29  H    0.155087
    30  H    0.160058
    31  C   -0.306367
    32  C   -0.299558
    33  C   -0.481339
    34  H    0.150038
    35  H    0.158810
    36  H    0.152100
    37  H    0.151634
    38  H    0.156281
    39  H    0.158033
    40  H    0.161015
 Sum of Mulliken charges =  -0.00000

 Dipole moment (field-independent basis, Debye):
    X=             -0.0113    Y=             -0.0107    Z=              0.0114  Tot=              0.0193
 Quadrupole moment (field-independent basis, Debye-Ang):
   XX=            -86.8594   YY=            -84.3592   ZZ=            -83.7751
   XY=              0.7942   XZ=             -0.0523   YZ=             -0.0125

 Normal termination of Gaussian 16 at Wed May  5 15:13:18 2021.
