 Gaussian 16, Revision A.03,
 Gaussian 16:  EM64L-G16RevA.03 25-Dec-2016

 -------------
 #p 6-31g* mp2
 -------------

 ------------------------------------------------------
 Input file generated by CHIRIPA (05-May-2021 14:53:13)
 ------------------------------------------------------
 Symbolic Z-matrix:
 Charge =  0 Multiplicity = 1

                         Standard orientation:
 ---------------------------------------------------------------------
 Center     Atomic      Atomic             Coordinates (Angstroms)
 Number     Number       Type             X           Y           Z
 ---------------------------------------------------------------------
      1          6           0        4.822991   -0.288473   -0.290273
      2          6           0        5.613286   -1.032415    0.786746
      3          6           0        6.600775   -2.043364    0.203102
      4          1           0        4.281226   -1.017731   -0.908025
      5          1           0        5.525086    0.227772   -0.959563
      6          1           0        4.909857   -1.545972    1.454625
      7          1           0        6.153081   -0.301289    1.402126
      8          1           0        7.325049   -1.542835   -0.447666
      9          1           0        6.074761   -2.794590   -0.394869
     10          1           0        7.155003   -2.563734    0.990443
     11          6           0        3.831641    0.725667    0.277595
     12          6           0        3.041347    1.469609   -0.799424
     13          6           0        2.053857    2.480558   -0.215780
     14          1           0        3.129547    0.209421    0.946885
     15          1           0        4.373407    1.454925    0.895347
     16          1           0        2.501551    0.738483   -1.414804
     17          1           0        3.744776    1.983166   -1.467303
     18          1           0        2.579872    3.231784    0.382191
     19          1           0        1.329583    1.980029    0.434988
     20          1           0        1.499629    3.000928   -1.003121
     21          6           0       -2.684497    2.246205    0.203437
     22          6           0       -3.965584    1.851681    0.603048
     23          6           0       -4.362129    0.515202    0.497576
     24          6           0       -3.448024   -0.404444   -0.014236
     25          6           0       -2.164710   -0.042354   -0.420792
     26          6           0       -1.789726    1.299596   -0.306309
     27          1           0       -2.384826    3.286538    0.288869
     28          1           0       -4.662567    2.584657    0.999288
     29          1           0       -5.347785    0.182439    0.799518
     30          1           0       -1.491972   -0.795905   -0.811944
     31          1           0       -0.794176    1.603122   -0.617431
     32          7           0       -3.856415   -1.822210   -0.130664
     33          8           0       -3.032473   -2.613099   -0.584814
     34          8           0       -4.992722   -2.115721    0.234434
 ---------------------------------------------------------------------

 SCF Done:  E(RHF) =  -669.535444242     A.U. after   15 cycles
 E2 =    -0.2091111622D+01 EUMP2 =    -0.67162655586441D+03

 The electronic state is 1-A.
 Alpha  occ. eigenvalues --  -20.60735 -20.60730 -15.85787 -11.31138 -11.27707
 Alpha  occ. eigenvalues --  -11.27694 -11.27430 -11.26719 -11.26630 -11.22430
 Alpha  occ. eigenvalues --  -11.22191 -11.21970 -11.21894 -11.21777 -11.21273
 Alpha  occ. eigenvalues --   -1.59811  -1.39365  -1.19305  -1.08981  -1.08700
 Alpha  occ. eigenvalues --   -1.04706  -1.04124  -0.96596  -0.95540  -0.87626
 Alpha  occ. eigenvalues --   -0.86097  -0.82373  -0.80201  -0.78735  -0.77424
 Alpha  occ. eigenvalues --   -0.72006  -0.71134  -0.70413  -0.65642  -0.64953
 Alpha  occ. eigenvalues --   -0.64718  -0.62144  -0.61441  -0.59996  -0.58169
 Alpha  occ. eigenvalues --   -0.55913  -0.55181  -0.53362  -0.53069  -0.52979
 Alpha  occ. eigenvalues --   -0.52729  -0.50491  -0.48763  -0.48759  -0.48503
 Alpha  occ. eigenvalues --   -0.47210  -0.46289  -0.46179  -0.44774  -0.44358
 Alpha  occ. eigenvalues --   -0.37283  -0.36305
 Alpha virt. eigenvalues --    0.05106   0.11278   0.16573   0.20180   0.22681
 Alpha virt. eigenvalues --    0.23798   0.26043   0.26655   0.26958   0.28206
 Alpha virt. eigenvalues --    0.29050   0.30648   0.30943   0.31289   0.31597

 Mulliken charges:
               1
     1  C   -0.299019
     2  C   -0.300282
     3  C   -0.476173
     4  H    0.151117
     5  H    0.150294
     6  H    0.153412
     7  H    0.152081
     8  H    0.155269
     9  H    0.156626
    10  H    0.161621
    11  C   -0.299223
    12  C   -0.300225
    13  C   -0.485304
    14  H    0.150885
    15  H    0.151112
    16  H    0.150709
    17  H    0.156024
    18  H    0.161892
    19  H    0.153963
    20  H    0.156117
    21  C   -0.173247
    22  C   -0.218418
    23  C   -0.171294
    24  C    0.158907
    25  C   -0.173529
    26  C   -0.226265
    27  H    0.226022
    28  H    0.223159
    29  H    0.275367
    30  H    0.275052
    31  H    0.236617
    32  N    0.488090
    33  O   -0.460765
    34  O   -0.460594
 Sum of Mulliken charges =  -0.00000

 Dipole moment (field-independent basis, Debye):
    X=              1.6567    Y=              4.9958    Z=              0.4360  Tot=              5.2814
 Quadrupole moment (field-independent basis, Debye-Ang):
   XX=           -100.0587   YY=            -99.1629   ZZ=            -94.9376
   XY=            -18.0738   XZ=             -3.2088   YZ=              0.0948

 Normal termination of Gaussian 16 at Thu May  6 07:20:22 2021.
