 Gaussian 16, Revision A.03,
 Gaussian 16:  EM64L-G16RevA.03 25-Dec-2016

 -------------
 #p 6-31g* mp2
 -------------

 ------------------------------------------------------
 Input file generated by CHIRIPA (05-May-2021 14:57:25)
 ------------------------------------------------------
 Symbolic Z-matrix:
 Charge =  0 Multiplicity = 1

                         Standard orientation:
 ---------------------------------------------------------------------
 Center     Atomic      Atomic             Coordinates (Angstroms)
 Number     Number       Type             X           Y           Z
 ---------------------------------------------------------------------
      1          6           0        3.737214    2.427173    0.181834
      2          6           0        4.660876    1.377529    0.222040
      3          6           0        4.251379    0.061947   -0.014823
      4          6           0        2.904466   -0.168995   -0.290108
      5          6           0        1.960234    0.855456   -0.337182
      6          6           0        2.392212    2.163252   -0.097157
      7          1           0        4.064054    3.446124    0.367064
      8          1           0        5.706057    1.579533    0.438460
      9          1           0        4.945301   -0.769478    0.010111
     10          1           0        0.925026    0.622893   -0.555533
     11          1           0        1.672668    2.976446   -0.129030
     12          7           0        2.459049   -1.557622   -0.542539
     13          8           0        1.266778   -1.734745   -0.782860
     14          8           0        3.310637   -2.442609   -0.495293
     15          6           0       -4.694495    1.432137   -0.843770
     16          6           0       -3.709440    1.985450   -0.019129
     17          6           0       -2.753245    1.168337    0.591253
     18          6           0       -2.811919   -0.204109    0.354101
     19          6           0       -3.780925   -0.785337   -0.462287
     20          6           0       -4.727037    0.050945   -1.062331
     21          1           0       -5.433375    2.074336   -1.313913
     22          1           0       -3.681740    3.057762    0.152403
     23          1           0       -1.979681    1.570266    1.234268
     24          1           0       -3.782954   -1.857849   -0.614380
     25          1           0       -5.490894   -0.381534   -1.702275
     26          7           0       -1.804976   -1.079296    0.994813
     27          8           0       -1.878269   -2.285402    0.769927
     28          8           0       -0.961507   -0.542591    1.709757
 ---------------------------------------------------------------------

 SCF Done:  E(RHF) =  -868.336719683     A.U. after   16 cycles
 E2 =    -0.2601256137D+01 EUMP2 =    -0.87093797581983D+03

 The electronic state is 1-A.
 Alpha  occ. eigenvalues --  -20.60417 -20.60302 -20.59897 -20.59832 -15.85412
 Alpha  occ. eigenvalues --  -15.84924 -11.31090 -11.30475 -11.27749 -11.27610
 Alpha  occ. eigenvalues --  -11.27455 -11.27110 -11.27100 -11.26938 -11.26804
 Alpha  occ. eigenvalues --  -11.26708 -11.26206 -11.26172  -1.59394  -1.58920
 Alpha  occ. eigenvalues --   -1.38957  -1.38475  -1.19275  -1.18691  -1.08606
 Alpha  occ. eigenvalues --   -1.08058  -1.04725  -1.04143  -0.95395  -0.94858
 Alpha  occ. eigenvalues --   -0.86106  -0.85535  -0.82231  -0.81708  -0.77235
 Alpha  occ. eigenvalues --   -0.76716  -0.71637  -0.71246  -0.70651  -0.70374
 Alpha  occ. eigenvalues --   -0.70187  -0.69832  -0.64923  -0.64727  -0.64360
 Alpha  occ. eigenvalues --   -0.64179  -0.62073  -0.61498  -0.55200  -0.54672
 Alpha  occ. eigenvalues --   -0.53032  -0.52818  -0.52438  -0.52267  -0.48422
 Alpha  occ. eigenvalues --   -0.48362  -0.47919  -0.47885  -0.44285  -0.43815
 Alpha  occ. eigenvalues --   -0.37259  -0.36689  -0.36345  -0.35735
 Alpha virt. eigenvalues --    0.05285   0.05900   0.11255   0.11916   0.16759
 Alpha virt. eigenvalues --    0.17292   0.21233   0.21937   0.26834   0.27661
 Alpha virt. eigenvalues --    0.28463   0.28767   0.31032   0.31294   0.32501

 Mulliken charges:
               1
     1  C   -0.171023
     2  C   -0.219026
     3  C   -0.170495
     4  C    0.160015
     5  C   -0.159515
     6  C   -0.219417
     7  H    0.222077
     8  H    0.221025
     9  H    0.274794
    10  H    0.271471
    11  H    0.216122
    12  N    0.490101
    13  O   -0.455338
    14  O   -0.463324
    15  C   -0.171716
    16  C   -0.218218
    17  C   -0.177620
    18  C    0.160473
    19  C   -0.169200
    20  C   -0.218090
    21  H    0.224824
    22  H    0.220470
    23  H    0.270535
    24  H    0.279233
    25  H    0.224222
    26  N    0.492250
    27  O   -0.446903
    28  O   -0.467727
 Sum of Mulliken charges =  -0.00000

 Dipole moment (field-independent basis, Debye):
    X=             -2.1477    Y=              7.5441    Z=             -1.3769  Tot=              7.9638
 Quadrupole moment (field-independent basis, Debye-Ang):
   XX=            -71.5412   YY=           -104.9236   ZZ=           -107.6403
   XY=              6.4814   XZ=              9.4256   YZ=              1.6596

 Normal termination of Gaussian 16 at Fri May  7 08:08:04 2021.
