 Gaussian 16, Revision A.03,
 Gaussian 16:  EM64L-G16RevA.03 25-Dec-2016

 -------------
 #p 6-31g* mp2
 -------------

 ------------------------------------------------------
 Input file generated by CHIRIPA (05-May-2021 14:57:24)
 ------------------------------------------------------
 Symbolic Z-matrix:
 Charge =  0 Multiplicity = 1

                         Standard orientation:
 ---------------------------------------------------------------------
 Center     Atomic      Atomic             Coordinates (Angstroms)
 Number     Number       Type             X           Y           Z
 ---------------------------------------------------------------------
      1          6           0        1.129948   -0.908527    0.738174
      2          6           0        1.703128   -1.510783   -0.386669
      3          6           0        3.005157   -1.186865   -0.779538
      4          6           0        3.708549   -0.252343   -0.021119
      5          6           0        3.165042    0.364876    1.104461
      6          6           0        1.861444    0.025733    1.478844
      7          1           0        0.117891   -1.166068    1.036184
      8          1           0        1.137389   -2.236683   -0.963776
      9          1           0        3.473219   -1.637954   -1.646057
     10          1           0        3.753769    1.084889    1.659799
     11          1           0        1.418854    0.495041    2.352862
     12          7           0        5.087779    0.098633   -0.427246
     13          8           0        5.686556    0.924988    0.257766
     14          8           0        5.543928   -0.459272   -1.422890
     15          6           0       -1.867756    2.249276    0.004644
     16          6           0       -2.884163    2.209178   -0.955474
     17          6           0       -3.783804    1.139692   -0.992810
     18          6           0       -3.637221    0.122725   -0.050694
     19          6           0       -2.635001    0.134065    0.918180
     20          6           0       -1.746632    1.213418    0.936764
     21          1           0       -1.173271    3.083911    0.026364
     22          1           0       -2.980626    3.012244   -1.680612
     23          1           0       -4.579896    1.083404   -1.725262
     24          1           0       -2.564089   -0.681172    1.627954
     25          1           0       -0.958243    1.241912    1.683541
     26          7           0       -4.583663   -1.014715   -0.080293
     27          8           0       -4.433209   -1.898253    0.760753
     28          8           0       -5.458020   -1.001165   -0.943980
 ---------------------------------------------------------------------

 SCF Done:  E(RHF) =  -868.335708236     A.U. after   16 cycles
 E2 =    -0.2601987661D+01 EUMP2 =    -0.87093769589707D+03

 The electronic state is 1-A.
 Alpha  occ. eigenvalues --  -20.61556 -20.61537 -20.61193 -20.61183 -15.86607
 Alpha  occ. eigenvalues --  -15.86251 -11.32079 -11.31690 -11.28721 -11.28567
 Alpha  occ. eigenvalues --  -11.28355 -11.28320 -11.28258 -11.28054 -11.27745
 Alpha  occ. eigenvalues --  -11.27583 -11.27431 -11.27225  -1.60624  -1.60266
 Alpha  occ. eigenvalues --   -1.40175  -1.39817  -1.20247  -1.19898  -1.09604
 Alpha  occ. eigenvalues --   -1.09279  -1.05690  -1.05320  -0.96425  -0.96097
 Alpha  occ. eigenvalues --   -0.87084  -0.86704  -0.83295  -0.82915  -0.78343
 Alpha  occ. eigenvalues --   -0.77950  -0.72819  -0.72467  -0.71955  -0.71593
 Alpha  occ. eigenvalues --   -0.71351  -0.70993  -0.65896  -0.65880  -0.65515
 Alpha  occ. eigenvalues --   -0.65239  -0.63050  -0.62619  -0.56107  -0.55885
 Alpha  occ. eigenvalues --   -0.54027  -0.53833  -0.53501  -0.53374  -0.49587
 Alpha  occ. eigenvalues --   -0.49570  -0.49231  -0.49215  -0.45559  -0.45206
 Alpha  occ. eigenvalues --   -0.38346  -0.37928  -0.37051  -0.36899
 Alpha virt. eigenvalues --    0.04146   0.04636   0.10130   0.10815   0.15485
 Alpha virt. eigenvalues --    0.16189   0.18579   0.22105   0.24878   0.25548
 Alpha virt. eigenvalues --    0.27887   0.28972   0.30121   0.31041   0.32594

 Mulliken charges:
               1
     1  C   -0.165150
     2  C   -0.221073
     3  C   -0.169592
     4  C    0.157875
     5  C   -0.170533
     6  C   -0.226440
     7  H    0.225926
     8  H    0.228564
     9  H    0.277916
    10  H    0.275959
    11  H    0.216053
    12  N    0.488000
    13  O   -0.460374
    14  O   -0.458574
    15  C   -0.170887
    16  C   -0.217538
    17  C   -0.170503
    18  C    0.159455
    19  C   -0.180702
    20  C   -0.214637
    21  H    0.229985
    22  H    0.227681
    23  H    0.278445
    24  H    0.271608
    25  H    0.218903
    26  N    0.487885
    27  O   -0.461361
    28  O   -0.456891
 Sum of Mulliken charges =  -0.00000

 Dipole moment (field-independent basis, Debye):
    X=             -1.6034    Y=              2.8305    Z=              1.2437  Tot=              3.4827
 Quadrupole moment (field-independent basis, Debye-Ang):
   XX=           -164.4577   YY=           -100.8863   ZZ=            -99.6779
   XY=            -18.9653   XZ=              7.4900   YZ=              0.3661

 Normal termination of Gaussian 16 at Wed May  5 21:05:09 2021.
