 Gaussian 16, Revision A.03,
 Gaussian 16:  EM64L-G16RevA.03 25-Dec-2016

 -------------
 #p 6-31g* mp2
 -------------

 ------------------------------------------------------
 Input file generated by CHIRIPA (05-May-2021 14:53:18)
 ------------------------------------------------------
 Symbolic Z-matrix:
 Charge =  0 Multiplicity = 1

                         Standard orientation:
 ---------------------------------------------------------------------
 Center     Atomic      Atomic             Coordinates (Angstroms)
 Number     Number       Type             X           Y           Z
 ---------------------------------------------------------------------
      1          6           0        4.055421    0.106382    0.257882
      2          6           0        4.517725   -1.186672   -0.414629
      3          6           0        5.532305   -1.960900    0.427387
      4          1           0        4.929501    0.741430    0.456988
      5          1           0        3.614681   -0.134154    1.235269
      6          1           0        4.956207   -0.943903   -1.391057
      7          1           0        3.642421   -1.818632   -0.612330
      8          1           0        5.101653   -2.231718    1.396819
      9          1           0        6.422903   -1.352019    0.613667
     10          1           0        5.849261   -2.881681   -0.072174
     11          6           0        3.040963    0.891514   -0.571679
     12          6           0        2.578659    2.184567    0.100832
     13          6           0        1.564078    2.958796   -0.741184
     14          1           0        3.481703    1.132050   -1.549066
     15          1           0        2.166883    0.256466   -0.770785
     16          1           0        3.453962    2.816528    0.298533
     17          1           0        2.140177    1.941799    1.077260
     18          1           0        0.673481    2.349915   -0.927464
     19          1           0        1.994731    3.229614   -1.710616
     20          1           0        1.247122    3.879577   -0.241623
     21          6           0       -0.319204   -0.861597    0.478949
     22          6           0       -1.011749   -0.041300    1.375617
     23          6           0       -2.370940    0.226946    1.188021
     24          6           0       -3.009154   -0.344192    0.088124
     25          6           0       -2.346627   -1.165524   -0.822787
     26          6           0       -0.987674   -1.420107   -0.615462
     27          1           0        0.736556   -1.064671    0.632341
     28          1           0       -0.495178    0.393804    2.226430
     29          1           0       -2.931326    0.858420    1.866716
     30          1           0       -2.888663   -1.584950   -1.661653
     31          1           0       -0.452376   -2.057536   -1.313447
     32          7           0       -4.447943   -0.067444   -0.120918
     33          8           0       -4.987338   -0.582696   -1.097753
     34          8           0       -5.009027    0.659483    0.696026
 ---------------------------------------------------------------------

 SCF Done:  E(RHF) =  -669.535297128     A.U. after   15 cycles
 E2 =    -0.2092826546D+01 EUMP2 =    -0.67162812367324D+03

 The electronic state is 1-A.
 Alpha  occ. eigenvalues --  -20.60802 -20.60797 -15.85857 -11.31250 -11.27823
 Alpha  occ. eigenvalues --  -11.27818 -11.27562 -11.26853 -11.26841 -11.22579
 Alpha  occ. eigenvalues --  -11.22407 -11.22379 -11.22269 -11.21877 -11.21583
 Alpha  occ. eigenvalues --   -1.59877  -1.39430  -1.19431  -1.09360  -1.08818
 Alpha  occ. eigenvalues --   -1.04833  -1.04341  -0.96771  -0.95651  -0.87778
 Alpha  occ. eigenvalues --   -0.86230  -0.82482  -0.80415  -0.79170  -0.77518
 Alpha  occ. eigenvalues --   -0.72075  -0.71201  -0.70592  -0.66016  -0.65082
 Alpha  occ. eigenvalues --   -0.64812  -0.62180  -0.61746  -0.60139  -0.58383
 Alpha  occ. eigenvalues --   -0.56166  -0.55237  -0.53428  -0.53172  -0.53161
 Alpha  occ. eigenvalues --   -0.52922  -0.50706  -0.48837  -0.48828  -0.48714
 Alpha  occ. eigenvalues --   -0.47473  -0.46675  -0.46653  -0.44830  -0.44621
 Alpha  occ. eigenvalues --   -0.37374  -0.36433
 Alpha virt. eigenvalues --    0.04978   0.11145   0.16344   0.18467   0.22920
 Alpha virt. eigenvalues --    0.23458   0.25287   0.25515   0.26873   0.27975
 Alpha virt. eigenvalues --    0.29729   0.30662   0.31118   0.31322   0.32008

 Mulliken charges:
               1
     1  C   -0.300161
     2  C   -0.299098
     3  C   -0.475892
     4  H    0.154998
     5  H    0.143167
     6  H    0.156123
     7  H    0.143928
     8  H    0.154406
     9  H    0.158250
    10  H    0.162749
    11  C   -0.303206
    12  C   -0.297980
    13  C   -0.478662
    14  H    0.154322
    15  H    0.144787
    16  H    0.155146
    17  H    0.144214
    18  H    0.160136
    19  H    0.156858
    20  H    0.162119
    21  C   -0.171755
    22  C   -0.220333
    23  C   -0.170821
    24  C    0.158621
    25  C   -0.170497
    26  C   -0.220409
    27  H    0.230800
    28  H    0.224259
    29  H    0.276051
    30  H    0.276005
    31  H    0.224128
    32  N    0.488071
    33  O   -0.460177
    34  O   -0.460145
 Sum of Mulliken charges =  -0.00000

 Dipole moment (field-independent basis, Debye):
    X=              5.1588    Y=             -0.9134    Z=              0.6781  Tot=              5.2827
 Quadrupole moment (field-independent basis, Debye-Ang):
   XX=           -125.0738   YY=            -93.0030   ZZ=            -91.5329
   XY=              2.1341   XZ=             -2.7226   YZ=              2.4110

 Normal termination of Gaussian 16 at Wed May  5 23:39:46 2021.
