 Gaussian 16, Revision A.03,
 Gaussian 16:  EM64L-G16RevA.03 25-Dec-2016

 -------------
 #p 6-31g* mp2
 -------------

 ------------------------------------------------------
 Input file generated by CHIRIPA (05-May-2021 14:57:26)
 ------------------------------------------------------
 Symbolic Z-matrix:
 Charge =  0 Multiplicity = 1

                         Standard orientation:
 ---------------------------------------------------------------------
 Center     Atomic      Atomic             Coordinates (Angstroms)
 Number     Number       Type             X           Y           Z
 ---------------------------------------------------------------------
      1          6           0       -3.501059   -2.215273    0.799996
      2          6           0       -4.557897   -1.395168    0.391286
      3          6           0       -4.309700   -0.112918   -0.107493
      4          6           0       -2.986534    0.319118   -0.184083
      5          6           0       -1.912170   -0.474366    0.215184
      6          6           0       -2.183891   -1.753070    0.710797
      7          1           0       -3.703002   -3.209979    1.186229
      8          1           0       -5.581830   -1.751489    0.459423
      9          1           0       -5.108976    0.542810   -0.430908
     10          1           0       -0.902026   -0.091424    0.135294
     11          1           0       -1.361157   -2.387791    1.027472
     12          7           0       -2.711327    1.674702   -0.710443
     13          8           0       -1.536698    2.031903   -0.767814
     14          8           0       -3.675460    2.354339   -1.055665
     15          6           0        2.975506    2.176322    1.193075
     16          6           0        2.030488    1.206476    1.543589
     17          6           0        2.052210   -0.055783    0.942940
     18          6           0        3.037342   -0.315353   -0.008599
     19          6           0        3.992574    0.629941   -0.379062
     20          6           0        3.951812    1.885472    0.234558
     21          1           0        2.951237    3.154262    1.664712
     22          1           0        1.271128    1.429560    2.287666
     23          1           0        1.332684   -0.825122    1.195557
     24          1           0        4.737443    0.378119   -1.124162
     25          1           0        4.686992    2.636726   -0.039619
     26          7           0        3.070418   -1.648088   -0.651346
     27          8           0        3.948535   -1.851913   -1.486811
     28          8           0        2.217597   -2.463626   -0.307494
 ---------------------------------------------------------------------

 SCF Done:  E(RHF) =  -868.338415699     A.U. after   16 cycles
 E2 =    -0.2600435479D+01 EUMP2 =    -0.87093885117826D+03

 The electronic state is 1-A.
 Alpha  occ. eigenvalues --  -20.61082 -20.61038 -20.60913 -20.60899 -15.86110
 Alpha  occ. eigenvalues --  -15.85956 -11.31354 -11.31236 -11.27978 -11.27815
 Alpha  occ. eigenvalues --  -11.27780 -11.27774 -11.27487 -11.27472 -11.26876
 Alpha  occ. eigenvalues --  -11.26805 -11.26778 -11.26731  -1.60130  -1.59986
 Alpha  occ. eigenvalues --   -1.39694  -1.39542  -1.19474  -1.19387  -1.08868
 Alpha  occ. eigenvalues --   -1.08791  -1.04893  -1.04762  -0.95752  -0.95644
 Alpha  occ. eigenvalues --   -0.86276  -0.86167  -0.82598  -0.82482  -0.77741
 Alpha  occ. eigenvalues --   -0.77502  -0.72337  -0.72177  -0.71442  -0.71308
 Alpha  occ. eigenvalues --   -0.70667  -0.70410  -0.65137  -0.65051  -0.64870
 Alpha  occ. eigenvalues --   -0.64750  -0.62442  -0.61932  -0.55344  -0.55236
 Alpha  occ. eigenvalues --   -0.53207  -0.53109  -0.52974  -0.52783  -0.49108
 Alpha  occ. eigenvalues --   -0.49062  -0.48936  -0.48926  -0.45128  -0.44968
 Alpha  occ. eigenvalues --   -0.37370  -0.37350  -0.36449  -0.36368
 Alpha virt. eigenvalues --    0.04807   0.04971   0.11132   0.11284   0.16358
 Alpha virt. eigenvalues --    0.16491   0.19742   0.22202   0.25153   0.27638
 Alpha virt. eigenvalues --    0.28243   0.29717   0.30031   0.31539   0.32301

 Mulliken charges:
               1
     1  C   -0.170490
     2  C   -0.218616
     3  C   -0.170793
     4  C    0.157569
     5  C   -0.177799
     6  C   -0.222038
     7  H    0.227545
     8  H    0.223831
     9  H    0.275254
    10  H    0.275921
    11  H    0.231346
    12  N    0.487531
    13  O   -0.462833
    14  O   -0.460145
    15  C   -0.167210
    16  C   -0.211021
    17  C   -0.178344
    18  C    0.161007
    19  C   -0.169996
    20  C   -0.216152
    21  H    0.229153
    22  H    0.225557
    23  H    0.265384
    24  H    0.276295
    25  H    0.225556
    26  N    0.489025
    27  O   -0.456737
    28  O   -0.468801
 Sum of Mulliken charges =  -0.00000

 Dipole moment (field-independent basis, Debye):
    X=             -0.9189    Y=              0.0688    Z=              4.0987  Tot=              4.2010
 Quadrupole moment (field-independent basis, Debye-Ang):
   XX=            -91.0477   YY=           -111.1000   ZZ=           -105.3153
   XY=             29.9303   XZ=             -0.2851   YZ=             -0.0723

 Normal termination of Gaussian 16 at Fri May  7 09:41:57 2021.
