 Gaussian 16, Revision A.03,
 Gaussian 16:  EM64L-G16RevA.03 25-Dec-2016

 -------------
 #p 6-31g* mp2
 -------------

 ------------------------------------------------------
 Input file generated by CHIRIPA (05-May-2021 14:57:25)
 ------------------------------------------------------
 Symbolic Z-matrix:
 Charge =  0 Multiplicity = 1

                         Standard orientation:
 ---------------------------------------------------------------------
 Center     Atomic      Atomic             Coordinates (Angstroms)
 Number     Number       Type             X           Y           Z
 ---------------------------------------------------------------------
      1          6           0        1.812205   -1.749233   -0.219010
      2          6           0        2.807879   -1.693462   -1.199848
      3          6           0        3.893782   -0.823991   -1.060616
      4          6           0        3.952576   -0.020847    0.077273
      5          6           0        2.976381   -0.053474    1.071893
      6          6           0        1.899480   -0.930505    0.911737
      7          1           0        0.972147   -2.427595   -0.335296
      8          1           0        2.742705   -2.328134   -2.079046
      9          1           0        4.678558   -0.760574   -1.804607
     10          1           0        3.068793    0.591453    1.937310
     11          1           0        1.127689   -0.971696    1.675077
     12          7           0        5.097407    0.903624    0.235748
     13          8           0        5.126035    1.600849    1.247526
     14          8           0        5.944420    0.913495   -0.654818
     15          6           0       -3.654437   -2.315068    0.351849
     16          6           0       -2.521799   -1.628230   -0.097490
     17          6           0       -2.570923   -0.249546   -0.324133
     18          6           0       -3.774476    0.413769   -0.090116
     19          6           0       -4.919983   -0.242462    0.357616
     20          6           0       -4.847811   -1.621215    0.577570
     21          1           0       -3.607324   -3.386089    0.525312
     22          1           0       -1.593663   -2.164496   -0.273632
     23          1           0       -1.709101    0.306960   -0.671957
     24          1           0       -5.831000    0.319390    0.524310
     25          1           0       -5.729007   -2.152025    0.926537
     26          7           0       -3.838681    1.873356   -0.326511
     27          8           0       -4.910997    2.434709   -0.112833
     28          8           0       -2.815474    2.428389   -0.721001
 ---------------------------------------------------------------------

 SCF Done:  E(RHF) =  -868.336529445     A.U. after   16 cycles
 E2 =    -0.2599917276D+01 EUMP2 =    -0.87093644672095D+03

 The electronic state is 1-A.
 Alpha  occ. eigenvalues --  -20.61245 -20.61239 -20.61010 -20.61003 -15.86307
 Alpha  occ. eigenvalues --  -15.86067 -11.31827 -11.31603 -11.28468 -11.28405
 Alpha  occ. eigenvalues --  -11.28240 -11.28167 -11.28162 -11.28111 -11.27608
 Alpha  occ. eigenvalues --  -11.27429 -11.27295 -11.27280  -1.60319  -1.60079
 Alpha  occ. eigenvalues --   -1.39867  -1.39628  -1.20038  -1.19801  -1.09406
 Alpha  occ. eigenvalues --   -1.09201  -1.05478  -1.05214  -0.96204  -0.96002
 Alpha  occ. eigenvalues --   -0.86871  -0.86624  -0.83050  -0.82811  -0.78064
 Alpha  occ. eigenvalues --   -0.77800  -0.72519  -0.72285  -0.71648  -0.71400
 Alpha  occ. eigenvalues --   -0.71141  -0.71010  -0.65695  -0.65540  -0.65455
 Alpha  occ. eigenvalues --   -0.65215  -0.62827  -0.62541  -0.56023  -0.55804
 Alpha  occ. eigenvalues --   -0.53788  -0.53573  -0.53535  -0.53315  -0.49294
 Alpha  occ. eigenvalues --   -0.49264  -0.49058  -0.49027  -0.45238  -0.44994
 Alpha  occ. eigenvalues --   -0.38028  -0.37851  -0.37090  -0.36794
 Alpha virt. eigenvalues --    0.04493   0.04697   0.10557   0.10810   0.15906
 Alpha virt. eigenvalues --    0.16038   0.18171   0.21923   0.24702   0.26852
 Alpha virt. eigenvalues --    0.27677   0.28677   0.29883   0.31549   0.32142

 Mulliken charges:
               1
     1  C   -0.177157
     2  C   -0.217411
     3  C   -0.169884
     4  C    0.160059
     5  C   -0.168878
     6  C   -0.220157
     7  H    0.218285
     8  H    0.224393
     9  H    0.277696
    10  H    0.278733
    11  H    0.224183
    12  N    0.487981
    13  O   -0.458009
    14  O   -0.458889
    15  C   -0.171136
    16  C   -0.222823
    17  C   -0.173250
    18  C    0.159078
    19  C   -0.169506
    20  C   -0.218479
    21  H    0.226284
    22  H    0.215662
    23  H    0.278346
    24  H    0.278087
    25  H    0.225801
    26  N    0.487926
    27  O   -0.458487
    28  O   -0.458448
 Sum of Mulliken charges =  -0.00000

 Dipole moment (field-independent basis, Debye):
    X=             -3.7825    Y=             -8.1966    Z=              0.3044  Tot=              9.0324
 Quadrupole moment (field-independent basis, Debye-Ang):
   XX=           -131.8676   YY=           -109.9739   ZZ=           -101.7349
   XY=              6.1961   XZ=             -9.2467   YZ=              2.1674

 Normal termination of Gaussian 16 at Thu May  6 13:05:16 2021.
