 Gaussian 16, Revision A.03,
 Gaussian 16:  EM64L-G16RevA.03 25-Dec-2016

 -------------
 #p 6-31g* mp2
 -------------

 ------------------------------------------------------
 Input file generated by CHIRIPA (05-May-2021 14:57:22)
 ------------------------------------------------------
 Symbolic Z-matrix:
 Charge =  0 Multiplicity = 1

                         Standard orientation:
 ---------------------------------------------------------------------
 Center     Atomic      Atomic             Coordinates (Angstroms)
 Number     Number       Type             X           Y           Z
 ---------------------------------------------------------------------
      1          6           0       -0.640738    0.235076    1.628625
      2          6           0       -1.226999   -1.033924    1.579043
      3          6           0       -2.415050   -1.240026    0.871508
      4          6           0       -2.992365   -0.149874    0.222227
      5          6           0       -2.432536    1.126423    0.253018
      6          6           0       -1.244314    1.309306    0.966621
      7          1           0        0.282235    0.386162    2.180612
      8          1           0       -0.760478   -1.870022    2.092212
      9          1           0       -2.890335   -2.211889    0.816704
     10          1           0       -2.921019    1.940523   -0.268561
     11          1           0       -0.791261    2.295934    1.003406
     12          7           0       -4.250192   -0.355774   -0.530020
     13          8           0       -4.739025    0.621001   -1.093572
     14          8           0       -4.723426   -1.490034   -0.541836
     15          6           0        3.750347   -2.213838   -0.266934
     16          6           0        4.081130   -1.284950    0.725169
     17          6           0        3.552211    0.008744    0.691295
     18          6           0        2.691740    0.341173   -0.353871
     19          6           0        2.343165   -0.561890   -1.356997
     20          6           0        2.883947   -1.849985   -1.303024
     21          1           0        4.165832   -3.216635   -0.232813
     22          1           0        4.753734   -1.564740    1.531003
     23          1           0        3.791520    0.747634    1.446404
     24          1           0        1.670005   -0.253659   -2.147736
     25          1           0        2.625299   -2.569299   -2.074862
     26          7           0        2.125516    1.707785   -0.400370
     27          8           0        1.369698    1.975900   -1.331762
     28          8           0        2.448250    2.484945    0.495455
 ---------------------------------------------------------------------

 SCF Done:  E(RHF) =  -868.339454087     A.U. after   16 cycles
 E2 =    -0.2601705400D+01 EUMP2 =    -0.87094115948743D+03

 The electronic state is 1-A.
 Alpha  occ. eigenvalues --  -20.61819 -20.61765 -20.60432 -20.60414 -15.86788
 Alpha  occ. eigenvalues --  -15.85470 -11.31995 -11.30747 -11.28577 -11.28477
 Alpha  occ. eigenvalues --  -11.28229 -11.27536 -11.27458 -11.27327 -11.27166
 Alpha  occ. eigenvalues --  -11.26975 -11.26388 -11.26092  -1.60859  -1.59503
 Alpha  occ. eigenvalues --   -1.40411  -1.39058  -1.20150  -1.18888  -1.09575
 Alpha  occ. eigenvalues --   -1.08313  -1.05516  -1.04247  -0.96436  -0.95166
 Alpha  occ. eigenvalues --   -0.86919  -0.85660  -0.83267  -0.81978  -0.78341
 Alpha  occ. eigenvalues --   -0.77038  -0.73018  -0.72230  -0.71684  -0.71237
 Alpha  occ. eigenvalues --   -0.70824  -0.69984  -0.65794  -0.65503  -0.64528
 Alpha  occ. eigenvalues --   -0.64206  -0.62854  -0.61572  -0.56012  -0.54819
 Alpha  occ. eigenvalues --   -0.53847  -0.53591  -0.52608  -0.52311  -0.49801
 Alpha  occ. eigenvalues --   -0.49769  -0.48453  -0.48437  -0.45851  -0.44482
 Alpha  occ. eigenvalues --   -0.38174  -0.37131  -0.36823  -0.35814
 Alpha virt. eigenvalues --    0.04079   0.05497   0.10481   0.11783   0.15678
 Alpha virt. eigenvalues --    0.16969   0.20727   0.21982   0.26650   0.27504
 Alpha virt. eigenvalues --    0.28063   0.28501   0.30456   0.31308   0.32140

 Mulliken charges:
               1
     1  C   -0.181873
     2  C   -0.217572
     3  C   -0.174642
     4  C    0.157571
     5  C   -0.170074
     6  C   -0.217640
     7  H    0.225101
     8  H    0.218690
     9  H    0.272051
    10  H    0.277852
    11  H    0.241613
    12  N    0.487897
    13  O   -0.459261
    14  O   -0.463578
    15  C   -0.171008
    16  C   -0.219478
    17  C   -0.177988
    18  C    0.158493
    19  C   -0.167658
    20  C   -0.218948
    21  H    0.228279
    22  H    0.225000
    23  H    0.274515
    24  H    0.279558
    25  H    0.227527
    26  N    0.487055
    27  O   -0.454658
    28  O   -0.466823
 Sum of Mulliken charges =  -0.00000

 Dipole moment (field-independent basis, Debye):
    X=              6.5848    Y=             -3.9695    Z=              2.5884  Tot=              8.1127
 Quadrupole moment (field-independent basis, Debye-Ang):
   XX=           -120.9186   YY=           -103.7191   ZZ=           -100.8618
   XY=            -15.5572   XZ=             -5.0577   YZ=              1.4208

 Normal termination of Gaussian 16 at Thu May  6 17:52:28 2021.
