 Gaussian 16, Revision A.03,
 Gaussian 16:  EM64L-G16RevA.03 25-Dec-2016

 -------------
 #p 6-31g* mp2
 -------------

 ------------------------------------------------------
 Input file generated by CHIRIPA (05-May-2021 14:55:24)
 ------------------------------------------------------
 Symbolic Z-matrix:
 Charge =  0 Multiplicity = 1

                         Standard orientation:
 ---------------------------------------------------------------------
 Center     Atomic      Atomic             Coordinates (Angstroms)
 Number     Number       Type             X           Y           Z
 ---------------------------------------------------------------------
      1          6           0       -3.619002   -2.248069    0.239037
      2          6           0       -3.685082   -1.750316   -1.066488
      3          6           0       -3.209940   -0.469318   -1.362851
      4          6           0       -2.672581    0.290186   -0.324733
      5          6           0       -2.592870   -0.177699    0.986000
      6          6           0       -3.074067   -1.461559    1.259315
      7          1           0       -3.990455   -3.244291    0.460307
      8          1           0       -4.107770   -2.358900   -1.860847
      9          1           0       -3.248856   -0.059234   -2.364716
     10          1           0       -2.166082    0.452470    1.756815
     11          1           0       -3.021464   -1.845527    2.274129
     12          7           0       -2.166364    1.647836   -0.626279
     13          8           0       -1.697536    2.297118    0.306067
     14          8           0       -2.248005    2.036974   -1.789269
     15          6           0        2.863586   -0.280381    0.674889
     16          6           0        2.241095    0.840900    1.507486
     17          6           0        0.912919    0.434871    2.146925
     18          1           0        2.155337   -0.583307   -0.108413
     19          1           0        3.017425   -1.160481    1.314540
     20          1           0        2.089753    1.719088    0.866784
     21          1           0        2.950986    1.141323    2.288778
     22          1           0        1.051263   -0.426327    2.808590
     23          1           0        0.185138    0.154720    1.378516
     24          1           0        0.485508    1.251222    2.737475
     25          6           0        4.191804    0.110323    0.029198
     26          6           0        4.814296   -1.010959   -0.803398
     27          6           0        6.142471   -0.604928   -1.442837
     28          1           0        4.037965    0.990423   -0.610451
     29          1           0        4.900054    0.413248    0.812501
     30          1           0        4.104405   -1.311381   -1.584691
     31          1           0        4.965638   -1.889146   -0.162696
     32          1           0        6.870252   -0.324778   -0.674428
     33          1           0        6.004126    0.256270   -2.104502
     34          1           0        6.569882   -1.421280   -2.033387
 ---------------------------------------------------------------------

 SCF Done:  E(RHF) =  -669.534886066     A.U. after   15 cycles
 E2 =    -0.2092618452D+01 EUMP2 =    -0.67162750451846D+03

 The electronic state is 1-A.
 Alpha  occ. eigenvalues --  -20.60843 -20.60822 -15.85872 -11.31206 -11.27787
 Alpha  occ. eigenvalues --  -11.27728 -11.27523 -11.26787 -11.26764 -11.21398
 Alpha  occ. eigenvalues --  -11.21194 -11.21122 -11.21065 -11.20876 -11.20774
 Alpha  occ. eigenvalues --   -1.59903  -1.39457  -1.19389  -1.08787  -1.08144
 Alpha  occ. eigenvalues --   -1.04786  -1.03249  -0.95764  -0.95592  -0.86785
 Alpha  occ. eigenvalues --   -0.86166  -0.82452  -0.79343  -0.77967  -0.77490
 Alpha  occ. eigenvalues --   -0.72094  -0.71232  -0.70499  -0.65040  -0.64842
 Alpha  occ. eigenvalues --   -0.64714  -0.62160  -0.60622  -0.59080  -0.57330
 Alpha  occ. eigenvalues --   -0.55337  -0.54999  -0.53157  -0.52914  -0.52383
 Alpha  occ. eigenvalues --   -0.52102  -0.49680  -0.48849  -0.48833  -0.47644
 Alpha  occ. eigenvalues --   -0.46344  -0.45520  -0.45412  -0.44808  -0.43510
 Alpha  occ. eigenvalues --   -0.37364  -0.36343
 Alpha virt. eigenvalues --    0.05010   0.11183   0.16495   0.21310   0.23164
 Alpha virt. eigenvalues --    0.24573   0.26708   0.26955   0.27745   0.27908
 Alpha virt. eigenvalues --    0.28846   0.30707   0.31601   0.31689   0.32131

 Mulliken charges:
               1
     1  C   -0.170459
     2  C   -0.218663
     3  C   -0.170865
     4  C    0.157746
     5  C   -0.173437
     6  C   -0.220280
     7  H    0.225759
     8  H    0.223465
     9  H    0.275483
    10  H    0.282476
    11  H    0.224206
    12  N    0.488089
    13  O   -0.459862
    14  O   -0.460264
    15  C   -0.298182
    16  C   -0.300656
    17  C   -0.478515
    18  H    0.148915
    19  H    0.146137
    20  H    0.162827
    21  H    0.150145
    22  H    0.146606
    23  H    0.154933
    24  H    0.164334
    25  C   -0.298687
    26  C   -0.299320
    27  C   -0.475665
    28  H    0.152660
    29  H    0.149097
    30  H    0.151505
    31  H    0.150158
    32  H    0.154869
    33  H    0.156390
    34  H    0.159053
 Sum of Mulliken charges =  -0.00000

 Dipole moment (field-independent basis, Debye):
    X=             -1.8517    Y=             -4.6704    Z=              1.0260  Tot=              5.1278
 Quadrupole moment (field-independent basis, Debye-Ang):
   XX=            -86.4816   YY=            -97.9464   ZZ=            -90.6911
   XY=             12.6957   XZ=             -0.1110   YZ=              2.4307

 Normal termination of Gaussian 16 at Wed May  5 16:06:07 2021.
