 Gaussian 16, Revision A.03,
 Gaussian 16:  EM64L-G16RevA.03 25-Dec-2016

 -------------
 #p 6-31g* mp2
 -------------

 ------------------------------------------------------
 Input file generated by CHIRIPA (05-May-2021 14:57:22)
 ------------------------------------------------------
 Symbolic Z-matrix:
 Charge =  0 Multiplicity = 1

                         Standard orientation:
 ---------------------------------------------------------------------
 Center     Atomic      Atomic             Coordinates (Angstroms)
 Number     Number       Type             X           Y           Z
 ---------------------------------------------------------------------
      1          6           0       -5.212448    0.742421   -1.181273
      2          6           0       -4.712654   -0.540133   -1.429831
      3          6           0       -3.614131   -1.025141   -0.713897
      4          6           0       -3.037199   -0.197040    0.247710
      5          6           0       -3.512122    1.085343    0.518324
      6          6           0       -4.611647    1.549643   -0.209701
      7          1           0       -6.066196    1.111144   -1.742124
      8          1           0       -5.177242   -1.169237   -2.183775
      9          1           0       -3.206883   -2.014043   -0.886056
     10          1           0       -3.027888    1.689226    1.276124
     11          1           0       -4.997663    2.546112   -0.014543
     12          7           0       -1.873712   -0.699534    1.012038
     13          8           0       -1.383257    0.049644    1.853955
     14          8           0       -1.474256   -1.833053    0.754729
     15          6           0        3.158617   -2.406451   -0.206473
     16          6           0        2.343092   -1.713298    0.694071
     17          6           0        2.373792   -0.316692    0.749711
     18          6           0        3.235756    0.357912   -0.113548
     19          6           0        4.060419   -0.304209   -1.021742
     20          6           0        4.013171   -1.700938   -1.060001
     21          1           0        3.128342   -3.491416   -0.242944
     22          1           0        1.678459   -2.258590    1.358122
     23          1           0        1.753148    0.245057    1.437212
     24          1           0        4.712677    0.266961   -1.671159
     25          1           0        4.647641   -2.236615   -1.760389
     26          7           0        3.277015    1.836502   -0.063845
     27          8           0        4.045089    2.407530   -0.834966
     28          8           0        2.540501    2.396394    0.745292
 ---------------------------------------------------------------------

 SCF Done:  E(RHF) =  -868.341095398     A.U. after   16 cycles
 E2 =    -0.2599038865D+01 EUMP2 =    -0.87094013426333D+03

 The electronic state is 1-A.
 Alpha  occ. eigenvalues --  -20.61497 -20.61478 -20.59893 -20.59875 -15.86478
 Alpha  occ. eigenvalues --  -15.84926 -11.31515 -11.30052 -11.28074 -11.28010
 Alpha  occ. eigenvalues --  -11.27744 -11.27013 -11.26965 -11.26679 -11.26377
 Alpha  occ. eigenvalues --  -11.26309 -11.25697 -11.25346  -1.60536  -1.58969
 Alpha  occ. eigenvalues --   -1.40094  -1.38525  -1.19660  -1.18200  -1.09123
 Alpha  occ. eigenvalues --   -1.07657  -1.05012  -1.03527  -0.96011  -0.94525
 Alpha  occ. eigenvalues --   -0.86428  -0.84950  -0.82854  -0.81336  -0.77932
 Alpha  occ. eigenvalues --   -0.76401  -0.72723  -0.71816  -0.71151  -0.70769
 Alpha  occ. eigenvalues --   -0.70292  -0.69315  -0.65319  -0.65018  -0.63838
 Alpha  occ. eigenvalues --   -0.63500  -0.62361  -0.60842  -0.55538  -0.54094
 Alpha  occ. eigenvalues --   -0.53358  -0.53102  -0.51934  -0.51588  -0.49483
 Alpha  occ. eigenvalues --   -0.49464  -0.47915  -0.47887  -0.45555  -0.43983
 Alpha  occ. eigenvalues --   -0.37626  -0.36597  -0.36221  -0.35118
 Alpha virt. eigenvalues --    0.04555   0.06066   0.11063   0.12509   0.16106
 Alpha virt. eigenvalues --    0.17612   0.21211   0.22734   0.27155   0.28044
 Alpha virt. eigenvalues --    0.28824   0.29538   0.30830   0.32137   0.32373

 Mulliken charges:
               1
     1  C   -0.169534
     2  C   -0.218703
     3  C   -0.170308
     4  C    0.157931
     5  C   -0.169012
     6  C   -0.218553
     7  H    0.227233
     8  H    0.223996
     9  H    0.274041
    10  H    0.279201
    11  H    0.226193
    12  N    0.490044
    13  O   -0.461301
    14  O   -0.466723
    15  C   -0.173224
    16  C   -0.217038
    17  C   -0.178550
    18  C    0.156359
    19  C   -0.173894
    20  C   -0.219550
    21  H    0.222329
    22  H    0.239681
    23  H    0.289011
    24  H    0.270669
    25  H    0.218095
    26  N    0.487602
    27  O   -0.465782
    28  O   -0.460216
 Sum of Mulliken charges =  -0.00000

 Dipole moment (field-independent basis, Debye):
    X=             -4.7817    Y=             -3.4277    Z=             -2.6805  Tot=              6.4652
 Quadrupole moment (field-independent basis, Debye-Ang):
   XX=            -80.3038   YY=           -106.4857   ZZ=           -103.1849
   XY=            -21.9985   XZ=              4.7852   YZ=              3.9078

 Normal termination of Gaussian 16 at Fri May  7 03:20:03 2021.
