 Gaussian 16, Revision A.03,
 Gaussian 16:  EM64L-G16RevA.03 25-Dec-2016

 -------------
 #p 6-31g* mp2
 -------------

 ------------------------------------------------------
 Input file generated by CHIRIPA (05-May-2021 14:53:12)
 ------------------------------------------------------
 Symbolic Z-matrix:
 Charge =  0 Multiplicity = 1

                         Standard orientation:
 ---------------------------------------------------------------------
 Center     Atomic      Atomic             Coordinates (Angstroms)
 Number     Number       Type             X           Y           Z
 ---------------------------------------------------------------------
      1          6           0        2.643887    0.746636   -0.134260
      2          6           0        2.904746    1.785988    0.956467
      3          6           0        2.153632    3.095971    0.716536
      4          1           0        2.934947    1.164886   -1.107552
      5          1           0        1.564842    0.546767   -0.190021
      6          1           0        3.983121    1.982813    1.011093
      7          1           0        2.613210    1.365145    1.927298
      8          1           0        1.073544    2.920196    0.683144
      9          1           0        2.451239    3.541374   -0.238266
     10          1           0        2.354455    3.824673    1.508069
     11          6           0        3.387856   -0.568363    0.091606
     12          6           0        3.126997   -1.607714   -0.999121
     13          6           0        3.878111   -2.917697   -0.759191
     14          1           0        4.466901   -0.368494    0.147366
     15          1           0        3.096796   -0.986613    1.064897
     16          1           0        3.418533   -1.186871   -1.969953
     17          1           0        2.048622   -1.804539   -1.053748
     18          1           0        3.580504   -3.363100    0.195611
     19          1           0        4.958199   -2.741923   -0.725799
     20          1           0        3.677288   -3.646399   -1.550723
     21          6           0       -2.293272   -1.052123    2.339741
     22          6           0       -1.357844   -0.082302    1.964317
     23          6           0       -1.383241    0.468988    0.679800
     24          6           0       -2.362229    0.025345   -0.207925
     25          6           0       -3.307871   -0.939314    0.136289
     26          6           0       -3.263589   -1.476785    1.426139
     27          1           0       -2.266208   -1.475010    3.339655
     28          1           0       -0.603152    0.249397    2.671749
     29          1           0       -0.671111    1.221201    0.362840
     30          1           0       -4.048262   -1.249948   -0.590860
     31          1           0       -3.991318   -2.229812    1.714939
     32          7           0       -2.399112    0.601656   -1.570608
     33          8           0       -3.271667    0.193905   -2.334166
     34          8           0       -1.554766    1.450206   -1.849318
 ---------------------------------------------------------------------

 SCF Done:  E(RHF) =  -669.534926239     A.U. after   15 cycles
 E2 =    -0.2092797670D+01 EUMP2 =    -0.67162772390925D+03

 The electronic state is 1-A.
 Alpha  occ. eigenvalues --  -20.60790 -20.60784 -15.85840 -11.31230 -11.27800
 Alpha  occ. eigenvalues --  -11.27777 -11.27545 -11.26827 -11.26817 -11.21976
 Alpha  occ. eigenvalues --  -11.21640 -11.21578 -11.21520 -11.21425 -11.21135
 Alpha  occ. eigenvalues --   -1.59863  -1.39416  -1.19408  -1.08796  -1.08638
 Alpha  occ. eigenvalues --   -1.04817  -1.03742  -0.96180  -0.95628  -0.87195
 Alpha  occ. eigenvalues --   -0.86214  -0.82459  -0.79795  -0.78438  -0.77495
 Alpha  occ. eigenvalues --   -0.72060  -0.71187  -0.70533  -0.65361  -0.65049
 Alpha  occ. eigenvalues --   -0.64786  -0.62220  -0.61086  -0.59543  -0.57778
 Alpha  occ. eigenvalues --   -0.55499  -0.55310  -0.53144  -0.52937  -0.52862
 Alpha  occ. eigenvalues --   -0.52587  -0.50147  -0.48823  -0.48815  -0.48091
 Alpha  occ. eigenvalues --   -0.46828  -0.45948  -0.45882  -0.44807  -0.43979
 Alpha  occ. eigenvalues --   -0.37386  -0.36400
 Alpha virt. eigenvalues --    0.04986   0.11157   0.16490   0.19324   0.23047
 Alpha virt. eigenvalues --    0.23739   0.25846   0.26213   0.27664   0.28109
 Alpha virt. eigenvalues --    0.29349   0.30199   0.31452   0.31606   0.32211

 Mulliken charges:
               1
     1  C   -0.302360
     2  C   -0.301923
     3  C   -0.477708
     4  H    0.156990
     5  H    0.148950
     6  H    0.155210
     7  H    0.143672
     8  H    0.150406
     9  H    0.163813
    10  H    0.160963
    11  C   -0.297486
    12  C   -0.299964
    13  C   -0.475790
    14  H    0.150237
    15  H    0.145088
    16  H    0.155447
    17  H    0.153471
    18  H    0.152979
    19  H    0.155194
    20  H    0.161664
    21  C   -0.170663
    22  C   -0.223109
    23  C   -0.180494
    24  C    0.158156
    25  C   -0.170106
    26  C   -0.218608
    27  H    0.225867
    28  H    0.224330
    29  H    0.289715
    30  H    0.275857
    31  H    0.223751
    32  N    0.486863
    33  O   -0.460189
    34  O   -0.460225
 Sum of Mulliken charges =  -0.00000

 Dipole moment (field-independent basis, Debye):
    X=              0.1866    Y=             -1.9970    Z=              4.6659  Tot=              5.0787
 Quadrupole moment (field-independent basis, Debye-Ang):
   XX=            -91.8154   YY=            -94.4136   ZZ=            -96.8695
   XY=              8.6048   XZ=            -11.3205   YZ=              0.9173

 Normal termination of Gaussian 16 at Thu May  6 10:24:16 2021.
