 Gaussian 16, Revision A.03,
 Gaussian 16:  EM64L-G16RevA.03 25-Dec-2016

 -------------
 #p 6-31g* mp2
 -------------

 ------------------------------------------------------
 Input file generated by CHIRIPA (05-May-2021 14:51:11)
 ------------------------------------------------------
 Symbolic Z-matrix:
 Charge =  0 Multiplicity = 1

                         Standard orientation:
 ---------------------------------------------------------------------
 Center     Atomic      Atomic             Coordinates (Angstroms)
 Number     Number       Type             X           Y           Z
 ---------------------------------------------------------------------
      1          6           0        3.507195   -0.067846    0.083755
      2          6           0        3.745456    1.104257   -0.868816
      3          6           0        5.139356    1.081745   -1.496772
      4          1           0        4.268142   -0.048787    0.875931
      5          1           0        3.648829   -1.010336   -0.463098
      6          1           0        3.602060    2.044252   -0.320671
      7          1           0        2.983738    1.082516   -1.658708
      8          1           0        5.289814    0.159812   -2.067740
      9          1           0        5.911649    1.127012   -0.722101
     10          1           0        5.288246    1.928424   -2.174140
     11          6           0        2.118105   -0.059165    0.719430
     12          6           0        1.879844   -1.231268    1.672001
     13          6           0        0.485944   -1.208756    2.299957
     14          1           0        1.976472    0.883324    1.266282
     15          1           0        1.357159   -0.078225   -0.072746
     16          1           0        2.641562   -1.209528    2.461892
     17          1           0        2.023240   -2.171263    1.123855
     18          1           0       -0.286349   -1.254024    1.525285
     19          1           0        0.335486   -0.286824    2.870925
     20          1           0        0.337054   -2.055435    2.977324
     21          6           0       -3.206694    0.713150   -0.479847
     22          6           0       -2.798859    1.794114    0.521738
     23          6           0       -3.596061    3.087811    0.352593
     24          1           0       -3.071898    1.097866   -1.500028
     25          1           0       -4.278846    0.501988   -0.364542
     26          1           0       -1.727497    2.002186    0.405522
     27          1           0       -2.934460    1.406713    1.539652
     28          1           0       -4.666207    2.901540    0.489309
     29          1           0       -3.452386    3.500396   -0.651265
     30          1           0       -3.288350    3.846829    1.078586
     31          6           0       -2.418606   -0.586139   -0.323338
     32          6           0       -2.826442   -1.667102   -1.324923
     33          6           0       -2.029239   -2.960799   -1.155778
     34          1           0       -1.346454   -0.374977   -0.438643
     35          1           0       -2.553402   -0.970853    0.696843
     36          1           0       -2.690840   -1.279701   -2.342836
     37          1           0       -3.897804   -1.875175   -1.208706
     38          1           0       -2.172914   -3.373385   -0.151919
     39          1           0       -0.959093   -2.774528   -1.292494
     40          1           0       -2.336951   -3.719817   -1.881771
 ---------------------------------------------------------------------

 SCF Done:  E(RHF) =  -470.732437968     A.U. after   11 cycles
 E2 =    -0.1584179629D+01 EUMP2 =    -0.47231661759723D+03

 The electronic state is 1-A.
 Alpha  occ. eigenvalues --  -11.21655 -11.21616 -11.21589 -11.21529 -11.21436
 Alpha  occ. eigenvalues --  -11.21405 -11.21375 -11.21346 -11.21139 -11.21081
 Alpha  occ. eigenvalues --  -11.21066 -11.20834  -1.08486  -1.08400  -1.03568
 Alpha  occ. eigenvalues --   -1.03478  -0.96025  -0.95923  -0.87049  -0.86937
 Alpha  occ. eigenvalues --   -0.79675  -0.79533  -0.78418  -0.78106  -0.65150
 Alpha  occ. eigenvalues --   -0.64999  -0.60967  -0.60889  -0.59390  -0.59301
 Alpha  occ. eigenvalues --   -0.57703  -0.57483  -0.55313  -0.55224  -0.52719
 Alpha  occ. eigenvalues --   -0.52618  -0.52543  -0.52270  -0.49966  -0.49898
 Alpha  occ. eigenvalues --   -0.48074  -0.47808  -0.46725  -0.46646  -0.46115
 Alpha  occ. eigenvalues --   -0.45746  -0.45692  -0.45130  -0.43815  -0.43749
 Alpha virt. eigenvalues --    0.20634   0.23248   0.23692   0.24537   0.25337
 Alpha virt. eigenvalues --    0.26214   0.26953   0.27918   0.28378   0.29831
 Alpha virt. eigenvalues --    0.30975   0.31226   0.31502   0.31968   0.32237

 Mulliken charges:
               1
     1  C   -0.298101
     2  C   -0.299588
     3  C   -0.475688
     4  H    0.150015
     5  H    0.149458
     6  H    0.151946
     7  H    0.151332
     8  H    0.155209
     9  H    0.155313
    10  H    0.160211
    11  C   -0.301824
    12  C   -0.299094
    13  C   -0.485499
    14  H    0.149675
    15  H    0.151049
    16  H    0.151426
    17  H    0.151401
    18  H    0.168280
    19  H    0.153890
    20  H    0.158480
    21  C   -0.297007
    22  C   -0.300434
    23  C   -0.475706
    24  H    0.149441
    25  H    0.149576
    26  H    0.152897
    27  H    0.152517
    28  H    0.155108
    29  H    0.155100
    30  H    0.160300
    31  C   -0.307766
    32  C   -0.298821
    33  C   -0.477123
    34  H    0.155115
    35  H    0.153198
    36  H    0.151812
    37  H    0.152248
    38  H    0.156256
    39  H    0.154504
    40  H    0.160893
 Sum of Mulliken charges =  -0.00000

 Dipole moment (field-independent basis, Debye):
    X=             -0.0592    Y=              0.0012    Z=             -0.0211  Tot=              0.0628
 Quadrupole moment (field-independent basis, Debye-Ang):
   XX=            -85.2885   YY=            -85.3762   ZZ=            -84.1529
   XY=              0.9062   XZ=              0.2739   YZ=              0.3354

 Normal termination of Gaussian 16 at Thu May  6 02:14:51 2021.
