 Gaussian 16, Revision A.03,
 Gaussian 16:  EM64L-G16RevA.03 25-Dec-2016

 -------------
 #p 6-31g* mp2
 -------------

 ------------------------------------------------------
 Input file generated by CHIRIPA (05-May-2021 14:53:17)
 ------------------------------------------------------
 Symbolic Z-matrix:
 Charge =  0 Multiplicity = 1

                         Standard orientation:
 ---------------------------------------------------------------------
 Center     Atomic      Atomic             Coordinates (Angstroms)
 Number     Number       Type             X           Y           Z
 ---------------------------------------------------------------------
      1          6           0       -3.712584    1.022670   -0.355718
      2          6           0       -2.263258    0.910781    0.118537
      3          6           0       -1.408941    2.106256   -0.304283
      4          1           0       -3.727324    1.116887   -1.450182
      5          1           0       -4.151345    1.947579    0.043565
      6          1           0       -1.827787   -0.014337   -0.280386
      7          1           0       -2.251976    0.816626    1.211983
      8          1           0       -1.817007    3.035666    0.105936
      9          1           0       -1.390408    2.199982   -1.394913
     10          1           0       -0.376654    2.005617    0.045169
     11          6           0       -4.579195   -0.164981    0.059251
     12          6           0       -6.028522   -0.053092   -0.415004
     13          6           0       -6.882839   -1.248567    0.007816
     14          1           0       -4.140434   -1.089890   -0.340032
     15          1           0       -4.564455   -0.259199    1.153715
     16          1           0       -6.039804    0.041062   -1.508450
     17          1           0       -6.463992    0.872025   -0.016081
     18          1           0       -6.901371   -1.342294    1.098445
     19          1           0       -6.474772   -2.177978   -0.402403
     20          1           0       -7.915125   -1.147929   -0.341636
     21          6           0        5.504672    0.585719   -0.504484
     22          6           0        4.619193    1.357852    0.254635
     23          6           0        3.361260    0.857858    0.604146
     24          6           0        3.019937   -0.424049    0.175775
     25          6           0        3.880124   -1.217677   -0.581539
     26          6           0        5.132965   -0.697319   -0.919417
     27          1           0        6.479886    0.982036   -0.771475
     28          1           0        4.905181    2.354608    0.578260
     29          1           0        2.656307    1.434147    1.190960
     30          1           0        3.566758   -2.207800   -0.889563
     31          1           0        5.818601   -1.299218   -1.509050
     32          7           0        1.690915   -0.964150    0.539629
     33          8           0        1.414083   -2.096462    0.149922
     34          8           0        0.951222   -0.244941    1.207635
 ---------------------------------------------------------------------

 SCF Done:  E(RHF) =  -669.536138744     A.U. after   15 cycles
 E2 =    -0.2091674228D+01 EUMP2 =    -0.67162781297218D+03

 The electronic state is 1-A.
 Alpha  occ. eigenvalues --  -20.60992 -20.60977 -15.86000 -11.31309 -11.27871
 Alpha  occ. eigenvalues --  -11.27866 -11.27602 -11.26874 -11.26864 -11.20860
 Alpha  occ. eigenvalues --  -11.20441 -11.20420 -11.20328 -11.20157 -11.19948
 Alpha  occ. eigenvalues --   -1.60036  -1.39594  -1.19475  -1.08882  -1.07427
 Alpha  occ. eigenvalues --   -1.04869  -1.02523  -0.95729  -0.95027  -0.86271
 Alpha  occ. eigenvalues --   -0.86063  -0.82561  -0.78596  -0.77620  -0.77182
 Alpha  occ. eigenvalues --   -0.72225  -0.71348  -0.70584  -0.65132  -0.64872
 Alpha  occ. eigenvalues --   -0.64071  -0.62218  -0.59937  -0.58390  -0.56585
 Alpha  occ. eigenvalues --   -0.55373  -0.54354  -0.53199  -0.52962  -0.51746
 Alpha  occ. eigenvalues --   -0.51450  -0.49035  -0.48990  -0.48971  -0.46889
 Alpha  occ. eigenvalues --   -0.45638  -0.44981  -0.44729  -0.44627  -0.42784
 Alpha  occ. eigenvalues --   -0.37450  -0.36468
 Alpha virt. eigenvalues --    0.04869   0.11166   0.16347   0.21188   0.23781
 Alpha virt. eigenvalues --    0.25032   0.26971   0.27624   0.27747   0.28567
 Alpha virt. eigenvalues --    0.29083   0.30445   0.31629   0.32306   0.32725

 Mulliken charges:
               1
     1  C   -0.299123
     2  C   -0.293279
     3  C   -0.480433
     4  H    0.145157
     5  H    0.144703
     6  H    0.161621
     7  H    0.156703
     8  H    0.147937
     9  H    0.147616
    10  H    0.165369
    11  C   -0.297679
    12  C   -0.298774
    13  C   -0.475166
    14  H    0.152030
    15  H    0.150064
    16  H    0.149966
    17  H    0.149743
    18  H    0.154822
    19  H    0.155375
    20  H    0.157425
    21  C   -0.170514
    22  C   -0.218476
    23  C   -0.171343
    24  C    0.158487
    25  C   -0.170766
    26  C   -0.218526
    27  H    0.226089
    28  H    0.224086
    29  H    0.276261
    30  H    0.275791
    31  H    0.223870
    32  N    0.488819
    33  O   -0.459028
    34  O   -0.458826
 Sum of Mulliken charges =  -0.00000

 Dipole moment (field-independent basis, Debye):
    X=              4.9958    Y=              1.7303    Z=             -1.1801  Tot=              5.4171
 Quadrupole moment (field-independent basis, Debye-Ang):
   XX=            -68.3329   YY=            -93.8155   ZZ=            -94.0840
   XY=              2.5195   XZ=             -4.1128   YZ=              4.0741

 Normal termination of Gaussian 16 at Wed May  5 20:24:11 2021.
