 Gaussian 16, Revision A.03,
 Gaussian 16:  EM64L-G16RevA.03 25-Dec-2016

 -------------
 #p 6-31g* mp2
 -------------

 ------------------------------------------------------
 Input file generated by CHIRIPA (05-May-2021 14:53:14)
 ------------------------------------------------------
 Symbolic Z-matrix:
 Charge =  0 Multiplicity = 1

                         Standard orientation:
 ---------------------------------------------------------------------
 Center     Atomic      Atomic             Coordinates (Angstroms)
 Number     Number       Type             X           Y           Z
 ---------------------------------------------------------------------
      1          6           0       -2.507870    1.037585   -0.332713
      2          6           0       -1.608963    1.749170   -1.344444
      3          6           0       -1.435467    3.236912   -1.037334
      4          1           0       -3.491144    1.527360   -0.317289
      5          1           0       -2.082818    1.158115    0.673367
      6          1           0       -2.034848    1.626158   -2.348489
      7          1           0       -0.627777    1.257524   -1.357600
      8          1           0       -0.989011    3.376431   -0.047479
      9          1           0       -2.404077    3.747159   -1.043997
     10          1           0       -0.789302    3.726002   -1.772943
     11          6           0       -2.690933   -0.450371   -0.626317
     12          6           0       -3.589840   -1.161956    0.385413
     13          6           0       -3.763335   -2.649698    0.078303
     14          1           0       -3.115984   -0.570901   -1.632398
     15          1           0       -1.707659   -0.940146   -0.641742
     16          1           0       -4.571026   -0.670310    0.398570
     17          1           0       -3.163955   -1.038944    1.389458
     18          1           0       -2.794726   -3.159945    0.084967
     19          1           0       -4.209792   -2.789217   -0.911552
     20          1           0       -4.409501   -3.138788    0.813912
     21          6           0        0.485422    0.824033    2.068168
     22          6           0        0.206483   -0.450310    1.563428
     23          6           0        1.055733   -1.043723    0.624712
     24          6           0        2.180182   -0.331221    0.210896
     25          6           0        2.485120    0.939912    0.695174
     26          6           0        1.621845    1.513861    1.633199
     27          1           0       -0.179743    1.277450    2.797117
     28          1           0       -0.675356   -0.988371    1.899424
     29          1           0        0.863635   -2.028977    0.217541
     30          1           0        3.371782    1.451708    0.341180
     31          1           0        1.840972    2.503669    2.023465
     32          7           0        3.086668   -0.949138   -0.782514
     33          8           0        4.070892   -0.300679   -1.130998
     34          8           0        2.795782   -2.070218   -1.193855
 ---------------------------------------------------------------------

 SCF Done:  E(RHF) =  -669.533729955     A.U. after   15 cycles
 E2 =    -0.2096774844D+01 EUMP2 =    -0.67163050479901D+03

 The electronic state is 1-A.
 Alpha  occ. eigenvalues --  -20.60867 -20.60861 -15.85922 -11.31344 -11.27893
 Alpha  occ. eigenvalues --  -11.27889 -11.27632 -11.26931 -11.26892 -11.22363
 Alpha  occ. eigenvalues --  -11.21872 -11.21845 -11.21764 -11.21715 -11.21408
 Alpha  occ. eigenvalues --   -1.59942  -1.39493  -1.19522  -1.09033  -1.08810
 Alpha  occ. eigenvalues --   -1.04925  -1.04025  -0.96466  -0.95731  -0.87488
 Alpha  occ. eigenvalues --   -0.86321  -0.82560  -0.80102  -0.78733  -0.77602
 Alpha  occ. eigenvalues --   -0.72138  -0.71267  -0.70622  -0.65845  -0.65169
 Alpha  occ. eigenvalues --   -0.64763  -0.62289  -0.61392  -0.59836  -0.58071
 Alpha  occ. eigenvalues --   -0.55805  -0.55414  -0.53253  -0.53133  -0.52989
 Alpha  occ. eigenvalues --   -0.52869  -0.50420  -0.48904  -0.48890  -0.48406
 Alpha  occ. eigenvalues --   -0.47167  -0.46272  -0.46202  -0.44886  -0.44259
 Alpha  occ. eigenvalues --   -0.37413  -0.36437
 Alpha virt. eigenvalues --    0.04879   0.10994   0.16236   0.19187   0.23103
 Alpha virt. eigenvalues --    0.23435   0.25491   0.25871   0.27518   0.28293
 Alpha virt. eigenvalues --    0.29607   0.29800   0.31057   0.31353   0.32020

 Mulliken charges:
               1
     1  C   -0.296642
     2  C   -0.301007
     3  C   -0.475447
     4  H    0.149417
     5  H    0.142885
     6  H    0.153805
     7  H    0.157421
     8  H    0.149113
     9  H    0.154628
    10  H    0.162366
    11  C   -0.303089
    12  C   -0.301944
    13  C   -0.475197
    14  H    0.154392
    15  H    0.150008
    16  H    0.156217
    17  H    0.140058
    18  H    0.151677
    19  H    0.160370
    20  H    0.161759
    21  C   -0.172641
    22  C   -0.216200
    23  C   -0.173988
    24  C    0.158399
    25  C   -0.171530
    26  C   -0.218118
    27  H    0.226694
    28  H    0.230992
    29  H    0.276225
    30  H    0.276423
    31  H    0.224647
    32  N    0.487997
    33  O   -0.459849
    34  O   -0.459840
 Sum of Mulliken charges =  -0.00000

 Dipole moment (field-independent basis, Debye):
    X=             -3.1335    Y=              2.1526    Z=              3.4217  Tot=              5.1147
 Quadrupole moment (field-independent basis, Debye-Ang):
   XX=           -106.6861   YY=            -94.4069   ZZ=            -93.5708
   XY=              8.4002   XZ=              7.8793   YZ=             -0.6804

 Normal termination of Gaussian 16 at Wed May  5 23:28:26 2021.
