 Gaussian 16, Revision A.03,
 Gaussian 16:  EM64L-G16RevA.03 25-Dec-2016

 -------------
 #p 6-31g* mp2
 -------------

 ------------------------------------------------------
 Input file generated by CHIRIPA (05-May-2021 14:55:22)
 ------------------------------------------------------
 Symbolic Z-matrix:
 Charge =  0 Multiplicity = 1

                         Standard orientation:
 ---------------------------------------------------------------------
 Center     Atomic      Atomic             Coordinates (Angstroms)
 Number     Number       Type             X           Y           Z
 ---------------------------------------------------------------------
      1          6           0        0.496645   -2.765817    0.547594
      2          6           0        1.013985   -2.546968   -0.733416
      3          6           0        1.751189   -1.392635   -1.013759
      4          6           0        1.952841   -0.474017    0.015206
      5          6           0        1.450341   -0.663613    1.301610
      6          6           0        0.716088   -1.825099    1.559235
      7          1           0       -0.074887   -3.665309    0.756548
      8          1           0        0.845134   -3.275817   -1.521015
      9          1           0        2.163111   -1.198107   -1.996560
     10          1           0        1.635212    0.081108    2.066222
     11          1           0        0.315512   -1.992429    2.555019
     12          7           0        2.731725    0.751810   -0.269556
     13          8           0        2.895406    1.545774    0.654276
     14          8           0        3.163784    0.895437   -1.411192
     15          6           0       -2.899360    0.410667   -0.321541
     16          6           0       -2.678040   -1.063559    0.018549
     17          6           0       -3.814895   -1.960557   -0.472112
     18          1           0       -3.848222    0.743953    0.120640
     19          1           0       -3.007488    0.516461   -1.409893
     20          1           0       -2.568981   -1.166360    1.105818
     21          1           0       -1.729499   -1.393323   -0.424331
     22          1           0       -3.921360   -1.887593   -1.559283
     23          1           0       -4.765612   -1.659341   -0.020439
     24          1           0       -3.636216   -3.010113   -0.218406
     25          6           0       -1.771288    1.320017    0.162468
     26          6           0       -1.992609    2.794243   -0.177622
     27          6           0       -0.855753    3.691240    0.313038
     28          1           0       -1.663160    1.214223    1.250820
     29          1           0       -0.822425    0.986732   -0.279713
     30          1           0       -2.941149    3.124006    0.265259
     31          1           0       -2.101667    2.897043   -1.264891
     32          1           0        0.094963    3.390025   -0.138634
     33          1           0       -0.749287    3.618277    1.400210
     34          1           0       -1.034432    4.740796    0.059334
 ---------------------------------------------------------------------

 SCF Done:  E(RHF) =  -669.533902430     A.U. after   15 cycles
 E2 =    -0.2095946417D+01 EUMP2 =    -0.67162984884686D+03

 The electronic state is 1-A.
 Alpha  occ. eigenvalues --  -20.60884 -20.60861 -15.85922 -11.31269 -11.27885
 Alpha  occ. eigenvalues --  -11.27842 -11.27568 -11.26844 -11.26800 -11.21725
 Alpha  occ. eigenvalues --  -11.21464 -11.21455 -11.21366 -11.21294 -11.20562
 Alpha  occ. eigenvalues --   -1.59948  -1.39499  -1.19470  -1.08868  -1.08431
 Alpha  occ. eigenvalues --   -1.04858  -1.03510  -0.95960  -0.95685  -0.86965
 Alpha  occ. eigenvalues --   -0.86254  -0.82516  -0.79597  -0.78255  -0.77563
 Alpha  occ. eigenvalues --   -0.72135  -0.71274  -0.70561  -0.65111  -0.65087
 Alpha  occ. eigenvalues --   -0.64851  -0.62200  -0.60918  -0.59405  -0.57569
 Alpha  occ. eigenvalues --   -0.55352  -0.55239  -0.53389  -0.52943  -0.52586
 Alpha  occ. eigenvalues --   -0.52385  -0.49902  -0.48898  -0.48893  -0.47897
 Alpha  occ. eigenvalues --   -0.46635  -0.45755  -0.45591  -0.44871  -0.43764
 Alpha  occ. eigenvalues --   -0.37285  -0.36434
 Alpha virt. eigenvalues --    0.04943   0.11103   0.16371   0.20943   0.22931
 Alpha virt. eigenvalues --    0.24116   0.26128   0.26929   0.27536   0.27964
 Alpha virt. eigenvalues --    0.28508   0.30632   0.31247   0.31888   0.32208

 Mulliken charges:
               1
     1  C   -0.169583
     2  C   -0.220189
     3  C   -0.172188
     4  C    0.158585
     5  C   -0.168409
     6  C   -0.212980
     7  H    0.226683
     8  H    0.224179
     9  H    0.276083
    10  H    0.276097
    11  H    0.223597
    12  N    0.487557
    13  O   -0.459361
    14  O   -0.460541
    15  C   -0.297474
    16  C   -0.305069
    17  C   -0.474922
    18  H    0.148914
    19  H    0.149557
    20  H    0.144192
    21  H    0.160889
    22  H    0.155804
    23  H    0.156596
    24  H    0.152199
    25  C   -0.298662
    26  C   -0.300239
    27  C   -0.477260
    28  H    0.144440
    29  H    0.151091
    30  H    0.149771
    31  H    0.152055
    32  H    0.165274
    33  H    0.153277
    34  H    0.160036
 Sum of Mulliken charges =  -0.00000

 Dipole moment (field-independent basis, Debye):
    X=             -2.5477    Y=             -4.2920    Z=              1.0056  Tot=              5.0915
 Quadrupole moment (field-independent basis, Debye-Ang):
   XX=           -107.1144   YY=            -91.3001   ZZ=            -89.6144
   XY=             -8.1054   XZ=              0.7083   YZ=              0.8733

 Normal termination of Gaussian 16 at Wed May  5 22:19:01 2021.
