 Gaussian 16, Revision A.03,
 Gaussian 16:  EM64L-G16RevA.03 25-Dec-2016

 -------------
 #p 6-31g* mp2
 -------------

 ------------------------------------------------------
 Input file generated by CHIRIPA (05-May-2021 14:55:25)
 ------------------------------------------------------
 Symbolic Z-matrix:
 Charge =  0 Multiplicity = 1

                         Standard orientation:
 ---------------------------------------------------------------------
 Center     Atomic      Atomic             Coordinates (Angstroms)
 Number     Number       Type             X           Y           Z
 ---------------------------------------------------------------------
      1          6           0       -1.362481    1.278525    0.298350
      2          6           0       -2.203209    1.087919    1.399879
      3          6           0       -3.393854    0.367141    1.268007
      4          6           0       -3.714254   -0.151435    0.014327
      5          6           0       -2.897439    0.021456   -1.102012
      6          6           0       -1.711664    0.745625   -0.946885
      7          1           0       -0.439451    1.839760    0.409824
      8          1           0       -1.934572    1.500632    2.368149
      9          1           0       -4.063091    0.204565    2.104135
     10          1           0       -3.192030   -0.402010   -2.054541
     11          1           0       -1.060670    0.892079   -1.804091
     12          7           0       -4.972159   -0.916285   -0.137590
     13          8           0       -5.231804   -1.362976   -1.252798
     14          8           0       -5.674641   -1.054601    0.861422
     15          6           0        3.883921    0.433590   -0.288241
     16          6           0        3.997406    1.930794    0.000701
     17          6           0        2.779529    2.719795   -0.481010
     18          1           0        3.752277    0.284079   -1.368639
     19          1           0        2.977769    0.041790    0.194229
     20          1           0        4.903811    2.319373   -0.481015
     21          1           0        4.128987    2.076747    1.080516
     22          1           0        1.868944    2.359773    0.008706
     23          1           0        2.648171    2.603777   -1.561698
     24          1           0        2.881691    3.787735   -0.264385
     25          6           0        5.093834   -0.368622    0.187467
     26          6           0        4.980350   -1.865825   -0.101475
     27          6           0        6.198227   -2.654827    0.380237
     28          1           0        5.999986    0.023178   -0.295003
     29          1           0        5.225478   -0.219110    1.267865
     30          1           0        4.848768   -2.011779   -1.181289
     31          1           0        4.073944   -2.254405    0.380242
     32          1           0        6.329585   -2.538809    1.460924
     33          1           0        7.108811   -2.294805   -0.109479
     34          1           0        6.096065   -3.722767    0.163611
 ---------------------------------------------------------------------

 SCF Done:  E(RHF) =  -669.535546693     A.U. after   15 cycles
 E2 =    -0.2090832366D+01 EUMP2 =    -0.67162637905946D+03

 The electronic state is 1-A.
 Alpha  occ. eigenvalues --  -20.60733 -20.60728 -15.85786 -11.31146 -11.27716
 Alpha  occ. eigenvalues --  -11.27709 -11.27434 -11.26730 -11.26712 -11.22513
 Alpha  occ. eigenvalues --  -11.22307 -11.22177 -11.22095 -11.21976 -11.21467
 Alpha  occ. eigenvalues --   -1.59809  -1.39362  -1.19317  -1.09153  -1.08711
 Alpha  occ. eigenvalues --   -1.04720  -1.04272  -0.96743  -0.95549  -0.87763
 Alpha  occ. eigenvalues --   -0.86115  -0.82384  -0.80346  -0.78931  -0.77430
 Alpha  occ. eigenvalues --   -0.72004  -0.71132  -0.70445  -0.65782  -0.64968
 Alpha  occ. eigenvalues --   -0.64723  -0.62068  -0.61676  -0.60118  -0.58339
 Alpha  occ. eigenvalues --   -0.56125  -0.55183  -0.53426  -0.53149  -0.53049
 Alpha  occ. eigenvalues --   -0.52810  -0.50686  -0.48767  -0.48760  -0.48650
 Alpha  occ. eigenvalues --   -0.47368  -0.46481  -0.46379  -0.44769  -0.44505
 Alpha  occ. eigenvalues --   -0.37294  -0.36326
 Alpha virt. eigenvalues --    0.05100   0.11328   0.16572   0.19595   0.22439
 Alpha virt. eigenvalues --    0.23785   0.25181   0.26239   0.27064   0.27361
 Alpha virt. eigenvalues --    0.28776   0.30220   0.30981   0.31406   0.32333

 Mulliken charges:
               1
     1  C   -0.177480
     2  C   -0.220729
     3  C   -0.170740
     4  C    0.158310
     5  C   -0.170900
     6  C   -0.221664
     7  H    0.236731
     8  H    0.223699
     9  H    0.275372
    10  H    0.275496
    11  H    0.224160
    12  N    0.487992
    13  O   -0.460526
    14  O   -0.460566
    15  C   -0.298979
    16  C   -0.299404
    17  C   -0.480686
    18  H    0.149965
    19  H    0.147593
    20  H    0.156079
    21  H    0.153608
    22  H    0.145461
    23  H    0.156962
    24  H    0.165012
    25  C   -0.298747
    26  C   -0.300278
    27  C   -0.476125
    28  H    0.151067
    29  H    0.150514
    30  H    0.152477
    31  H    0.152649
    32  H    0.155735
    33  H    0.155840
    34  H    0.162104
 Sum of Mulliken charges =  -0.00000

 Dipole moment (field-independent basis, Debye):
    X=              4.6632    Y=              2.6812    Z=              0.5189  Tot=              5.4040
 Quadrupole moment (field-independent basis, Debye-Ang):
   XX=           -127.8100   YY=            -96.5908   ZZ=            -89.3010
   XY=            -10.1971   XZ=             -3.7539   YZ=              0.8068

 Normal termination of Gaussian 16 at Thu May  6 01:37:54 2021.
