 Gaussian 16, Revision A.03,
 Gaussian 16:  EM64L-G16RevA.03 25-Dec-2016

 -------------
 #p 6-31g* mp2
 -------------

 ------------------------------------------------------
 Input file generated by CHIRIPA (05-May-2021 14:55:22)
 ------------------------------------------------------
 Symbolic Z-matrix:
 Charge =  0 Multiplicity = 1

                         Standard orientation:
 ---------------------------------------------------------------------
 Center     Atomic      Atomic             Coordinates (Angstroms)
 Number     Number       Type             X           Y           Z
 ---------------------------------------------------------------------
      1          6           0        3.829663   -1.432131   -1.216055
      2          6           0        2.526444   -1.199464   -1.667727
      3          6           0        1.760819   -0.163773   -1.123934
      4          6           0        2.332425    0.623401   -0.125478
      5          6           0        3.628030    0.416609    0.345622
      6          6           0        4.375334   -0.624776   -0.212591
      7          1           0        4.417302   -2.238893   -1.644087
      8          1           0        2.100084   -1.824874   -2.446909
      9          1           0        0.749419    0.038429   -1.454996
     10          1           0        4.025817    1.056826    1.123636
     11          1           0        5.387170   -0.803155    0.140134
     12          7           0        1.531590    1.722854    0.457844
     13          8           0        2.058165    2.402191    1.336398
     14          8           0        0.392485    1.884450    0.025453
     15          6           0       -2.733960   -1.193445    0.397467
     16          6           0       -1.728846   -1.050649    1.540856
     17          6           0       -0.895081   -2.314070    1.756253
     18          1           0       -3.399279   -2.042334    0.606477
     19          1           0       -2.194134   -1.439728   -0.527373
     20          1           0       -2.270277   -0.803348    2.462979
     21          1           0       -1.065965   -0.201884    1.329192
     22          1           0       -0.329595   -2.561269    0.851974
     23          1           0       -1.540751   -3.166150    1.992202
     24          1           0       -0.183192   -2.189988    2.578249
     25          6           0       -3.574937    0.061420    0.169872
     26          6           0       -4.580050   -0.081377   -0.973518
     27          6           0       -5.413816    1.182045   -1.188914
     28          1           0       -4.114762    0.307702    1.094712
     29          1           0       -2.909618    0.910308   -0.039138
     30          1           0       -5.242932   -0.930141   -0.761853
     31          1           0       -4.038619   -0.328679   -1.895639
     32          1           0       -4.768146    2.034124   -1.424863
     33          1           0       -5.979301    1.429244   -0.284634
     34          1           0       -6.125704    1.057962   -2.010910
 ---------------------------------------------------------------------

 SCF Done:  E(RHF) =  -669.536586045     A.U. after   15 cycles
 E2 =    -0.2092272913D+01 EUMP2 =    -0.67162885895844D+03

 The electronic state is 1-A.
 Alpha  occ. eigenvalues --  -20.61035 -20.61028 -15.86042 -11.31324 -11.27894
 Alpha  occ. eigenvalues --  -11.27878 -11.27610 -11.26888 -11.26874 -11.21148
 Alpha  occ. eigenvalues --  -11.20996 -11.20938 -11.20790 -11.20698 -11.20599
 Alpha  occ. eigenvalues --   -1.60079  -1.39639  -1.19489  -1.08900  -1.07910
 Alpha  occ. eigenvalues --   -1.04881  -1.03064  -0.95749  -0.95534  -0.86550
 Alpha  occ. eigenvalues --   -0.86283  -0.82588  -0.79112  -0.77731  -0.77620
 Alpha  occ. eigenvalues --   -0.72271  -0.71388  -0.70598  -0.65152  -0.64892
 Alpha  occ. eigenvalues --   -0.64528  -0.62231  -0.60464  -0.58899  -0.57136
 Alpha  occ. eigenvalues --   -0.55386  -0.54839  -0.53201  -0.52973  -0.52242
 Alpha  occ. eigenvalues --   -0.51956  -0.49481  -0.49041  -0.49021  -0.47449
 Alpha  occ. eigenvalues --   -0.46205  -0.45411  -0.45267  -0.44655  -0.43303
 Alpha  occ. eigenvalues --   -0.37458  -0.36472
 Alpha virt. eigenvalues --    0.04843   0.11137   0.16307   0.20742   0.22983
 Alpha virt. eigenvalues --    0.24598   0.26378   0.27457   0.28070   0.28115
 Alpha virt. eigenvalues --    0.28989   0.31071   0.31666   0.32094   0.32379

 Mulliken charges:
               1
     1  C   -0.170172
     2  C   -0.218882
     3  C   -0.171099
     4  C    0.158754
     5  C   -0.170552
     6  C   -0.218374
     7  H    0.226293
     8  H    0.224186
     9  H    0.276185
    10  H    0.275879
    11  H    0.224022
    12  N    0.488537
    13  O   -0.457403
    14  O   -0.460190
    15  C   -0.294657
    16  C   -0.309250
    17  C   -0.475409
    18  H    0.146695
    19  H    0.139588
    20  H    0.152363
    21  H    0.167337
    22  H    0.148283
    23  H    0.153194
    24  H    0.159463
    25  C   -0.303687
    26  C   -0.298498
    27  C   -0.475826
    28  H    0.149241
    29  H    0.165972
    30  H    0.149212
    31  H    0.147568
    32  H    0.158522
    33  H    0.155254
    34  H    0.157450
 Sum of Mulliken charges =  -0.00000

 Dipole moment (field-independent basis, Debye):
    X=              3.0104    Y=             -3.6475    Z=             -2.0184  Tot=              5.1421
 Quadrupole moment (field-independent basis, Debye-Ang):
   XX=            -79.0435   YY=           -100.8481   ZZ=            -92.6659
   XY=             -6.0264   XZ=             -3.4386   YZ=              0.2992

 Normal termination of Gaussian 16 at Thu May  6 17:33:12 2021.
