 Gaussian 16, Revision A.03,
 Gaussian 16:  EM64L-G16RevA.03 25-Dec-2016

 -------------
 #p 6-31g* mp2
 -------------

 ------------------------------------------------------
 Input file generated by CHIRIPA (05-May-2021 14:57:23)
 ------------------------------------------------------
 Symbolic Z-matrix:
 Charge =  0 Multiplicity = 1

                         Standard orientation:
 ---------------------------------------------------------------------
 Center     Atomic      Atomic             Coordinates (Angstroms)
 Number     Number       Type             X           Y           Z
 ---------------------------------------------------------------------
      1          6           0       -2.279158    2.176237    0.462061
      2          6           0       -2.214389    1.536077   -0.779922
      3          6           0       -3.014190    0.420797   -1.046413
      4          6           0       -3.871339   -0.029576   -0.043543
      5          6           0       -3.958580    0.586684    1.203815
      6          6           0       -3.149513    1.700337    1.448227
      7          1           0       -1.654254    3.041981    0.660502
      8          1           0       -1.539386    1.903468   -1.547672
      9          1           0       -2.984085   -0.093805   -1.999144
     10          1           0       -4.641208    0.197278    1.949334
     11          1           0       -3.201914    2.195500    2.413686
     12          7           0       -4.722958   -1.209412   -0.313978
     13          8           0       -5.469875   -1.586627    0.586278
     14          8           0       -4.627414   -1.734610   -1.421080
     15          6           0        1.221695    0.069646   -0.121047
     16          6           0        1.805648   -0.692718    0.895969
     17          6           0        3.194894   -0.829573    0.972218
     18          6           0        3.973571   -0.187547    0.010575
     19          6           0        3.421562    0.578846   -1.014714
     20          6           0        2.030091    0.701881   -1.071467
     21          1           0        0.141632    0.170590   -0.172706
     22          1           0        1.180311   -1.184840    1.635438
     23          1           0        3.673261   -1.413743    1.748959
     24          1           0        4.070995    1.057611   -1.737512
     25          1           0        1.579343    1.294574   -1.862406
     26          7           0        5.445481   -0.325113    0.080977
     27          8           0        6.109488    0.250479   -0.778339
     28          8           0        5.907286   -1.005927    0.994140
 ---------------------------------------------------------------------

 SCF Done:  E(RHF) =  -868.336920371     A.U. after   16 cycles
 E2 =    -0.2601114289D+01 EUMP2 =    -0.87093803465994D+03

 The electronic state is 1-A.
 Alpha  occ. eigenvalues --  -20.61662 -20.61656 -20.61013 -20.61005 -15.86727
 Alpha  occ. eigenvalues --  -15.86070 -11.32320 -11.31479 -11.28979 -11.28890
 Alpha  occ. eigenvalues --  -11.28702 -11.28109 -11.28048 -11.28040 -11.27895
 Alpha  occ. eigenvalues --  -11.27690 -11.27158 -11.27025  -1.60735  -1.60087
 Alpha  occ. eigenvalues --   -1.40281  -1.39639  -1.20549  -1.19666  -1.09886
 Alpha  occ. eigenvalues --   -1.09042  -1.05983  -1.05088  -0.96665  -0.95868
 Alpha  occ. eigenvalues --   -0.87351  -0.86483  -0.83494  -0.82708  -0.78506
 Alpha  occ. eigenvalues --   -0.77756  -0.72934  -0.72285  -0.72069  -0.71584
 Alpha  occ. eigenvalues --   -0.71413  -0.70774  -0.66173  -0.65970  -0.65312
 Alpha  occ. eigenvalues --   -0.65108  -0.63288  -0.62440  -0.56416  -0.55809
 Alpha  occ. eigenvalues --   -0.54072  -0.54016  -0.53406  -0.53183  -0.49713
 Alpha  occ. eigenvalues --   -0.49677  -0.49049  -0.49037  -0.45635  -0.45035
 Alpha  occ. eigenvalues --   -0.38541  -0.37622  -0.37584  -0.36706
 Alpha virt. eigenvalues --    0.04006   0.04816   0.09957   0.10941   0.15377
 Alpha virt. eigenvalues --    0.16308   0.19243   0.21709   0.24878   0.27259
 Alpha virt. eigenvalues --    0.27598   0.28686   0.29874   0.31128   0.31626

 Mulliken charges:
               1
     1  C   -0.170568
     2  C   -0.234827
     3  C   -0.171834
     4  C    0.158901
     5  C   -0.169700
     6  C   -0.219098
     7  H    0.231029
     8  H    0.223809
     9  H    0.279297
    10  H    0.279674
    11  H    0.228370
    12  N    0.487983
    13  O   -0.457197
    14  O   -0.457815
    15  C   -0.178981
    16  C   -0.221730
    17  C   -0.169943
    18  C    0.157928
    19  C   -0.169891
    20  C   -0.224119
    21  H    0.237134
    22  H    0.225574
    23  H    0.276648
    24  H    0.275721
    25  H    0.215388
    26  N    0.488033
    27  O   -0.460357
    28  O   -0.459430
 Sum of Mulliken charges =  -0.00000

 Dipole moment (field-independent basis, Debye):
    X=             -2.5101    Y=              4.6089    Z=              0.8613  Tot=              5.3183
 Quadrupole moment (field-independent basis, Debye-Ang):
   XX=           -168.5453   YY=           -104.5801   ZZ=            -97.5851
   XY=            -13.3732   XZ=             -7.5116   YZ=             -2.3242

 Normal termination of Gaussian 16 at Thu May  6 16:16:23 2021.
