 Gaussian 16, Revision A.03,
 Gaussian 16:  EM64L-G16RevA.03 25-Dec-2016

 -------------
 #p 6-31g* mp2
 -------------

 ------------------------------------------------------
 Input file generated by CHIRIPA (05-May-2021 14:55:21)
 ------------------------------------------------------
 Symbolic Z-matrix:
 Charge =  0 Multiplicity = 1

                         Standard orientation:
 ---------------------------------------------------------------------
 Center     Atomic      Atomic             Coordinates (Angstroms)
 Number     Number       Type             X           Y           Z
 ---------------------------------------------------------------------
      1          6           0       -1.459682   -2.394828    0.643923
      2          6           0       -2.821798   -2.566092    0.375916
      3          6           0       -3.617472   -1.474190    0.016466
      4          6           0       -3.015527   -0.219524   -0.065784
      5          6           0       -1.661244   -0.016739    0.195149
      6          6           0       -0.884766   -1.122941    0.552845
      7          1           0       -0.849039   -3.248598    0.922471
      8          1           0       -3.270981   -3.552696    0.445862
      9          1           0       -4.674472   -1.578408   -0.196389
     10          1           0       -1.241877    0.978984    0.117146
     11          1           0        0.172811   -0.986962    0.760420
     12          7           0       -3.847711    0.943993   -0.445388
     13          8           0       -3.293420    2.039033   -0.510863
     14          8           0       -5.038509    0.738886   -0.670260
     15          6           0        3.945911   -0.175678    0.152525
     16          6           0        5.006127   -0.650467   -0.841710
     17          6           0        5.519713   -2.056826   -0.531586
     18          1           0        4.367313   -0.198297    1.166849
     19          1           0        3.105378   -0.883402    0.147401
     20          1           0        5.843792    0.058684   -0.835724
     21          1           0        4.582213   -0.626533   -1.853807
     22          1           0        4.699026   -2.780994   -0.557148
     23          1           0        5.967774   -2.091884    0.466720
     24          1           0        6.276703   -2.376291   -1.254613
     25          6           0        3.422725    1.228569   -0.144281
     26          6           0        2.362509    1.703357    0.849954
     27          6           0        1.848923    3.109717    0.539830
     28          1           0        4.263257    1.936294   -0.139157
     29          1           0        3.001323    1.251188   -1.158605
     30          1           0        2.786423    1.679423    1.862051
     31          1           0        1.524843    0.994206    0.843968
     32          1           0        1.400862    3.144775   -0.458475
     33          1           0        2.669611    3.833885    0.565392
     34          1           0        1.091933    3.429182    1.262857
 ---------------------------------------------------------------------

 SCF Done:  E(RHF) =  -669.535365367     A.U. after   15 cycles
 E2 =    -0.2091819618D+01 EUMP2 =    -0.67162718498404D+03

 The electronic state is 1-A.
 Alpha  occ. eigenvalues --  -20.60740 -20.60735 -15.85793 -11.31157 -11.27728
 Alpha  occ. eigenvalues --  -11.27712 -11.27469 -11.26744 -11.26712 -11.22434
 Alpha  occ. eigenvalues --  -11.22214 -11.22151 -11.22045 -11.21640 -11.21547
 Alpha  occ. eigenvalues --   -1.59816  -1.39369  -1.19329  -1.09138  -1.08725
 Alpha  occ. eigenvalues --   -1.04737  -1.04174  -0.96592  -0.95560  -0.87602
 Alpha  occ. eigenvalues --   -0.86132  -0.82401  -0.80250  -0.78972  -0.77438
 Alpha  occ. eigenvalues --   -0.72012  -0.71139  -0.70441  -0.65813  -0.64981
 Alpha  occ. eigenvalues --   -0.64729  -0.62185  -0.61479  -0.59953  -0.58211
 Alpha  occ. eigenvalues --   -0.55876  -0.55234  -0.53267  -0.53062  -0.53012
 Alpha  occ. eigenvalues --   -0.52833  -0.50529  -0.48776  -0.48766  -0.48545
 Alpha  occ. eigenvalues --   -0.47295  -0.46487  -0.46412  -0.44775  -0.44432
 Alpha  occ. eigenvalues --   -0.37312  -0.36336
 Alpha virt. eigenvalues --    0.05093   0.11310   0.16579   0.18698   0.22799
 Alpha virt. eigenvalues --    0.23116   0.24347   0.26200   0.26738   0.28484
 Alpha virt. eigenvalues --    0.29430   0.30853   0.31178   0.31531   0.32275

 Mulliken charges:
               1
     1  C   -0.171159
     2  C   -0.218621
     3  C   -0.170910
     4  C    0.158920
     5  C   -0.174871
     6  C   -0.226143
     7  H    0.225840
     8  H    0.223303
     9  H    0.275480
    10  H    0.277794
    11  H    0.231569
    12  N    0.488133
    13  O   -0.460403
    14  O   -0.460635
    15  C   -0.298953
    16  C   -0.300241
    17  C   -0.475817
    18  H    0.151401
    19  H    0.141329
    20  H    0.154799
    21  H    0.153800
    22  H    0.152769
    23  H    0.155913
    24  H    0.162823
    25  C   -0.298802
    26  C   -0.305255
    27  C   -0.478380
    28  H    0.153912
    29  H    0.152093
    30  H    0.155336
    31  H    0.141860
    32  H    0.159327
    33  H    0.159015
    34  H    0.164773
 Sum of Mulliken charges =  -0.00000

 Dipole moment (field-independent basis, Debye):
    X=              3.1224    Y=             -3.9645    Z=              1.3058  Tot=              5.2126
 Quadrupole moment (field-independent basis, Debye-Ang):
   XX=           -108.3404   YY=            -91.9164   ZZ=            -95.4076
   XY=             15.6574   XZ=             -3.6324   YZ=              0.5732

 Normal termination of Gaussian 16 at Wed May  5 22:15:05 2021.
