 Gaussian 16, Revision A.03,
 Gaussian 16:  EM64L-G16RevA.03 25-Dec-2016

 -------------
 #p 6-31g* mp2
 -------------

 ------------------------------------------------------
 Input file generated by CHIRIPA (05-May-2021 14:55:25)
 ------------------------------------------------------
 Symbolic Z-matrix:
 Charge =  0 Multiplicity = 1

                         Standard orientation:
 ---------------------------------------------------------------------
 Center     Atomic      Atomic             Coordinates (Angstroms)
 Number     Number       Type             X           Y           Z
 ---------------------------------------------------------------------
      1          6           0       -1.299992    0.945466   -0.128717
      2          6           0       -1.665873   -0.331645   -0.566483
      3          6           0       -3.005780   -0.730377   -0.552000
      4          6           0       -3.958023    0.177511   -0.091280
      5          6           0       -3.624959    1.456749    0.351337
      6          6           0       -2.278976    1.834021    0.327990
      7          1           0       -0.256760    1.246876   -0.143411
      8          1           0       -0.907721   -1.023798   -0.921694
      9          1           0       -3.316803   -1.713056   -0.885203
     10          1           0       -4.403277    2.124696    0.699883
     11          1           0       -1.997739    2.826473    0.668562
     12          7           0       -5.379739   -0.233249   -0.071256
     13          8           0       -6.199624    0.585196    0.339322
     14          8           0       -5.647274   -1.365870   -0.466517
     15          6           0        5.513029   -0.357815   -0.033746
     16          6           0        6.182668    1.008606   -0.183611
     17          6           0        7.676342    0.904162   -0.493162
     18          1           0        6.016040   -0.919939    0.764966
     19          1           0        5.657352   -0.932566   -0.959071
     20          1           0        6.035933    1.581135    0.741211
     21          1           0        5.677881    1.567617   -0.981930
     22          1           0        7.838886    0.355580   -1.426564
     23          1           0        8.198972    0.369175    0.306367
     24          1           0        8.135048    1.892507   -0.596230
     25          6           0        4.019662   -0.269921    0.275871
     26          6           0        3.350024   -1.636343    0.425736
     27          6           0        1.856349   -1.531897    0.735288
     28          1           0        3.875338    0.304830    1.201196
     29          1           0        3.516651    0.292203   -0.522841
     30          1           0        3.854810   -2.195352    1.224055
     31          1           0        3.496758   -2.208871   -0.499086
     32          1           0        1.333719   -0.996912   -0.064242
     33          1           0        1.693805   -0.983316    1.668689
     34          1           0        1.397643   -2.520243    0.838355
 ---------------------------------------------------------------------

 SCF Done:  E(RHF) =  -669.535189552     A.U. after   15 cycles
 E2 =    -0.2091332575D+01 EUMP2 =    -0.67162652212659D+03

 The electronic state is 1-A.
 Alpha  occ. eigenvalues --  -20.60704 -20.60698 -15.85756 -11.31105 -11.27675
 Alpha  occ. eigenvalues --  -11.27662 -11.27395 -11.26688 -11.26641 -11.22516
 Alpha  occ. eigenvalues --  -11.22268 -11.22256 -11.22211 -11.22059 -11.21570
 Alpha  occ. eigenvalues --   -1.59779  -1.39333  -1.19274  -1.09222  -1.08672
 Alpha  occ. eigenvalues --   -1.04678  -1.04326  -0.96800  -0.95510  -0.87825
 Alpha  occ. eigenvalues --   -0.86074  -0.82342  -0.80403  -0.79016  -0.77394
 Alpha  occ. eigenvalues --   -0.71976  -0.71102  -0.70388  -0.65862  -0.64929
 Alpha  occ. eigenvalues --   -0.64710  -0.62096  -0.61661  -0.60169  -0.58386
 Alpha  occ. eigenvalues --   -0.56098  -0.55175  -0.53501  -0.53264  -0.52973
 Alpha  occ. eigenvalues --   -0.52735  -0.50725  -0.48755  -0.48731  -0.48683
 Alpha  occ. eigenvalues --   -0.47420  -0.46563  -0.46464  -0.44743  -0.44570
 Alpha  occ. eigenvalues --   -0.37244  -0.36275
 Alpha virt. eigenvalues --    0.05138   0.11338   0.16633   0.19878   0.22397
 Alpha virt. eigenvalues --    0.23818   0.25477   0.26209   0.26621   0.27810
 Alpha virt. eigenvalues --    0.29112   0.30371   0.30911   0.31076   0.31511

 Mulliken charges:
               1
     1  C   -0.171406
     2  C   -0.219469
     3  C   -0.171698
     4  C    0.158486
     5  C   -0.171249
     6  C   -0.218913
     7  H    0.226271
     8  H    0.226585
     9  H    0.275297
    10  H    0.275246
    11  H    0.223034
    12  N    0.488033
    13  O   -0.460677
    14  O   -0.460641
    15  C   -0.298704
    16  C   -0.300123
    17  C   -0.476118
    18  H    0.151865
    19  H    0.150942
    20  H    0.152210
    21  H    0.151310
    22  H    0.156087
    23  H    0.156355
    24  H    0.161642
    25  C   -0.298789
    26  C   -0.300057
    27  C   -0.478854
    28  H    0.149927
    29  H    0.145266
    30  H    0.156490
    31  H    0.153804
    32  H    0.143716
    33  H    0.159427
    34  H    0.164702
 Sum of Mulliken charges =  -0.00000

 Dipole moment (field-independent basis, Debye):
    X=              5.2522    Y=              1.3861    Z=             -0.0065  Tot=              5.4320
 Quadrupole moment (field-independent basis, Debye-Ang):
   XX=           -135.0969   YY=            -90.2419   ZZ=            -93.8218
   XY=             -6.4206   XZ=             -0.1438   YZ=              1.7405

 Normal termination of Gaussian 16 at Thu May  6 01:38:46 2021.
