 Gaussian 16, Revision A.03,
 Gaussian 16:  EM64L-G16RevA.03 25-Dec-2016

 -------------
 #p 6-31g* mp2
 -------------

 ------------------------------------------------------
 Input file generated by CHIRIPA (05-May-2021 14:53:14)
 ------------------------------------------------------
 Symbolic Z-matrix:
 Charge =  0 Multiplicity = 1

                         Standard orientation:
 ---------------------------------------------------------------------
 Center     Atomic      Atomic             Coordinates (Angstroms)
 Number     Number       Type             X           Y           Z
 ---------------------------------------------------------------------
      1          6           0        4.226676   -0.325414    0.002494
      2          6           0        5.375097   -0.841267   -0.865268
      3          6           0        5.622265   -2.339807   -0.688974
      4          1           0        4.447107   -0.540563    1.057039
      5          1           0        3.311303   -0.880576   -0.245060
      6          1           0        6.287720   -0.284346   -0.617126
      7          1           0        5.151995   -0.624694   -1.917854
      8          1           0        4.727674   -2.911800   -0.955681
      9          1           0        5.869852   -2.569518    0.352436
     10          1           0        6.447366   -2.687392   -1.318459
     11          6           0        3.967424    1.170992   -0.162691
     12          6           0        2.819003    1.686846    0.705070
     13          6           0        2.571835    3.185386    0.528776
     14          1           0        4.882796    1.726154    0.084863
     15          1           0        3.746992    1.386141   -1.217236
     16          1           0        3.042105    1.470273    1.757656
     17          1           0        1.906380    1.129924    0.456929
     18          1           0        2.324248    3.415096   -0.512634
     19          1           0        3.466426    3.757378    0.795484
     20          1           0        1.746733    3.532971    1.158261
     21          6           0       -1.317455   -1.685881    1.053168
     22          6           0       -2.532468   -2.302381    0.736633
     23          6           0       -3.582874   -1.561112    0.187348
     24          6           0       -3.382897   -0.199252   -0.033189
     25          6           0       -2.184163    0.443739    0.271587
     26          6           0       -1.147480   -0.317202    0.820046
     27          1           0       -0.506805   -2.269358    1.479546
     28          1           0       -2.667305   -3.365150    0.916594
     29          1           0       -4.533919   -2.013011   -0.067050
     30          1           0       -2.079598    1.504904    0.080764
     31          1           0       -0.204979    0.164240    1.064892
     32          7           0       -4.487650    0.595909   -0.614256
     33          8           0       -4.286271    1.794237   -0.798900
     34          8           0       -5.534017    0.005773   -0.874047
 ---------------------------------------------------------------------

 SCF Done:  E(RHF) =  -669.535623380     A.U. after   15 cycles
 E2 =    -0.2090985684D+01 EUMP2 =    -0.67162660906423D+03

 The electronic state is 1-A.
 Alpha  occ. eigenvalues --  -20.60743 -20.60738 -15.85797 -11.31159 -11.27732
 Alpha  occ. eigenvalues --  -11.27722 -11.27467 -11.26745 -11.26704 -11.22566
 Alpha  occ. eigenvalues --  -11.22190 -11.22134 -11.22078 -11.21793 -11.21616
 Alpha  occ. eigenvalues --   -1.59819  -1.39373  -1.19332  -1.09168  -1.08726
 Alpha  occ. eigenvalues --   -1.04735  -1.04243  -0.96661  -0.95562  -0.87676
 Alpha  occ. eigenvalues --   -0.86133  -0.82396  -0.80331  -0.78993  -0.77440
 Alpha  occ. eigenvalues --   -0.72015  -0.71142  -0.70439  -0.65815  -0.64982
 Alpha  occ. eigenvalues --   -0.64738  -0.62130  -0.61596  -0.60039  -0.58285
 Alpha  occ. eigenvalues --   -0.55934  -0.55233  -0.53359  -0.53093  -0.53063
 Alpha  occ. eigenvalues --   -0.52835  -0.50592  -0.48794  -0.48770  -0.48606
 Alpha  occ. eigenvalues --   -0.47354  -0.46516  -0.46435  -0.44779  -0.44493
 Alpha  occ. eigenvalues --   -0.37313  -0.36337
 Alpha virt. eigenvalues --    0.05090   0.11280   0.16556   0.19881   0.22529
 Alpha virt. eigenvalues --    0.23616   0.25122   0.26314   0.27183   0.28319
 Alpha virt. eigenvalues --    0.28787   0.30017   0.30957   0.31303   0.32087

 Mulliken charges:
               1
     1  C   -0.298602
     2  C   -0.300151
     3  C   -0.476088
     4  H    0.149162
     5  H    0.145635
     6  H    0.153824
     7  H    0.154010
     8  H    0.154186
     9  H    0.155032
    10  H    0.162683
    11  C   -0.297744
    12  C   -0.306748
    13  C   -0.476431
    14  H    0.152966
    15  H    0.152814
    16  H    0.152721
    17  H    0.145452
    18  H    0.158765
    19  H    0.159368
    20  H    0.159889
    21  C   -0.172750
    22  C   -0.218537
    23  C   -0.171105
    24  C    0.158692
    25  C   -0.173200
    26  C   -0.226733
    27  H    0.226256
    28  H    0.223282
    29  H    0.275500
    30  H    0.275698
    31  H    0.235106
    32  N    0.488096
    33  O   -0.460445
    34  O   -0.460602
 Sum of Mulliken charges =  -0.00000

 Dipole moment (field-independent basis, Debye):
    X=              4.0962    Y=             -2.7422    Z=              2.0066  Tot=              5.3221
 Quadrupole moment (field-independent basis, Debye-Ang):
   XX=           -118.7869   YY=            -91.2461   ZZ=            -95.1581
   XY=             12.1781   XZ=             -6.6377   YZ=             -0.0382

 Normal termination of Gaussian 16 at Wed May  5 17:05:56 2021.
