 Gaussian 16, Revision A.03,
 Gaussian 16:  EM64L-G16RevA.03 25-Dec-2016

 -------------
 #p 6-31g* mp2
 -------------

 ------------------------------------------------------
 Input file generated by CHIRIPA (05-May-2021 14:51:12)
 ------------------------------------------------------
 Symbolic Z-matrix:
 Charge =  0 Multiplicity = 1

                         Standard orientation:
 ---------------------------------------------------------------------
 Center     Atomic      Atomic             Coordinates (Angstroms)
 Number     Number       Type             X           Y           Z
 ---------------------------------------------------------------------
      1          6           0        2.628776    0.727377   -0.044585
      2          6           0        2.196553    2.179504    0.161561
      3          6           0        0.677190    2.350643    0.155159
      4          1           0        2.221199    0.361863   -0.997068
      5          1           0        2.185381    0.104581    0.744668
      6          1           0        2.641755    2.799596   -0.627043
      7          1           0        2.605367    2.541665    1.113573
      8          1           0        0.219202    1.756234    0.952358
      9          1           0        0.255796    2.015631   -0.798149
     10          1           0        0.390335    3.396295    0.304111
     11          6           0        4.144914    0.540189   -0.040628
     12          6           0        4.577137   -0.911938   -0.246774
     13          6           0        6.096500   -1.083077   -0.240372
     14          1           0        4.588309    1.162985   -0.829881
     15          1           0        4.552491    0.905703    0.911855
     16          1           0        4.168323   -1.274099   -1.198786
     17          1           0        4.131935   -1.532030    0.541831
     18          1           0        6.517893   -0.748065    0.712936
     19          1           0        6.554488   -0.488668   -1.037571
     20          1           0        6.383354   -2.128729   -0.389324
     21          6           0       -3.874065   -0.069739    0.209647
     22          6           0       -5.202792   -0.174438   -0.539692
     23          6           0       -6.166947    0.961064   -0.194967
     24          1           0       -4.069253   -0.068048    1.290778
     25          1           0       -3.404044    0.895450   -0.024627
     26          1           0       -5.669508   -1.139728   -0.305159
     27          1           0       -5.004405   -0.176072   -1.619162
     28          1           0       -5.725164    1.930955   -0.445444
     29          1           0       -6.394047    0.961824    0.876026
     30          1           0       -7.110332    0.866614   -0.741744
     31          6           0       -2.899624   -1.197827   -0.124434
     32          6           0       -1.570898   -1.093129    0.624904
     33          6           0       -0.606742   -2.228630    0.280181
     34          1           0       -3.369646   -2.163017    0.109840
     35          1           0       -2.704437   -1.199517   -1.205565
     36          1           0       -1.769285   -1.091493    1.704375
     37          1           0       -1.104181   -0.127838    0.390372
     38          1           0       -0.379643   -2.229391   -0.790812
     39          1           0       -1.048526   -3.198522    0.530657
     40          1           0        0.336642   -2.134179    0.826957
 ---------------------------------------------------------------------

 SCF Done:  E(RHF) =  -470.732979887     A.U. after   11 cycles
 E2 =    -0.1583445404D+01 EUMP2 =    -0.47231642529120D+03

 The electronic state is 1-A.
 Alpha  occ. eigenvalues --  -11.21642 -11.21607 -11.21557 -11.21453 -11.21426
 Alpha  occ. eigenvalues --  -11.21366 -11.21337 -11.21277 -11.21117 -11.21074
 Alpha  occ. eigenvalues --  -11.21034 -11.20991  -1.08459  -1.08357  -1.03570
 Alpha  occ. eigenvalues --   -1.03451  -0.96013  -0.95914  -0.87048  -0.86915
 Alpha  occ. eigenvalues --   -0.79681  -0.79480  -0.78296  -0.78144  -0.65092
 Alpha  occ. eigenvalues --   -0.64992  -0.60984  -0.60855  -0.59414  -0.59245
 Alpha  occ. eigenvalues --   -0.57636  -0.57520  -0.55309  -0.55198  -0.52705
 Alpha  occ. eigenvalues --   -0.52610  -0.52530  -0.52289  -0.49981  -0.49835
 Alpha  occ. eigenvalues --   -0.48114  -0.47721  -0.46700  -0.46481  -0.45907
 Alpha  occ. eigenvalues --   -0.45736  -0.45696  -0.45409  -0.43811  -0.43710
 Alpha virt. eigenvalues --    0.21250   0.22973   0.23694   0.24611   0.25691
 Alpha virt. eigenvalues --    0.26034   0.26778   0.27315   0.28891   0.29328
 Alpha virt. eigenvalues --    0.30913   0.31367   0.31725   0.31807   0.32145

 Mulliken charges:
               1
     1  C   -0.300611
     2  C   -0.299544
     3  C   -0.480383
     4  H    0.149975
     5  H    0.152079
     6  H    0.152006
     7  H    0.152079
     8  H    0.160411
     9  H    0.154708
    10  H    0.160718
    11  C   -0.298376
    12  C   -0.299562
    13  C   -0.475739
    14  H    0.149588
    15  H    0.149620
    16  H    0.152234
    17  H    0.151822
    18  H    0.155140
    19  H    0.155162
    20  H    0.160407
    21  C   -0.298635
    22  C   -0.299546
    23  C   -0.475677
    24  H    0.149328
    25  H    0.150176
    26  H    0.151796
    27  H    0.151741
    28  H    0.155244
    29  H    0.155074
    30  H    0.160047
    31  C   -0.297368
    32  C   -0.309671
    33  C   -0.475582
    34  H    0.149047
    35  H    0.148995
    36  H    0.150230
    37  H    0.163231
    38  H    0.154767
    39  H    0.154398
    40  H    0.160675
 Sum of Mulliken charges =  -0.00000

 Dipole moment (field-independent basis, Debye):
    X=              0.0440    Y=              0.0399    Z=             -0.0004  Tot=              0.0594
 Quadrupole moment (field-independent basis, Debye-Ang):
   XX=            -86.5630   YY=            -85.1723   ZZ=            -83.1806
   XY=              1.0813   XZ=             -0.1741   YZ=             -0.6667

 Normal termination of Gaussian 16 at Wed May  5 23:09:15 2021.
