 Gaussian 16, Revision A.03,
 Gaussian 16:  EM64L-G16RevA.03 25-Dec-2016

 -------------
 #p 6-31g* mp2
 -------------

 ------------------------------------------------------
 Input file generated by CHIRIPA (05-May-2021 14:57:25)
 ------------------------------------------------------
 Symbolic Z-matrix:
 Charge =  0 Multiplicity = 1

                         Standard orientation:
 ---------------------------------------------------------------------
 Center     Atomic      Atomic             Coordinates (Angstroms)
 Number     Number       Type             X           Y           Z
 ---------------------------------------------------------------------
      1          6           0        3.503763    2.614160   -0.670041
      2          6           0        4.744708    2.062978   -0.334220
      3          6           0        4.849297    0.716250    0.026245
      4          6           0        3.687343   -0.053786    0.040349
      5          6           0        2.436619    0.466280   -0.289060
      6          6           0        2.355703    1.815459   -0.646431
      7          1           0        3.431711    3.661282   -0.948857
      8          1           0        5.637982    2.680879   -0.351685
      9          1           0        5.797341    0.263875    0.290795
     10          1           0        1.563811   -0.174749   -0.262471
     11          1           0        1.390643    2.240824   -0.906755
     12          7           0        3.785536   -1.480804    0.420320
     13          8           0        2.746950   -2.138038    0.424996
     14          8           0        4.899225   -1.915047    0.706269
     15          6           0       -5.438898    1.535233    0.564664
     16          6           0       -5.711851    0.515134   -0.352623
     17          6           0       -4.739940   -0.441419   -0.660751
     18          6           0       -3.500261   -0.347362   -0.030161
     19          6           0       -3.198023    0.657035    0.888059
     20          6           0       -4.185065    1.602809    1.180990
     21          1           0       -6.199778    2.274119    0.798122
     22          1           0       -6.684711    0.460181   -0.832799
     23          1           0       -4.924527   -1.241693   -1.367084
     24          1           0       -2.218924    0.685765    1.350614
     25          1           0       -3.970284    2.393926    1.893765
     26          7           0       -2.463333   -1.354315   -0.348319
     27          8           0       -1.379031   -1.249460    0.220830
     28          8           0       -2.754526   -2.229355   -1.160815
 ---------------------------------------------------------------------

 SCF Done:  E(RHF) =  -868.337589709     A.U. after   15 cycles
 E2 =    -0.2599302790D+01 EUMP2 =    -0.87093689249936D+03

 The electronic state is 1-A.
 Alpha  occ. eigenvalues --  -20.61043 -20.61002 -20.59924 -20.59858 -15.86071
 Alpha  occ. eigenvalues --  -15.84949 -11.31472 -11.30461 -11.28063 -11.28019
 Alpha  occ. eigenvalues --  -11.27778 -11.27134 -11.27072 -11.27039 -11.26940
 Alpha  occ. eigenvalues --  -11.26932 -11.26186 -11.26134  -1.60086  -1.58978
 Alpha  occ. eigenvalues --   -1.39641  -1.38518  -1.19644  -1.18683  -1.09028
 Alpha  occ. eigenvalues --   -1.08070  -1.05052  -1.04103  -0.95855  -0.94860
 Alpha  occ. eigenvalues --   -0.86447  -0.85498  -0.82687  -0.81682  -0.77737
 Alpha  occ. eigenvalues --   -0.76679  -0.72273  -0.71414  -0.71158  -0.70747
 Alpha  occ. eigenvalues --   -0.70313  -0.69790  -0.65295  -0.65049  -0.64334
 Alpha  occ. eigenvalues --   -0.64121  -0.62398  -0.61414  -0.55542  -0.54644
 Alpha  occ. eigenvalues --   -0.53381  -0.53141  -0.52448  -0.52191  -0.49034
 Alpha  occ. eigenvalues --   -0.49021  -0.47959  -0.47893  -0.45036  -0.43892
 Alpha  occ. eigenvalues --   -0.37624  -0.36717  -0.36660  -0.35722
 Alpha virt. eigenvalues --    0.04769   0.05836   0.10993   0.11925   0.16233
 Alpha virt. eigenvalues --    0.17267   0.21077   0.22047   0.26971   0.27554
 Alpha virt. eigenvalues --    0.28230   0.29061   0.30762   0.31532   0.32228

 Mulliken charges:
               1
     1  C   -0.171294
     2  C   -0.219659
     3  C   -0.171102
     4  C    0.156418
     5  C   -0.178077
     6  C   -0.221614
     7  H    0.221665
     8  H    0.220471
     9  H    0.273928
    10  H    0.296459
    11  H    0.219534
    12  N    0.486331
    13  O   -0.450057
    14  O   -0.465834
    15  C   -0.170895
    16  C   -0.218413
    17  C   -0.170719
    18  C    0.158185
    19  C   -0.172888
    20  C   -0.218616
    21  H    0.226272
    22  H    0.224552
    23  H    0.276976
    24  H    0.273813
    25  H    0.223369
    26  N    0.489823
    27  O   -0.463291
    28  O   -0.455337
 Sum of Mulliken charges =  -0.00000

 Dipole moment (field-independent basis, Debye):
    X=             -4.3470    Y=              8.3400    Z=             -0.2305  Tot=              9.4078
 Quadrupole moment (field-independent basis, Debye-Ang):
   XX=            -75.9716   YY=           -108.1527   ZZ=           -104.2986
   XY=              9.2734   XZ=             -5.6941   YZ=              1.6722

 Normal termination of Gaussian 16 at Fri May  7 00:24:51 2021.
