 Gaussian 16, Revision A.03,
 Gaussian 16:  EM64L-G16RevA.03 25-Dec-2016

 -------------
 #p 6-31g* mp2
 -------------

 ------------------------------------------------------
 Input file generated by CHIRIPA (05-May-2021 14:53:13)
 ------------------------------------------------------
 Symbolic Z-matrix:
 Charge =  0 Multiplicity = 1

                         Standard orientation:
 ---------------------------------------------------------------------
 Center     Atomic      Atomic             Coordinates (Angstroms)
 Number     Number       Type             X           Y           Z
 ---------------------------------------------------------------------
      1          6           0        3.577306    0.875229    0.497329
      2          6           0        2.427834    1.313810   -0.410606
      3          6           0        1.405893    2.192106    0.311909
      4          1           0        3.168034    0.330736    1.359286
      5          1           0        4.078033    1.766672    0.899816
      6          1           0        1.930292    0.421809   -0.812356
      7          1           0        2.839904    1.857155   -1.270601
      8          1           0        1.882199    3.098876    0.698563
      9          1           0        0.967419    1.655375    1.159411
     10          1           0        0.592898    2.494196   -0.355654
     11          6           0        4.607120   -0.003410   -0.210629
     12          6           0        5.756592   -0.441991    0.697306
     13          6           0        6.778532   -1.320287   -0.025209
     14          1           0        4.106393   -0.894853   -0.613116
     15          1           0        5.016391    0.541083   -1.072587
     16          1           0        5.344522   -0.985336    1.557300
     17          1           0        6.254133    0.450010    1.099056
     18          1           0        7.217007   -0.783556   -0.872712
     19          1           0        6.302227   -2.227057   -0.411863
     20          1           0        7.591528   -1.622377    0.642354
     21          6           0       -5.505153    0.431258    0.553476
     22          6           0       -4.615435    1.325165   -0.051382
     23          6           0       -3.334074    0.908495   -0.424271
     24          6           0       -2.973902   -0.415170   -0.176327
     25          6           0       -3.837733   -1.329540    0.424518
     26          6           0       -5.114152   -0.890910    0.789080
     27          1           0       -6.498626    0.763467    0.839911
     28          1           0       -4.916373    2.352566   -0.235577
     29          1           0       -2.625326    1.579573   -0.894111
     30          1           0       -3.509097   -2.347510    0.595262
     31          1           0       -5.803027   -1.587327    1.258655
     32          7           0       -1.619997   -0.867904   -0.566680
     33          8           0       -1.326870   -2.039285   -0.337375
     34          8           0       -0.877571   -0.042803   -1.094554
 ---------------------------------------------------------------------

 SCF Done:  E(RHF) =  -669.536160945     A.U. after   15 cycles
 E2 =    -0.2091703423D+01 EUMP2 =    -0.67162786436820D+03

 The electronic state is 1-A.
 Alpha  occ. eigenvalues --  -20.61018 -20.60988 -15.86020 -11.31313 -11.27873
 Alpha  occ. eigenvalues --  -11.27869 -11.27606 -11.26874 -11.26863 -11.20811
 Alpha  occ. eigenvalues --  -11.20399 -11.20387 -11.20262 -11.20081 -11.19890
 Alpha  occ. eigenvalues --   -1.60059  -1.39616  -1.19478  -1.08890  -1.07369
 Alpha  occ. eigenvalues --   -1.04870  -1.02465  -0.95741  -0.94966  -0.86272
 Alpha  occ. eigenvalues --   -0.86003  -0.82572  -0.78557  -0.77630  -0.77146
 Alpha  occ. eigenvalues --   -0.72258  -0.71368  -0.70588  -0.65139  -0.64874
 Alpha  occ. eigenvalues --   -0.63990  -0.62218  -0.59849  -0.58346  -0.56547
 Alpha  occ. eigenvalues --   -0.55377  -0.54274  -0.53201  -0.52963  -0.51689
 Alpha  occ. eigenvalues --   -0.51400  -0.49112  -0.48995  -0.48878  -0.46864
 Alpha  occ. eigenvalues --   -0.45560  -0.45019  -0.44722  -0.44510  -0.42736
 Alpha  occ. eigenvalues --   -0.37455  -0.36468
 Alpha virt. eigenvalues --    0.04879   0.11183   0.16366   0.21149   0.23886
 Alpha virt. eigenvalues --    0.24989   0.26945   0.27642   0.27783   0.28658
 Alpha virt. eigenvalues --    0.29109   0.30603   0.31629   0.32361   0.32813

 Mulliken charges:
               1
     1  C   -0.297623
     2  C   -0.306370
     3  C   -0.468861
     4  H    0.148389
     5  H    0.143495
     6  H    0.179453
     7  H    0.144770
     8  H    0.144837
     9  H    0.150204
    10  H    0.159504
    11  C   -0.298423
    12  C   -0.298802
    13  C   -0.475279
    14  H    0.154116
    15  H    0.147179
    16  H    0.151249
    17  H    0.149273
    18  H    0.153807
    19  H    0.155948
    20  H    0.157447
    21  C   -0.170439
    22  C   -0.218677
    23  C   -0.170379
    24  C    0.157613
    25  C   -0.170605
    26  C   -0.218635
    27  H    0.226096
    28  H    0.224073
    29  H    0.276379
    30  H    0.275760
    31  H    0.223850
    32  N    0.490309
    33  O   -0.459503
    34  O   -0.460154
 Sum of Mulliken charges =  -0.00000

 Dipole moment (field-independent basis, Debye):
    X=             -5.1036    Y=              1.4207    Z=              1.2600  Tot=              5.4454
 Quadrupole moment (field-independent basis, Debye-Ang):
   XX=            -68.2496   YY=            -92.2548   ZZ=            -95.6238
   XY=             -1.2329   XZ=             -3.9415   YZ=             -3.3225

 Normal termination of Gaussian 16 at Thu May  6 12:03:05 2021.
