 Gaussian 16, Revision A.03,
 Gaussian 16:  EM64L-G16RevA.03 25-Dec-2016

 -------------
 #p 6-31g* mp2
 -------------

 ------------------------------------------------------
 Input file generated by CHIRIPA (05-May-2021 14:57:25)
 ------------------------------------------------------
 Symbolic Z-matrix:
 Charge =  0 Multiplicity = 1

                         Standard orientation:
 ---------------------------------------------------------------------
 Center     Atomic      Atomic             Coordinates (Angstroms)
 Number     Number       Type             X           Y           Z
 ---------------------------------------------------------------------
      1          6           0       -3.039839   -2.365041    0.854257
      2          6           0       -1.957613   -1.499217    1.043085
      3          6           0       -2.010999   -0.183203    0.574253
      4          6           0       -3.167362    0.235611   -0.082032
      5          6           0       -4.262060   -0.603137   -0.285569
      6          6           0       -4.186587   -1.915031    0.191701
      7          1           0       -2.989789   -3.385752    1.221734
      8          1           0       -1.065754   -1.845969    1.557281
      9          1           0       -1.187690    0.508172    0.706847
     10          1           0       -5.137631   -0.228687   -0.801883
     11          1           0       -5.028580   -2.585231    0.043629
     12          7           0       -3.235570    1.626635   -0.582830
     13          8           0       -4.265706    1.971303   -1.157861
     14          8           0       -2.257605    2.345913   -0.390841
     15          6           0        3.001629    2.362965    0.852949
     16          6           0        4.166715    1.922858    0.216239
     17          6           0        4.263437    0.612206   -0.260611
     18          6           0        3.171056   -0.235411   -0.083014
     19          6           0        1.996748    0.173434    0.547173
     20          6           0        1.922267    1.488391    1.016097
     21          1           0        2.935131    3.382783    1.220299
     22          1           0        5.006533    2.599868    0.088144
     23          1           0        5.153492    0.245331   -0.757222
     24          1           0        1.176128   -0.524583    0.660199
     25          1           0        1.016196    1.827442    1.510188
     26          7           0        3.261678   -1.625217   -0.583638
     27          8           0        2.285313   -2.352432   -0.414794
     28          8           0        4.307356   -1.961017   -1.135393
 ---------------------------------------------------------------------

 SCF Done:  E(RHF) =  -868.337563501     A.U. after   16 cycles
 E2 =    -0.2600803759D+01 EUMP2 =    -0.87093836725970D+03

 The electronic state is 1-A.
 Alpha  occ. eigenvalues --  -20.61134 -20.61107 -20.61098 -20.61072 -15.86174
 Alpha  occ. eigenvalues --  -15.86139 -11.31476 -11.31440 -11.28132 -11.28089
 Alpha  occ. eigenvalues --  -11.27975 -11.27941 -11.27663 -11.27629 -11.27027
 Alpha  occ. eigenvalues --  -11.26990 -11.26958 -11.26924  -1.60194  -1.60159
 Alpha  occ. eigenvalues --   -1.39754  -1.39718  -1.19623  -1.19579  -1.09001
 Alpha  occ. eigenvalues --   -1.08966  -1.05087  -1.04952  -0.95876  -0.95822
 Alpha  occ. eigenvalues --   -0.86422  -0.86375  -0.82751  -0.82662  -0.77934
 Alpha  occ. eigenvalues --   -0.77638  -0.72402  -0.72362  -0.71509  -0.71475
 Alpha  occ. eigenvalues --   -0.70831  -0.70579  -0.65302  -0.65261  -0.65074
 Alpha  occ. eigenvalues --   -0.64910  -0.62778  -0.61991  -0.55509  -0.55384
 Alpha  occ. eigenvalues --   -0.53349  -0.53319  -0.53159  -0.52996  -0.49170
 Alpha  occ. eigenvalues --   -0.49136  -0.49123  -0.49099  -0.45175  -0.45140
 Alpha  occ. eigenvalues --   -0.37534  -0.37498  -0.36665  -0.36527
 Alpha virt. eigenvalues --    0.04685   0.04842   0.10988   0.11147   0.16185
 Alpha virt. eigenvalues --    0.16266   0.18659   0.22429   0.24962   0.26139
 Alpha virt. eigenvalues --    0.28217   0.28743   0.30914   0.31427   0.33461

 Mulliken charges:
               1
     1  C   -0.169094
     2  C   -0.218688
     3  C   -0.175010
     4  C    0.158188
     5  C   -0.169648
     6  C   -0.218147
     7  H    0.230071
     8  H    0.226835
     9  H    0.269246
    10  H    0.276508
    11  H    0.225543
    12  N    0.488211
    13  O   -0.457710
    14  O   -0.466073
    15  C   -0.169178
    16  C   -0.218196
    17  C   -0.169804
    18  C    0.158215
    19  C   -0.174790
    20  C   -0.218624
    21  H    0.230050
    22  H    0.225383
    23  H    0.276361
    24  H    0.268678
    25  H    0.227067
    26  N    0.488293
    27  O   -0.465712
    28  O   -0.457974
 Sum of Mulliken charges =  -0.00000

 Dipole moment (field-independent basis, Debye):
    X=             -0.0947    Y=             -0.0052    Z=              3.4731  Tot=              3.4744
 Quadrupole moment (field-independent basis, Debye-Ang):
   XX=            -98.5050   YY=           -109.6574   ZZ=           -105.7191
   XY=             34.3520   XZ=              0.1214   YZ=             -0.0052

 Normal termination of Gaussian 16 at Thu May  6 19:40:41 2021.
