 Gaussian 16, Revision A.03,
 Gaussian 16:  EM64L-G16RevA.03 25-Dec-2016

 -------------
 #p 6-31g* mp2
 -------------

 ------------------------------------------------------
 Input file generated by CHIRIPA (05-May-2021 14:53:16)
 ------------------------------------------------------
 Symbolic Z-matrix:
 Charge =  0 Multiplicity = 1

                         Standard orientation:
 ---------------------------------------------------------------------
 Center     Atomic      Atomic             Coordinates (Angstroms)
 Number     Number       Type             X           Y           Z
 ---------------------------------------------------------------------
      1          6           0       -3.557535    0.472412    0.034931
      2          6           0       -3.683494    1.996012    0.062566
      3          6           0       -2.327786    2.702032    0.025333
      4          1           0       -2.948761    0.145631    0.889070
      5          1           0       -3.011872    0.172939   -0.870587
      6          1           0       -4.229965    2.292434    0.967065
      7          1           0       -4.292198    2.319189   -0.791631
      8          1           0       -1.779284    2.435130   -0.883793
      9          1           0       -1.716697    2.408224    0.884896
     10          1           0       -2.441244    3.790409    0.045905
     11          6           0       -4.904380   -0.247579    0.071637
     12          6           0       -4.778421   -1.771178    0.044002
     13          6           0       -6.134129   -2.477198    0.081235
     14          1           0       -5.450043    0.051895    0.977155
     15          1           0       -5.513154    0.079203   -0.782502
     16          1           0       -4.169717   -2.094355    0.898199
     17          1           0       -4.231950   -2.067601   -0.860497
     18          1           0       -6.745218   -2.183390   -0.778328
     19          1           0       -6.682632   -2.210296    0.990360
     20          1           0       -6.020671   -3.565575    0.060663
     21          6           0        1.374675    1.524647   -0.236611
     22          6           0        2.657222    2.000363    0.055431
     23          6           0        3.734429    1.116063    0.165826
     24          6           0        3.492094   -0.243714   -0.022778
     25          6           0        2.225869   -0.748388   -0.314781
     26          6           0        1.163464    0.154205   -0.420461
     27          1           0        0.543624    2.218698   -0.320537
     28          1           0        2.824201    3.064146    0.198714
     29          1           0        4.737576    1.457252    0.391001
     30          1           0        2.090504   -1.814305   -0.452322
     31          1           0        0.168495   -0.218082   -0.647359
     32          7           0        4.624650   -1.189566    0.091596
     33          8           0        4.384907   -2.382900   -0.079031
     34          8           0        5.730645   -0.719681    0.349704
 ---------------------------------------------------------------------

 SCF Done:  E(RHF) =  -669.535447355     A.U. after   15 cycles
 E2 =    -0.2091600581D+01 EUMP2 =    -0.67162704793585D+03

 The electronic state is 1-A.
 Alpha  occ. eigenvalues --  -20.60674 -20.60669 -15.85727 -11.31061 -11.27633
 Alpha  occ. eigenvalues --  -11.27629 -11.27257 -11.26619 -11.26603 -11.22697
 Alpha  occ. eigenvalues --  -11.22502 -11.22430 -11.22259 -11.22147 -11.21579
 Alpha  occ. eigenvalues --   -1.59751  -1.39305  -1.19226  -1.09348  -1.08616
 Alpha  occ. eigenvalues --   -1.04629  -1.04448  -0.96938  -0.95458  -0.87963
 Alpha  occ. eigenvalues --   -0.86021  -0.82302  -0.80548  -0.79132  -0.77356
 Alpha  occ. eigenvalues --   -0.71945  -0.71075  -0.70329  -0.65966  -0.64872
 Alpha  occ. eigenvalues --   -0.64633  -0.61983  -0.61833  -0.60306  -0.58553
 Alpha  occ. eigenvalues --   -0.56233  -0.55217  -0.53587  -0.53232  -0.52955
 Alpha  occ. eigenvalues --   -0.52710  -0.50873  -0.48824  -0.48702  -0.48691
 Alpha  occ. eigenvalues --   -0.47553  -0.46672  -0.46564  -0.44718  -0.44689
 Alpha  occ. eigenvalues --   -0.37188  -0.36242
 Alpha virt. eigenvalues --    0.05166   0.11398   0.16631   0.19912   0.22276
 Alpha virt. eigenvalues --    0.23653   0.25196   0.25877   0.26076   0.28118
 Alpha virt. eigenvalues --    0.29425   0.30060   0.30548   0.30895   0.31655

 Mulliken charges:
               1
     1  C   -0.301407
     2  C   -0.299159
     3  C   -0.485994
     4  H    0.150582
     5  H    0.145487
     6  H    0.156966
     7  H    0.156094
     8  H    0.149556
     9  H    0.156695
    10  H    0.166301
    11  C   -0.298728
    12  C   -0.300608
    13  C   -0.476255
    14  H    0.152232
    15  H    0.151750
    16  H    0.152833
    17  H    0.151244
    18  H    0.156185
    19  H    0.156498
    20  H    0.162579
    21  C   -0.177901
    22  C   -0.220610
    23  C   -0.170863
    24  C    0.158084
    25  C   -0.171129
    26  C   -0.224465
    27  H    0.238844
    28  H    0.223262
    29  H    0.274969
    30  H    0.275132
    31  H    0.225493
    32  N    0.488057
    33  O   -0.460882
    34  O   -0.460844
 Sum of Mulliken charges =  -0.00000

 Dipole moment (field-independent basis, Debye):
    X=             -4.3355    Y=              3.3644    Z=             -0.3540  Tot=              5.4992
 Quadrupole moment (field-independent basis, Debye-Ang):
   XX=           -120.8887   YY=            -93.8752   ZZ=            -94.3748
   XY=             14.7396   XZ=             -0.6982   YZ=              0.9431

 Normal termination of Gaussian 16 at Thu May  6 01:09:36 2021.
