 Gaussian 16, Revision A.03,
 Gaussian 16:  EM64L-G16RevA.03 25-Dec-2016

 -------------
 #p 6-31g* mp2
 -------------

 ------------------------------------------------------
 Input file generated by CHIRIPA (05-May-2021 14:57:23)
 ------------------------------------------------------
 Symbolic Z-matrix:
 Charge =  0 Multiplicity = 1

                         Standard orientation:
 ---------------------------------------------------------------------
 Center     Atomic      Atomic             Coordinates (Angstroms)
 Number     Number       Type             X           Y           Z
 ---------------------------------------------------------------------
      1          6           0       -5.981397    1.231688   -0.088752
      2          6           0       -5.419861    0.946550    1.160205
      3          6           0       -4.218371    0.237826    1.253377
      4          6           0       -3.602552   -0.172433    0.071961
      5          6           0       -4.137038    0.096280   -1.187169
      6          6           0       -5.339325    0.806393   -1.256394
      7          1           0       -6.915053    1.782782   -0.151829
      8          1           0       -5.916292    1.275594    2.068683
      9          1           0       -3.761601    0.003513    2.207252
     10          1           0       -3.618885   -0.244858   -2.075178
     11          1           0       -5.773111    1.026413   -2.227716
     12          7           0       -2.330166   -0.923463    0.157922
     13          8           0       -1.807287   -1.273815   -0.897771
     14          8           0       -1.879842   -1.147546    1.279364
     15          6           0        5.720359    1.686676    0.147033
     16          6           0        5.958052    0.314800    0.281117
     17          6           0        4.908402   -0.601895    0.169519
     18          6           0        3.627788   -0.109704   -0.077595
     19          6           0        3.359049    1.251137   -0.216089
     20          6           0        4.423901    2.149650   -0.100706
     21          1           0        6.541656    2.391724    0.235195
     22          1           0        6.963873   -0.047611    0.473541
     23          1           0        5.064253   -1.669242    0.268998
     24          1           0        2.345600    1.582275   -0.407628
     25          1           0        4.236352    3.214512   -0.205292
     26          7           0        2.508524   -1.070543   -0.197743
     27          8           0        1.389416   -0.611484   -0.415686
     28          8           0        2.771546   -2.264515   -0.071697
 ---------------------------------------------------------------------

 SCF Done:  E(RHF) =  -868.334187242     A.U. after   16 cycles
 E2 =    -0.2600849502D+01 EUMP2 =    -0.87093503674434D+03

 The electronic state is 1-A.
 Alpha  occ. eigenvalues --  -20.59518 -20.59505 -20.59449 -20.59428 -15.84569
 Alpha  occ. eigenvalues --  -15.84545 -11.30423 -11.30365 -11.27054 -11.27039
 Alpha  occ. eigenvalues --  -11.26996 -11.26988 -11.26883 -11.26826 -11.26177
 Alpha  occ. eigenvalues --  -11.26165 -11.26119 -11.26104  -1.58549  -1.58527
 Alpha  occ. eigenvalues --   -1.38101  -1.38076  -1.18641  -1.18584  -1.07944
 Alpha  occ. eigenvalues --   -1.07890  -1.04116  -1.04057  -0.94711  -0.94627
 Alpha  occ. eigenvalues --   -0.85491  -0.85434  -0.81545  -0.81470  -0.76492
 Alpha  occ. eigenvalues --   -0.76456  -0.70875  -0.70662  -0.69911  -0.69857
 Alpha  occ. eigenvalues --   -0.69744  -0.69688  -0.64282  -0.64226  -0.64120
 Alpha  occ. eigenvalues --   -0.64066  -0.61458  -0.61403  -0.54603  -0.54547
 Alpha  occ. eigenvalues --   -0.52421  -0.52360  -0.52215  -0.52159  -0.47832
 Alpha  occ. eigenvalues --   -0.47506  -0.47499  -0.47121  -0.43457  -0.43320
 Alpha  occ. eigenvalues --   -0.36650  -0.36591  -0.35745  -0.35682
 Alpha virt. eigenvalues --    0.06049   0.06095   0.11903   0.11966   0.17458
 Alpha virt. eigenvalues --    0.17507   0.21979   0.22032   0.27858   0.27904
 Alpha virt. eigenvalues --    0.28911   0.28966   0.31493   0.31546   0.33178

 Mulliken charges:
               1
     1  C   -0.172594
     2  C   -0.218615
     3  C   -0.172236
     4  C    0.159663
     5  C   -0.171994
     6  C   -0.218665
     7  H    0.222487
     8  H    0.220607
     9  H    0.274592
    10  H    0.275876
    11  H    0.220854
    12  N    0.487612
    13  O   -0.447186
    14  O   -0.459975
    15  C   -0.172368
    16  C   -0.218484
    17  C   -0.171583
    18  C    0.159974
    19  C   -0.171301
    20  C   -0.218529
    21  H    0.222383
    22  H    0.220893
    23  H    0.275114
    24  H    0.274645
    25  H    0.220086
    26  N    0.487153
    27  O   -0.446086
    28  O   -0.462322
 Sum of Mulliken charges =  -0.00000

 Dipole moment (field-independent basis, Debye):
    X=             -0.5544    Y=              5.8152    Z=              0.0417  Tot=              5.8417
 Quadrupole moment (field-independent basis, Debye-Ang):
   XX=            -46.1110   YY=           -104.9454   ZZ=           -100.7913
   XY=              0.3028   XZ=              2.5360   YZ=             -0.3478

 Normal termination of Gaussian 16 at Fri May  7 00:17:49 2021.
