 Gaussian 16, Revision A.03,
 Gaussian 16:  EM64L-G16RevA.03 25-Dec-2016

 -------------
 #p 6-31g* mp2
 -------------

 ------------------------------------------------------
 Input file generated by CHIRIPA (05-May-2021 14:57:24)
 ------------------------------------------------------
 Symbolic Z-matrix:
 Charge =  0 Multiplicity = 1

                         Standard orientation:
 ---------------------------------------------------------------------
 Center     Atomic      Atomic             Coordinates (Angstroms)
 Number     Number       Type             X           Y           Z
 ---------------------------------------------------------------------
      1          6           0       -3.131348    2.496563    0.880877
      2          6           0       -1.962257    2.050685    0.255625
      3          6           0       -1.900094    0.771019   -0.303962
      4          6           0       -3.030742   -0.040066   -0.219887
      5          6           0       -4.210038    0.375452    0.396470
      6          6           0       -4.249536    1.659000    0.949184
      7          1           0       -3.170834    3.492146    1.312909
      8          1           0       -1.092326    2.698984    0.201095
      9          1           0       -1.007820    0.400493   -0.793834
     10          1           0       -5.061081   -0.293608    0.435215
     11          1           0       -5.158808    2.002618    1.434153
     12          7           0       -2.976930   -1.396846   -0.808659
     13          8           0       -3.986665   -2.092159   -0.721408
     14          8           0       -1.926036   -1.739286   -1.346241
     15          6           0        2.037995   -1.725360    1.850712
     16          6           0        1.541371   -1.722643    0.543089
     17          6           0        2.088676   -0.872560   -0.422501
     18          6           0        3.136443   -0.034491   -0.044192
     19          6           0        3.653048   -0.014053    1.250409
     20          6           0        3.090393   -0.872560    2.199583
     21          1           0        1.606873   -2.388996    2.594430
     22          1           0        0.724135   -2.383865    0.269309
     23          1           0        1.723448   -0.850034   -1.442069
     24          1           0        4.468453    0.656390    1.493387
     25          1           0        3.478094   -0.872528    3.214341
     26          7           0        3.723976    0.869912   -1.057731
     27          8           0        4.646431    1.598709   -0.699165
     28          8           0        3.250904    0.832862   -2.191515
 ---------------------------------------------------------------------

 SCF Done:  E(RHF) =  -868.340097342     A.U. after   16 cycles
 E2 =    -0.2599634506D+01 EUMP2 =    -0.87093973184807D+03

 The electronic state is 1-A.
 Alpha  occ. eigenvalues --  -20.61470 -20.61410 -20.60856 -20.60851 -15.86469
 Alpha  occ. eigenvalues --  -15.85901 -11.31568 -11.31182 -11.28112 -11.28088
 Alpha  occ. eigenvalues --  -11.27791 -11.27731 -11.27621 -11.27368 -11.27072
 Alpha  occ. eigenvalues --  -11.27020 -11.26746 -11.26522  -1.60502  -1.59939
 Alpha  occ. eigenvalues --   -1.40067  -1.39492  -1.19717  -1.19316  -1.09159
 Alpha  occ. eigenvalues --   -1.08722  -1.05074  -1.04668  -0.96038  -0.95577
 Alpha  occ. eigenvalues --   -0.86487  -0.86067  -0.82881  -0.82382  -0.77971
 Alpha  occ. eigenvalues --   -0.77443  -0.72698  -0.72112  -0.71811  -0.71272
 Alpha  occ. eigenvalues --   -0.70824  -0.70393  -0.65371  -0.65073  -0.64934
 Alpha  occ. eigenvalues --   -0.64607  -0.62443  -0.61960  -0.55586  -0.55160
 Alpha  occ. eigenvalues --   -0.53431  -0.53219  -0.52979  -0.52702  -0.49464
 Alpha  occ. eigenvalues --   -0.49417  -0.48879  -0.48864  -0.45520  -0.44915
 Alpha  occ. eigenvalues --   -0.37689  -0.37302  -0.36695  -0.36251
 Alpha virt. eigenvalues --    0.04507   0.05000   0.10956   0.11336   0.16048
 Alpha virt. eigenvalues --    0.16498   0.20784   0.21842   0.26032   0.27410
 Alpha virt. eigenvalues --    0.28151   0.28965   0.30953   0.31338   0.31840

 Mulliken charges:
               1
     1  C   -0.170197
     2  C   -0.219598
     3  C   -0.170454
     4  C    0.156417
     5  C   -0.170936
     6  C   -0.218907
     7  H    0.227618
     8  H    0.228450
     9  H    0.274950
    10  H    0.275523
    11  H    0.224432
    12  N    0.488831
    13  O   -0.456520
    14  O   -0.469584
    15  C   -0.172188
    16  C   -0.224195
    17  C   -0.182991
    18  C    0.157520
    19  C   -0.173426
    20  C   -0.218264
    21  H    0.226945
    22  H    0.243384
    23  H    0.280754
    24  H    0.274244
    25  H    0.222681
    26  N    0.487271
    27  O   -0.461322
    28  O   -0.460438
 Sum of Mulliken charges =  -0.00000

 Dipole moment (field-independent basis, Debye):
    X=             -2.4467    Y=              1.5663    Z=              5.6928  Tot=              6.3912
 Quadrupole moment (field-independent basis, Debye-Ang):
   XX=           -110.7180   YY=           -104.9693   ZZ=           -104.4491
   XY=            -22.8231   XZ=              5.8773   YZ=              0.0063

 Normal termination of Gaussian 16 at Thu May  6 08:14:42 2021.
