 Gaussian 16, Revision A.03,
 Gaussian 16:  EM64L-G16RevA.03 25-Dec-2016

 -------------
 #p 6-31g* mp2
 -------------

 ------------------------------------------------------
 Input file generated by CHIRIPA (05-May-2021 14:55:22)
 ------------------------------------------------------
 Symbolic Z-matrix:
 Charge =  0 Multiplicity = 1

                         Standard orientation:
 ---------------------------------------------------------------------
 Center     Atomic      Atomic             Coordinates (Angstroms)
 Number     Number       Type             X           Y           Z
 ---------------------------------------------------------------------
      1          6           0       -0.625277   -0.330127    0.401979
      2          6           0       -1.102554    0.254865   -0.775524
      3          6           0       -2.476717    0.387367   -0.996129
      4          6           0       -3.349252   -0.078096   -0.013624
      5          6           0       -2.904593   -0.665429    1.169849
      6          6           0       -1.526231   -0.787600    1.369202
      7          1           0        0.443837   -0.429045    0.565095
      8          1           0       -0.405183    0.611040   -1.528424
      9          1           0       -2.873441    0.836285   -1.898626
     10          1           0       -3.624235   -1.011057    1.902019
     11          1           0       -1.158426   -1.242328    2.284618
     12          7           0       -4.806240    0.056710   -0.235919
     13          8           0       -5.554286   -0.361319    0.645168
     14          8           0       -5.172592    0.577847   -1.287032
     15          6           0        4.156352    0.852600   -0.196052
     16          6           0        3.332265    1.873754    0.588873
     17          6           0        3.697240    3.318081    0.244626
     18          1           0        5.223463    1.020330    0.004164
     19          1           0        4.009685    1.022421   -1.271713
     20          1           0        3.479360    1.701174    1.662742
     21          1           0        2.266982    1.703450    0.386915
     22          1           0        3.533227    3.513589   -0.820023
     23          1           0        4.752493    3.511300    0.463054
     24          1           0        3.096157    4.031412    0.817090
     25          6           0        3.803003   -0.595798    0.137138
     26          6           0        4.627091   -1.616952   -0.647788
     27          6           0        4.262115   -3.061279   -0.303540
     28          1           0        3.949671   -0.765620    1.212799
     29          1           0        2.735892   -0.763528   -0.063078
     30          1           0        5.692373   -1.446650   -0.445829
     31          1           0        4.479996   -1.444373   -1.721656
     32          1           0        3.206863   -3.254498   -0.521968
     33          1           0        4.426129   -3.256787    0.761109
     34          1           0        4.863200   -3.774611   -0.876003
 ---------------------------------------------------------------------

 SCF Done:  E(RHF) =  -669.535533702     A.U. after   15 cycles
 E2 =    -0.2091626269D+01 EUMP2 =    -0.67162715997041D+03

 The electronic state is 1-A.
 Alpha  occ. eigenvalues --  -20.60740 -20.60735 -15.85794 -11.31158 -11.27730
 Alpha  occ. eigenvalues --  -11.27723 -11.27424 -11.26745 -11.26723 -11.22631
 Alpha  occ. eigenvalues --  -11.22603 -11.22505 -11.22381 -11.21885 -11.21865
 Alpha  occ. eigenvalues --   -1.59816  -1.39370  -1.19328  -1.09468  -1.08719
 Alpha  occ. eigenvalues --   -1.04733  -1.04454  -0.96898  -0.95557  -0.87907
 Alpha  occ. eigenvalues --   -0.86128  -0.82395  -0.80527  -0.79320  -0.77441
 Alpha  occ. eigenvalues --   -0.72012  -0.71139  -0.70451  -0.66103  -0.64978
 Alpha  occ. eigenvalues --   -0.64731  -0.62083  -0.61848  -0.60261  -0.58519
 Alpha  occ. eigenvalues --   -0.56210  -0.55235  -0.53543  -0.53313  -0.53057
 Alpha  occ. eigenvalues --   -0.52823  -0.50838  -0.48837  -0.48772  -0.48767
 Alpha  occ. eigenvalues --   -0.47573  -0.46811  -0.46748  -0.44776  -0.44742
 Alpha  occ. eigenvalues --   -0.37298  -0.36339
 Alpha virt. eigenvalues --    0.05080   0.11288   0.16532   0.18904   0.22657
 Alpha virt. eigenvalues --    0.23406   0.24733   0.26011   0.27087   0.27337
 Alpha virt. eigenvalues --    0.29982   0.30616   0.31028   0.31147   0.31548

 Mulliken charges:
               1
     1  C   -0.179057
     2  C   -0.222115
     3  C   -0.170762
     4  C    0.158264
     5  C   -0.170604
     6  C   -0.220637
     7  H    0.239235
     8  H    0.222501
     9  H    0.275480
    10  H    0.275465
    11  H    0.224258
    12  N    0.488008
    13  O   -0.460455
    14  O   -0.460561
    15  C   -0.298800
    16  C   -0.302023
    17  C   -0.476052
    18  H    0.154534
    19  H    0.150144
    20  H    0.153870
    21  H    0.145170
    22  H    0.155864
    23  H    0.158188
    24  H    0.163537
    25  C   -0.303819
    26  C   -0.299510
    27  C   -0.476648
    28  H    0.151524
    29  H    0.141460
    30  H    0.155823
    31  H    0.153569
    32  H    0.153929
    33  H    0.155971
    34  H    0.164249
 Sum of Mulliken charges =  -0.00000

 Dipole moment (field-independent basis, Debye):
    X=              5.3963    Y=             -0.4527    Z=              0.7914  Tot=              5.4727
 Quadrupole moment (field-independent basis, Debye-Ang):
   XX=           -127.9836   YY=            -95.2080   ZZ=            -90.4409
   XY=              1.5230   XZ=             -3.0946   YZ=             -2.0789

 Normal termination of Gaussian 16 at Thu May  6 06:14:27 2021.
