 Gaussian 16, Revision A.03,
 Gaussian 16:  EM64L-G16RevA.03 25-Dec-2016

 -------------
 #p 6-31g* mp2
 -------------

 ------------------------------------------------------
 Input file generated by CHIRIPA (05-May-2021 14:53:15)
 ------------------------------------------------------
 Symbolic Z-matrix:
 Charge =  0 Multiplicity = 1

                         Standard orientation:
 ---------------------------------------------------------------------
 Center     Atomic      Atomic             Coordinates (Angstroms)
 Number     Number       Type             X           Y           Z
 ---------------------------------------------------------------------
      1          6           0        3.150911   -0.167109    0.045606
      2          6           0        4.501015   -0.737341   -0.390327
      3          6           0        4.636366   -2.230667   -0.091243
      4          1           0        3.017208   -0.340489    1.122178
      5          1           0        2.346962   -0.717993   -0.461925
      6          1           0        5.302222   -0.184631    0.116818
      7          1           0        4.631604   -0.562412   -1.465949
      8          1           0        3.857737   -2.799505   -0.609664
      9          1           0        4.532165   -2.419577    0.982096
     10          1           0        5.608948   -2.617601   -0.410970
     11          6           0        3.000508    1.324747   -0.246750
     12          6           0        1.650403    1.894979    0.189183
     13          6           0        1.515052    3.388305   -0.109902
     14          1           0        3.804456    1.875632    0.260781
     15          1           0        3.134211    1.498128   -1.323323
     16          1           0        1.519814    1.720051    1.264805
     17          1           0        0.849197    1.342270   -0.317962
     18          1           0        1.619253    3.577215   -1.183240
     19          1           0        2.293681    3.957143    0.408520
     20          1           0        0.542470    3.775240    0.209826
     21          6           0       -3.234962    1.926251   -0.050088
     22          6           0       -3.958852    0.897367   -0.661565
     23          6           0       -3.507278   -0.424154   -0.596689
     24          6           0       -2.322457   -0.682143    0.091010
     25          6           0       -1.578883    0.321174    0.710481
     26          6           0       -2.049378    1.635383    0.632779
     27          1           0       -3.593104    2.950000   -0.105468
     28          1           0       -4.879924    1.120317   -1.192569
     29          1           0       -4.047973   -1.239903   -1.061037
     30          1           0       -0.664215    0.067925    1.232656
     31          1           0       -1.485128    2.432412    1.108606
     32          7           0       -1.834380   -2.077307    0.166481
     33          8           0       -0.787594   -2.278422    0.778386
     34          8           0       -2.507855   -2.943306   -0.387700
 ---------------------------------------------------------------------

 SCF Done:  E(RHF) =  -669.534369272     A.U. after   15 cycles
 E2 =    -0.2093645070D+01 EUMP2 =    -0.67162801434286D+03

 The electronic state is 1-A.
 Alpha  occ. eigenvalues --  -20.60777 -20.60771 -15.85824 -11.31156 -11.27741
 Alpha  occ. eigenvalues --  -11.27675 -11.27478 -11.26747 -11.26706 -11.22099
 Alpha  occ. eigenvalues --  -11.21748 -11.21555 -11.21382 -11.21205 -11.20646
 Alpha  occ. eigenvalues --   -1.59850  -1.39403  -1.19345  -1.08743  -1.08532
 Alpha  occ. eigenvalues --   -1.04755  -1.03646  -0.96081  -0.95579  -0.87106
 Alpha  occ. eigenvalues --   -0.86133  -0.82424  -0.79819  -0.78294  -0.77410
 Alpha  occ. eigenvalues --   -0.72040  -0.71174  -0.70447  -0.65166  -0.64988
 Alpha  occ. eigenvalues --   -0.64754  -0.62165  -0.61044  -0.59493  -0.57677
 Alpha  occ. eigenvalues --   -0.55339  -0.55236  -0.53116  -0.52956  -0.52796
 Alpha  occ. eigenvalues --   -0.52368  -0.50003  -0.48803  -0.48799  -0.48048
 Alpha  occ. eigenvalues --   -0.46818  -0.45806  -0.45680  -0.44794  -0.43884
 Alpha  occ. eigenvalues --   -0.37333  -0.36257
 Alpha virt. eigenvalues --    0.05045   0.11227   0.16456   0.20116   0.23025
 Alpha virt. eigenvalues --    0.24041   0.25432   0.26289   0.26891   0.28525
 Alpha virt. eigenvalues --    0.29295   0.30735   0.31336   0.31737   0.33000

 Mulliken charges:
               1
     1  C   -0.301249
     2  C   -0.300064
     3  C   -0.476113
     4  H    0.150602
     5  H    0.157948
     6  H    0.149924
     7  H    0.150930
     8  H    0.161317
     9  H    0.156757
    10  H    0.158495
    11  C   -0.297415
    12  C   -0.309860
    13  C   -0.475046
    14  H    0.149392
    15  H    0.150760
    16  H    0.144996
    17  H    0.159633
    18  H    0.159349
    19  H    0.158449
    20  H    0.149178
    21  C   -0.171532
    22  C   -0.218877
    23  C   -0.171118
    24  C    0.156907
    25  C   -0.173532
    26  C   -0.219527
    27  H    0.225527
    28  H    0.223277
    29  H    0.275367
    30  H    0.280830
    31  H    0.227575
    32  N    0.488182
    33  O   -0.460569
    34  O   -0.460493
 Sum of Mulliken charges =  -0.00000

 Dipole moment (field-independent basis, Debye):
    X=             -1.6496    Y=              4.7917    Z=             -0.3217  Tot=              5.0778
 Quadrupole moment (field-independent basis, Debye-Ang):
   XX=            -83.8044   YY=           -102.8611   ZZ=            -93.1954
   XY=             -8.8618   XZ=              3.1605   YZ=              1.8057

 Normal termination of Gaussian 16 at Thu May  6 17:11:04 2021.
