 Gaussian 16, Revision A.03,
 Gaussian 16:  EM64L-G16RevA.03 25-Dec-2016

 -------------
 #p 6-31g* mp2
 -------------

 ------------------------------------------------------
 Input file generated by CHIRIPA (05-May-2021 14:57:24)
 ------------------------------------------------------
 Symbolic Z-matrix:
 Charge =  0 Multiplicity = 1

                         Standard orientation:
 ---------------------------------------------------------------------
 Center     Atomic      Atomic             Coordinates (Angstroms)
 Number     Number       Type             X           Y           Z
 ---------------------------------------------------------------------
      1          6           0        2.818466    2.308709    0.659007
      2          6           0        2.725084    1.355870    1.678761
      3          6           0        2.532195    0.005349    1.373089
      4          6           0        2.436627   -0.358866    0.030888
      5          6           0        2.525701    0.566842   -1.007583
      6          6           0        2.718653    1.911854   -0.678552
      7          1           0        2.968332    3.355686    0.905532
      8          1           0        2.802241    1.661189    2.718411
      9          1           0        2.456401   -0.753157    2.142727
     10          1           0        2.445005    0.232096   -2.034642
     11          1           0        2.790808    2.649656   -1.472584
     12          7           0        2.232391   -1.785685   -0.305077
     13          8           0        2.151388   -2.080903   -1.495423
     14          8           0        2.157182   -2.581793    0.628300
     15          6           0       -2.194275    2.595683   -0.509441
     16          6           0       -1.231493    1.694036   -0.974849
     17          6           0       -1.374128    0.322213   -0.746145
     18          6           0       -2.496972   -0.115273   -0.045347
     19          6           0       -3.473445    0.758140    0.431035
     20          6           0       -3.310210    2.125686    0.190781
     21          1           0       -2.075471    3.659686   -0.691590
     22          1           0       -0.363824    2.056194   -1.518942
     23          1           0       -0.643977   -0.397801   -1.095255
     24          1           0       -4.327650    0.367122    0.970345
     25          1           0       -4.059513    2.823611    0.553396
     26          7           0       -2.658877   -1.565296    0.202885
     27          8           0       -3.657163   -1.925393    0.822879
     28          8           0       -1.784429   -2.314271   -0.227246
 ---------------------------------------------------------------------

 SCF Done:  E(RHF) =  -868.335851327     A.U. after   16 cycles
 E2 =    -0.2603515824D+01 EUMP2 =    -0.87093936715130D+03

 The electronic state is 1-A.
 Alpha  occ. eigenvalues --  -20.60902 -20.60860 -20.60401 -20.60341 -15.85930
 Alpha  occ. eigenvalues --  -15.85427 -11.31651 -11.31021 -11.28315 -11.28184
 Alpha  occ. eigenvalues --  -11.28040 -11.27621 -11.27577 -11.27438 -11.27408
 Alpha  occ. eigenvalues --  -11.27263 -11.26707 -11.26675  -1.59930  -1.59450
 Alpha  occ. eigenvalues --   -1.39480  -1.38994  -1.19861  -1.19219  -1.09179
 Alpha  occ. eigenvalues --   -1.08585  -1.05317  -1.04648  -0.95951  -0.95376
 Alpha  occ. eigenvalues --   -0.86687  -0.86049  -0.82781  -0.82197  -0.77777
 Alpha  occ. eigenvalues --   -0.77207  -0.72136  -0.71661  -0.71259  -0.70934
 Alpha  occ. eigenvalues --   -0.70782  -0.70331  -0.65498  -0.65300  -0.64869
 Alpha  occ. eigenvalues --   -0.64671  -0.62648  -0.62007  -0.55771  -0.55199
 Alpha  occ. eigenvalues --   -0.53681  -0.53387  -0.52897  -0.52740  -0.48921
 Alpha  occ. eigenvalues --   -0.48875  -0.48424  -0.48382  -0.44789  -0.44341
 Alpha  occ. eigenvalues --   -0.37869  -0.37236  -0.36937  -0.36193
 Alpha virt. eigenvalues --    0.04743   0.05322   0.10599   0.11395   0.16097
 Alpha virt. eigenvalues --    0.16763   0.20446   0.21705   0.26011   0.27441
 Alpha virt. eigenvalues --    0.28127   0.28276   0.29917   0.31446   0.31919

 Mulliken charges:
               1
     1  C   -0.170734
     2  C   -0.216847
     3  C   -0.168611
     4  C    0.158832
     5  C   -0.182275
     6  C   -0.222453
     7  H    0.225732
     8  H    0.225982
     9  H    0.280442
    10  H    0.275795
    11  H    0.221419
    12  N    0.489842
    13  O   -0.460192
    14  O   -0.449141
    15  C   -0.173098
    16  C   -0.215191
    17  C   -0.175628
    18  C    0.158554
    19  C   -0.171476
    20  C   -0.218748
    21  H    0.221479
    22  H    0.217259
    23  H    0.278961
    24  H    0.275484
    25  H    0.221920
    26  N    0.486898
    27  O   -0.462761
    28  O   -0.451444
 Sum of Mulliken charges =  -0.00000

 Dipole moment (field-independent basis, Debye):
    X=              1.4816    Y=              9.7724    Z=              0.5287  Tot=              9.8982
 Quadrupole moment (field-independent basis, Debye-Ang):
   XX=           -101.5136   YY=           -110.2631   ZZ=            -99.3927
   XY=             -1.7713   XZ=              3.2070   YZ=             -1.0208

 Normal termination of Gaussian 16 at Thu May  6 09:49:28 2021.
