 Gaussian 16, Revision A.03,
 Gaussian 16:  EM64L-G16RevA.03 25-Dec-2016

 -------------
 #p 6-31g* mp2
 -------------

 ------------------------------------------------------
 Input file generated by CHIRIPA (05-May-2021 14:57:23)
 ------------------------------------------------------
 Symbolic Z-matrix:
 Charge =  0 Multiplicity = 1

                         Standard orientation:
 ---------------------------------------------------------------------
 Center     Atomic      Atomic             Coordinates (Angstroms)
 Number     Number       Type             X           Y           Z
 ---------------------------------------------------------------------
      1          6           0       -5.649076    0.925904   -0.379788
      2          6           0       -4.757946    0.660383   -1.424731
      3          6           0       -3.565945   -0.029139   -1.183398
      4          6           0       -3.295602   -0.440408    0.120850
      5          6           0       -4.163297   -0.190988    1.183011
      6          6           0       -5.349436    0.500122    0.918459
      7          1           0       -6.572775    1.462159   -0.576280
      8          1           0       -4.988043    0.989854   -2.433963
      9          1           0       -2.858272   -0.248043   -1.973776
     10          1           0       -3.906445   -0.532041    2.178566
     11          1           0       -6.039635    0.704930    1.731923
     12          7           0       -2.036787   -1.171215    0.388629
     13          8           0       -1.821815   -1.522890    1.546536
     14          8           0       -1.288936   -1.378509   -0.564463
     15          6           0        4.518795   -1.979830   -0.289283
     16          6           0        3.221241   -1.741957   -0.754355
     17          6           0        2.648378   -0.471643   -0.641769
     18          6           0        3.404874    0.542298   -0.056167
     19          6           0        4.700013    0.336648    0.416711
     20          6           0        5.252746   -0.941598    0.293738
     21          1           0        4.955990   -2.969721   -0.380777
     22          1           0        2.648911   -2.546368   -1.207574
     23          1           0        1.645933   -0.259830   -0.993417
     24          1           0        5.245939    1.158479    0.863897
     25          1           0        6.260661   -1.123432    0.655799
     26          7           0        2.809065    1.891321    0.068522
     27          8           0        3.496308    2.767757    0.588324
     28          8           0        1.666108    2.046707   -0.355912
 ---------------------------------------------------------------------

 SCF Done:  E(RHF) =  -868.340094352     A.U. after   16 cycles
 E2 =    -0.2598289479D+01 EUMP2 =    -0.87093838383081D+03

 The electronic state is 1-A.
 Alpha  occ. eigenvalues --  -20.61008 -20.60961 -20.59994 -20.59987 -15.86019
 Alpha  occ. eigenvalues --  -15.85039 -11.31144 -11.30189 -11.27697 -11.27692
 Alpha  occ. eigenvalues --  -11.27414 -11.26835 -11.26671 -11.26660 -11.26604
 Alpha  occ. eigenvalues --  -11.26531 -11.25831 -11.25648  -1.60037  -1.59071
 Alpha  occ. eigenvalues --   -1.39602  -1.38629  -1.19299  -1.18367  -1.08742
 Alpha  occ. eigenvalues --   -1.07821  -1.04675  -1.03722  -0.95619  -0.94678
 Alpha  occ. eigenvalues --   -0.86087  -0.85147  -0.82468  -0.81506  -0.77533
 Alpha  occ. eigenvalues --   -0.76560  -0.72268  -0.71327  -0.71265  -0.70424
 Alpha  occ. eigenvalues --   -0.70385  -0.69491  -0.64968  -0.64689  -0.64024
 Alpha  occ. eigenvalues --   -0.63733  -0.62032  -0.61051  -0.55200  -0.54292
 Alpha  occ. eigenvalues --   -0.53004  -0.52776  -0.52091  -0.51810  -0.49019
 Alpha  occ. eigenvalues --   -0.48985  -0.48026  -0.48008  -0.45055  -0.44082
 Alpha  occ. eigenvalues --   -0.37265  -0.36384  -0.36260  -0.35310
 Alpha virt. eigenvalues --    0.04977   0.05945   0.11398   0.12328   0.16492
 Alpha virt. eigenvalues --    0.17458   0.21492   0.22456   0.27425   0.28169
 Alpha virt. eigenvalues --    0.28530   0.29351   0.31064   0.31963   0.32560

 Mulliken charges:
               1
     1  C   -0.169767
     2  C   -0.218119
     3  C   -0.167933
     4  C    0.159692
     5  C   -0.169693
     6  C   -0.218404
     7  H    0.226065
     8  H    0.223972
     9  H    0.274374
    10  H    0.275530
    11  H    0.223742
    12  N    0.491545
    13  O   -0.457820
    14  O   -0.470560
    15  C   -0.171005
    16  C   -0.219075
    17  C   -0.169693
    18  C    0.156443
    19  C   -0.171846
    20  C   -0.219540
    21  H    0.222671
    22  H    0.228164
    23  H    0.287861
    24  H    0.271952
    25  H    0.219508
    26  N    0.488345
    27  O   -0.464566
    28  O   -0.461841
 Sum of Mulliken charges =  -0.00000

 Dipole moment (field-independent basis, Debye):
    X=             -2.7177    Y=             -2.2462    Z=             -1.3969  Tot=              3.7924
 Quadrupole moment (field-independent basis, Debye-Ang):
   XX=            -59.0271   YY=           -113.3429   ZZ=           -100.0357
   XY=            -20.7300   XZ=              1.5401   YZ=              1.1586

 Normal termination of Gaussian 16 at Thu May  6 08:09:17 2021.
