 Gaussian 16, Revision A.03,
 Gaussian 16:  EM64L-G16RevA.03 25-Dec-2016

 -------------
 #p 6-31g* mp2
 -------------

 ------------------------------------------------------
 Input file generated by CHIRIPA (05-May-2021 14:57:21)
 ------------------------------------------------------
 Symbolic Z-matrix:
 Charge =  0 Multiplicity = 1

                         Standard orientation:
 ---------------------------------------------------------------------
 Center     Atomic      Atomic             Coordinates (Angstroms)
 Number     Number       Type             X           Y           Z
 ---------------------------------------------------------------------
      1          6           0        2.667219   -2.362409    0.160447
      2          6           0        2.693705   -1.555426    1.302637
      3          6           0        2.989897   -0.192783    1.202529
      4          6           0        3.255860    0.332154   -0.061194
      5          6           0        3.237182   -0.445882   -1.217741
      6          6           0        2.938563   -1.806042   -1.093885
      7          1           0        2.436187   -3.419978    0.247437
      8          1           0        2.483381   -1.984790    2.278063
      9          1           0        3.017206    0.454881    2.070403
     10          1           0        3.451116    0.010767   -2.176449
     11          1           0        2.918707   -2.430352   -1.982642
     12          7           0        3.570710    1.773409   -0.179743
     13          8           0        3.801416    2.211700   -1.304604
     14          8           0        3.580821    2.437482    0.854443
     15          6           0       -0.968883   -1.204524    0.413701
     16          6           0       -1.578595   -0.492968    1.452190
     17          6           0       -2.816920    0.126014    1.257359
     18          6           0       -3.420049    0.012685    0.005687
     19          6           0       -2.837901   -0.689235   -1.048686
     20          6           0       -1.599371   -1.300217   -0.831228
     21          1           0       -0.006842   -1.682258    0.573840
     22          1           0       -1.091266   -0.416989    2.420066
     23          1           0       -3.311284    0.683073    2.043939
     24          1           0       -3.348099   -0.747445   -2.002483
     25          1           0       -1.128201   -1.852172   -1.639555
     26          7           0       -4.731117    0.663740   -0.212550
     27          8           0       -5.241870    0.549094   -1.324586
     28          8           0       -5.223155    1.276352    0.732565
 ---------------------------------------------------------------------

 SCF Done:  E(RHF) =  -868.336230596     A.U. after   16 cycles
 E2 =    -0.2602284026D+01 EUMP2 =    -0.87093851462120D+03

 The electronic state is 1-A.
 Alpha  occ. eigenvalues --  -20.61596 -20.61590 -20.60785 -20.60780 -15.86660
 Alpha  occ. eigenvalues --  -15.85844 -11.32334 -11.31232 -11.28949 -11.28912
 Alpha  occ. eigenvalues --  -11.28747 -11.28035 -11.28001 -11.27841 -11.27831
 Alpha  occ. eigenvalues --  -11.27427 -11.26850 -11.26837  -1.60663  -1.59861
 Alpha  occ. eigenvalues --   -1.40208  -1.39414  -1.20562  -1.19418  -1.09917
 Alpha  occ. eigenvalues --   -1.08797  -1.05991  -1.04843  -0.96677  -0.95629
 Alpha  occ. eigenvalues --   -0.87372  -0.86238  -0.83487  -0.82477  -0.78469
 Alpha  occ. eigenvalues --   -0.77523  -0.72872  -0.72060  -0.71989  -0.71644
 Alpha  occ. eigenvalues --   -0.71185  -0.70559  -0.66193  -0.65972  -0.65071
 Alpha  occ. eigenvalues --   -0.64882  -0.63298  -0.62204  -0.56482  -0.55799
 Alpha  occ. eigenvalues --   -0.54056  -0.53871  -0.53127  -0.52945  -0.49654
 Alpha  occ. eigenvalues --   -0.49608  -0.48823  -0.48813  -0.45545  -0.44814
 Alpha  occ. eigenvalues --   -0.38555  -0.37644  -0.37344  -0.36452
 Alpha virt. eigenvalues --    0.04016   0.05042   0.09937   0.11190   0.15387
 Alpha virt. eigenvalues --    0.16509   0.19945   0.21799   0.25757   0.26907
 Alpha virt. eigenvalues --    0.27556   0.29005   0.29820   0.31203   0.32166

 Mulliken charges:
               1
     1  C   -0.184707
     2  C   -0.229387
     3  C   -0.167723
     4  C    0.161824
     5  C   -0.168650
     6  C   -0.218116
     7  H    0.229376
     8  H    0.226118
     9  H    0.278940
    10  H    0.280266
    11  H    0.226959
    12  N    0.488093
    13  O   -0.456379
    14  O   -0.457352
    15  C   -0.172904
    16  C   -0.222738
    17  C   -0.169234
    18  C    0.157917
    19  C   -0.169706
    20  C   -0.222854
    21  H    0.233631
    22  H    0.219040
    23  H    0.276097
    24  H    0.275321
    25  H    0.218504
    26  N    0.488143
    27  O   -0.460534
    28  O   -0.459943
 Sum of Mulliken charges =  -0.00000

 Dipole moment (field-independent basis, Debye):
    X=              3.8444    Y=             -7.1743    Z=              1.1016  Tot=              8.2136
 Quadrupole moment (field-independent basis, Debye-Ang):
   XX=           -144.2318   YY=           -109.0151   ZZ=            -95.4668
   XY=             -8.9735   XZ=             -1.9280   YZ=              2.9449

 Normal termination of Gaussian 16 at Thu May  6 08:03:12 2021.
