 Gaussian 16, Revision A.03,
 Gaussian 16:  EM64L-G16RevA.03 25-Dec-2016

 -------------
 #p 6-31g* mp2
 -------------

 ------------------------------------------------------
 Input file generated by CHIRIPA (05-May-2021 14:51:10)
 ------------------------------------------------------
 Symbolic Z-matrix:
 Charge =  0 Multiplicity = 1

                         Standard orientation:
 ---------------------------------------------------------------------
 Center     Atomic      Atomic             Coordinates (Angstroms)
 Number     Number       Type             X           Y           Z
 ---------------------------------------------------------------------
      1          6           0       -2.643587   -0.855686    0.175260
      2          6           0       -1.577538   -0.788391    1.269333
      3          6           0       -0.542435   -1.907973    1.155786
      4          1           0       -3.148566   -1.830160    0.223657
      5          1           0       -2.154284   -0.805660   -0.807326
      6          1           0       -2.068814   -0.837136    2.249581
      7          1           0       -1.075168    0.186109    1.218448
      8          1           0       -0.025957   -1.858798    0.191715
      9          1           0       -1.025249   -2.887858    1.228706
     10          1           0        0.210108   -1.840794    1.947635
     11          6           0       -3.685516    0.257007    0.275393
     12          6           0       -4.751565    0.189711   -0.818680
     13          6           0       -5.786668    1.309293   -0.705133
     14          1           0       -4.174819    0.206980    1.257979
     15          1           0       -3.180537    1.231480    0.226996
     16          1           0       -5.253934   -0.784789   -0.767795
     17          1           0       -4.260288    0.238457   -1.798929
     18          1           0       -5.303854    2.289178   -0.778053
     19          1           0       -6.303146    1.260119    0.258938
     20          1           0       -6.539211    1.242114   -1.496983
     21          6           0        3.173375    0.891529    0.257028
     22          6           0        3.153876    2.248194   -0.448000
     23          6           0        3.171848    3.423111    0.530286
     24          1           0        2.308138    0.822988    0.930536
     25          1           0        4.068685    0.828390    0.890927
     26          1           0        2.259585    2.308211   -1.081449
     27          1           0        4.019154    2.313439   -1.120053
     28          1           0        4.070850    3.391121    1.154283
     29          1           0        2.301284    3.385864    1.193105
     30          1           0        3.157471    4.383169    0.004984
     31          6           0        3.155728   -0.292850   -0.707680
     32          6           0        3.175227   -1.649515   -0.002653
     33          6           0        3.157254   -2.824431   -0.980939
     34          1           0        2.260417   -0.229710   -1.341579
     35          1           0        4.020963   -0.224308   -1.381189
     36          1           0        2.309949   -1.714758    0.669399
     37          1           0        4.069518   -1.709531    0.630796
     38          1           0        4.027819   -2.787185   -1.643759
     39          1           0        2.258253   -2.792441   -1.604936
     40          1           0        3.171632   -3.784489   -0.455636
 ---------------------------------------------------------------------

 SCF Done:  E(RHF) =  -470.732512806     A.U. after   11 cycles
 E2 =    -0.1583560084D+01 EUMP2 =    -0.47231607288999D+03

 The electronic state is 1-A.
 Alpha  occ. eigenvalues --  -11.21696 -11.21644 -11.21600 -11.21473 -11.21415
 Alpha  occ. eigenvalues --  -11.21410 -11.21373 -11.21309 -11.21161 -11.21104
 Alpha  occ. eigenvalues --  -11.21075 -11.21002  -1.08504  -1.08385  -1.03619
 Alpha  occ. eigenvalues --   -1.03467  -0.96065  -0.95936  -0.87095  -0.86944
 Alpha  occ. eigenvalues --   -0.79724  -0.79497  -0.78313  -0.78197  -0.65237
 Alpha  occ. eigenvalues --   -0.64953  -0.61177  -0.60742  -0.59463  -0.59269
 Alpha  occ. eigenvalues --   -0.57664  -0.57548  -0.55384  -0.55191  -0.52795
 Alpha  occ. eigenvalues --   -0.52618  -0.52471  -0.52358  -0.50087  -0.49811
 Alpha  occ. eigenvalues --   -0.47982  -0.47857  -0.46808  -0.46448  -0.45877
 Alpha  occ. eigenvalues --   -0.45783  -0.45706  -0.45611  -0.43814  -0.43725
 Alpha virt. eigenvalues --    0.20359   0.23174   0.23722   0.24430   0.26233
 Alpha virt. eigenvalues --    0.26394   0.27064   0.27729   0.28048   0.29416
 Alpha virt. eigenvalues --    0.30294   0.30990   0.31769   0.31864   0.32553

 Mulliken charges:
               1
     1  C   -0.298708
     2  C   -0.300233
     3  C   -0.480991
     4  H    0.150080
     5  H    0.149461
     6  H    0.152521
     7  H    0.151774
     8  H    0.159695
     9  H    0.156180
    10  H    0.161874
    11  C   -0.298382
    12  C   -0.299714
    13  C   -0.475754
    14  H    0.149754
    15  H    0.149656
    16  H    0.152075
    17  H    0.151967
    18  H    0.155253
    19  H    0.155270
    20  H    0.160425
    21  C   -0.299139
    22  C   -0.299506
    23  C   -0.475660
    24  H    0.149980
    25  H    0.149668
    26  H    0.151350
    27  H    0.152081
    28  H    0.155301
    29  H    0.154930
    30  H    0.160183
    31  C   -0.297910
    32  C   -0.309154
    33  C   -0.475628
    34  H    0.147938
    35  H    0.149532
    36  H    0.163546
    37  H    0.150979
    38  H    0.154802
    39  H    0.154167
    40  H    0.160337
 Sum of Mulliken charges =  -0.00000

 Dipole moment (field-independent basis, Debye):
    X=             -0.0564    Y=             -0.0230    Z=              0.0339  Tot=              0.0697
 Quadrupole moment (field-independent basis, Debye-Ang):
   XX=            -84.1695   YY=            -85.8898   ZZ=            -84.7805
   XY=              1.0159   XZ=             -0.3716   YZ=             -0.9466

 Normal termination of Gaussian 16 at Wed May  5 19:45:48 2021.
