 Gaussian 16, Revision A.03,
 Gaussian 16:  EM64L-G16RevA.03 25-Dec-2016

 -------------
 #p 6-31g* mp2
 -------------

 ------------------------------------------------------
 Input file generated by CHIRIPA (05-May-2021 14:53:11)
 ------------------------------------------------------
 Symbolic Z-matrix:
 Charge =  0 Multiplicity = 1

                         Standard orientation:
 ---------------------------------------------------------------------
 Center     Atomic      Atomic             Coordinates (Angstroms)
 Number     Number       Type             X           Y           Z
 ---------------------------------------------------------------------
      1          6           0        6.064384   -0.169260   -0.323335
      2          6           0        7.329262   -0.217914    0.534394
      3          6           0        8.584077   -0.533758   -0.280147
      4          1           0        5.938360   -1.133491   -0.834533
      5          1           0        6.192066    0.587231   -1.109982
      6          1           0        7.198693   -0.973117    1.320037
      7          1           0        7.452185    0.746479    1.043759
      8          1           0        8.742006    0.224427   -1.053978
      9          1           0        8.487074   -1.504940   -0.776130
     10          1           0        9.476534   -0.563644    0.352692
     11          6           0        4.801615    0.145432    0.476736
     12          6           0        3.536736    0.194086   -0.380993
     13          6           0        2.281922    0.509930    0.433548
     14          1           0        4.673933   -0.611059    1.263382
     15          1           0        4.927638    1.109662    0.987933
     16          1           0        3.413814   -0.770307   -0.890358
     17          1           0        3.667306    0.949289   -1.166637
     18          1           0        2.378925    1.481111    0.929530
     19          1           0        2.123993   -0.248255    1.207379
     20          1           0        1.389464    0.539816   -0.199291
     21          6           0       -1.894913    0.874292   -0.371401
     22          6           0       -2.951974    1.771093   -0.184612
     23          6           0       -4.257878    1.303083   -0.011032
     24          6           0       -4.471683   -0.074316   -0.029810
     25          6           0       -3.439474   -0.993008   -0.213766
     26          6           0       -2.141602   -0.502469   -0.385357
     27          1           0       -0.883575    1.246605   -0.505470
     28          1           0       -2.763351    2.840830   -0.173323
     29          1           0       -5.094723    1.975130    0.135468
     30          1           0       -3.658668   -2.053824   -0.220271
     31          1           0       -1.322612   -1.201265   -0.530221
     32          7           0       -5.849934   -0.581702    0.152899
     33          8           0       -6.011986   -1.799879    0.132347
     34          8           0       -6.742058    0.248391    0.313199
 ---------------------------------------------------------------------

 SCF Done:  E(RHF) =  -669.535462499     A.U. after   15 cycles
 E2 =    -0.2090715525D+01 EUMP2 =    -0.67162617802438D+03

 The electronic state is 1-A.
 Alpha  occ. eigenvalues --  -20.60718 -20.60713 -15.85772 -11.31126 -11.27698
 Alpha  occ. eigenvalues --  -11.27695 -11.27409 -11.26706 -11.26694 -11.22536
 Alpha  occ. eigenvalues --  -11.22317 -11.22113 -11.22081 -11.21952 -11.21473
 Alpha  occ. eigenvalues --   -1.59794  -1.39348  -1.19298  -1.09128  -1.08693
 Alpha  occ. eigenvalues --   -1.04702  -1.04271  -0.96740  -0.95531  -0.87762
 Alpha  occ. eigenvalues --   -0.86098  -0.82366  -0.80339  -0.78895  -0.77414
 Alpha  occ. eigenvalues --   -0.71990  -0.71118  -0.70428  -0.65751  -0.64951
 Alpha  occ. eigenvalues --   -0.64712  -0.62053  -0.61656  -0.60180  -0.58336
 Alpha  occ. eigenvalues --   -0.56008  -0.55251  -0.53417  -0.53145  -0.53024
 Alpha  occ. eigenvalues --   -0.52792  -0.50660  -0.48750  -0.48746  -0.48649
 Alpha  occ. eigenvalues --   -0.47350  -0.46448  -0.46343  -0.44756  -0.44519
 Alpha  occ. eigenvalues --   -0.37270  -0.36308
 Alpha virt. eigenvalues --    0.05121   0.11344   0.16611   0.19725   0.22403
 Alpha virt. eigenvalues --    0.23829   0.25886   0.25997   0.26847   0.27456
 Alpha virt. eigenvalues --    0.28390   0.30500   0.30716   0.31388   0.32131

 Mulliken charges:
               1
     1  C   -0.298783
     2  C   -0.300163
     3  C   -0.476066
     4  H    0.150429
     5  H    0.150215
     6  H    0.152755
     7  H    0.152573
     8  H    0.155631
     9  H    0.155759
    10  H    0.161720
    11  C   -0.299391
    12  C   -0.299082
    13  C   -0.479981
    14  H    0.151065
    15  H    0.150921
    16  H    0.152834
    17  H    0.153282
    18  H    0.158697
    19  H    0.159839
    20  H    0.149000
    21  C   -0.174590
    22  C   -0.219321
    23  C   -0.170819
    24  C    0.158219
    25  C   -0.171020
    26  C   -0.220396
    27  H    0.232278
    28  H    0.223599
    29  H    0.275328
    30  H    0.275356
    31  H    0.223293
    32  N    0.488056
    33  O   -0.460648
    34  O   -0.460589
 Sum of Mulliken charges =  -0.00000

 Dipole moment (field-independent basis, Debye):
    X=              5.1192    Y=              1.7841    Z=             -0.6035  Tot=              5.4547
 Quadrupole moment (field-independent basis, Debye-Ang):
   XX=           -138.2844   YY=            -89.6835   ZZ=            -95.7559
   XY=             -9.8861   XZ=              3.0855   YZ=              0.1984

 Normal termination of Gaussian 16 at Wed May  5 16:56:22 2021.
