 Gaussian 16, Revision A.03,
 Gaussian 16:  EM64L-G16RevA.03 25-Dec-2016

 -------------
 #p 6-31g* mp2
 -------------

 ------------------------------------------------------
 Input file generated by CHIRIPA (05-May-2021 14:51:11)
 ------------------------------------------------------
 Symbolic Z-matrix:
 Charge =  0 Multiplicity = 1

                         Standard orientation:
 ---------------------------------------------------------------------
 Center     Atomic      Atomic             Coordinates (Angstroms)
 Number     Number       Type             X           Y           Z
 ---------------------------------------------------------------------
      1          6           0       -1.604336   -1.143940   -0.086723
      2          6           0       -1.162282   -2.563606    0.269818
      3          6           0        0.342186   -2.775087    0.097638
      4          1           0       -1.318717   -0.927743   -1.125292
      5          1           0       -1.058062   -0.428218    0.543137
      6          1           0       -1.710240   -3.276510   -0.359567
      7          1           0       -1.449156   -2.776516    1.307598
      8          1           0        0.903695   -2.086733    0.737542
      9          1           0        0.641128   -2.589568   -0.939096
     10          1           0        0.636387   -3.796631    0.357933
     11          6           0       -3.105774   -0.917008    0.080349
     12          6           0       -3.547828    0.502658   -0.276192
     13          6           0       -5.052296    0.714139   -0.104012
     14          1           0       -3.652047   -1.632730   -0.549511
     15          1           0       -3.391392   -1.133205    1.118918
     16          1           0       -3.260954    0.715568   -1.313972
     17          1           0       -2.999870    1.215562    0.353194
     18          1           0       -5.351238    0.528620    0.932722
     19          1           0       -5.613805    0.025785   -0.743916
     20          1           0       -5.346496    1.735683   -0.364307
     21          6           0        1.886206    1.531379   -0.332532
     22          6           0        1.077953    2.365824    0.661658
     23          6           0        0.144622    3.363312   -0.025151
     24          1           0        2.473100    2.203354   -0.973586
     25          1           0        1.195068    0.992033   -0.994973
     26          1           0        1.770398    2.902360    1.322918
     27          1           0        0.493063    1.691775    1.300545
     28          1           0       -0.568906    2.841468   -0.671029
     29          1           0        0.715687    4.058930   -0.648529
     30          1           0       -0.423472    3.949252    0.704097
     31          6           0        2.823903    0.529569    0.338906
     32          6           0        3.632157   -0.304877   -0.655283
     33          6           0        4.565488   -1.302363    0.031525
     34          1           0        3.515042    1.068915    1.001347
     35          1           0        2.237010   -0.142407    0.979960
     36          1           0        4.217047    0.369172   -1.294171
     37          1           0        2.939712   -0.841412   -1.316545
     38          1           0        3.994423   -1.997983    0.654903
     39          1           0        5.279016   -0.780520    0.677403
     40          1           0        5.133582   -1.888304   -0.697723
 ---------------------------------------------------------------------

 SCF Done:  E(RHF) =  -470.733011061     A.U. after   11 cycles
 E2 =    -0.1585066661D+01 EUMP2 =    -0.47231807772174D+03

 The electronic state is 1-A.
 Alpha  occ. eigenvalues --  -11.21695 -11.21652 -11.21578 -11.21514 -11.21496
 Alpha  occ. eigenvalues --  -11.21428 -11.21334 -11.21274 -11.21159 -11.21105
 Alpha  occ. eigenvalues --  -11.21027 -11.20990  -1.08527  -1.08358  -1.03610
 Alpha  occ. eigenvalues --   -1.03466  -0.96057  -0.95918  -0.87092  -0.86918
 Alpha  occ. eigenvalues --   -0.79674  -0.79536  -0.78335  -0.78194  -0.65267
 Alpha  occ. eigenvalues --   -0.64904  -0.61029  -0.60877  -0.59420  -0.59290
 Alpha  occ. eigenvalues --   -0.57665  -0.57519  -0.55401  -0.55157  -0.52741
 Alpha  occ. eigenvalues --   -0.52617  -0.52494  -0.52348  -0.50083  -0.49770
 Alpha  occ. eigenvalues --   -0.48051  -0.47796  -0.46801  -0.46542  -0.46092
 Alpha  occ. eigenvalues --   -0.45932  -0.45492  -0.45342  -0.43859  -0.43724
 Alpha virt. eigenvalues --    0.19426   0.21848   0.23714   0.24557   0.24604
 Alpha virt. eigenvalues --    0.25823   0.27619   0.27876   0.28205   0.30052
 Alpha virt. eigenvalues --    0.30452   0.31313   0.31639   0.31914   0.32356

 Mulliken charges:
               1
     1  C   -0.304034
     2  C   -0.299761
     3  C   -0.482379
     4  H    0.149711
     5  H    0.154371
     6  H    0.152472
     7  H    0.152197
     8  H    0.160681
     9  H    0.156182
    10  H    0.160982
    11  C   -0.298183
    12  C   -0.301809
    13  C   -0.475774
    14  H    0.149930
    15  H    0.149869
    16  H    0.151773
    17  H    0.154364
    18  H    0.155280
    19  H    0.155261
    20  H    0.160732
    21  C   -0.300217
    22  C   -0.301358
    23  C   -0.477785
    24  H    0.149431
    25  H    0.152469
    26  H    0.151869
    27  H    0.152095
    28  H    0.158042
    29  H    0.155017
    30  H    0.159539
    31  C   -0.302005
    32  C   -0.300801
    33  C   -0.476680
    34  H    0.149315
    35  H    0.152391
    36  H    0.151463
    37  H    0.154258
    38  H    0.156583
    39  H    0.154602
    40  H    0.159909
 Sum of Mulliken charges =  -0.00000

 Dipole moment (field-independent basis, Debye):
    X=             -0.0470    Y=             -0.0335    Z=             -0.0094  Tot=              0.0584
 Quadrupole moment (field-independent basis, Debye-Ang):
   XX=            -85.9118   YY=            -84.9035   ZZ=            -83.9596
   XY=              1.4180   XZ=             -0.0427   YZ=              0.5029

 Normal termination of Gaussian 16 at Wed May  5 18:16:00 2021.
