 Gaussian 16, Revision A.03,
 Gaussian 16:  EM64L-G16RevA.03 25-Dec-2016

 -------------
 #p 6-31g* mp2
 -------------

 ------------------------------------------------------
 Input file generated by CHIRIPA (05-May-2021 14:55:19)
 ------------------------------------------------------
 Symbolic Z-matrix:
 Charge =  0 Multiplicity = 1

                         Standard orientation:
 ---------------------------------------------------------------------
 Center     Atomic      Atomic             Coordinates (Angstroms)
 Number     Number       Type             X           Y           Z
 ---------------------------------------------------------------------
      1          6           0       -2.897820    2.373981    0.136845
      2          6           0       -3.130010    1.609905   -1.011544
      3          6           0       -2.760295    0.262309   -1.054483
      4          6           0       -2.157836   -0.291497    0.074070
      5          6           0       -1.913200    0.443606    1.232978
      6          6           0       -2.291226    1.789423    1.253472
      7          1           0       -3.188252    3.420135    0.161483
      8          1           0       -3.600922    2.061235   -1.880214
      9          1           0       -2.928313   -0.352300   -1.930521
     10          1           0       -1.441914   -0.034178    2.083290
     11          1           0       -2.109675    2.380394    2.146690
     12          7           0       -1.762036   -1.717195    0.040493
     13          8           0       -1.232836   -2.181563    1.047939
     14          8           0       -1.988503   -2.343293   -0.992633
     15          6           0        3.145023    0.713856    0.184821
     16          6           0        2.791448    1.962391   -0.623960
     17          6           0        3.397881    3.237751   -0.037879
     18          1           0        2.798643    0.844519    1.219178
     19          1           0        4.238219    0.613222    0.231633
     20          1           0        1.699223    2.059877   -0.670402
     21          1           0        3.138540    1.828663   -1.656559
     22          1           0        4.489891    3.166026   -0.006715
     23          1           0        3.042396    3.398554    0.985045
     24          1           0        3.132516    4.118068   -0.631583
     25          6           0        2.546031   -0.569154   -0.388608
     26          6           0        2.899606   -1.817690    0.420174
     27          6           0        2.293173   -3.093048   -0.165908
     28          1           0        1.452836   -0.468519   -0.435419
     29          1           0        2.892411   -0.699816   -1.422963
     30          1           0        2.552514   -1.683960    1.452773
     31          1           0        3.991832   -1.915174    0.466616
     32          1           0        2.648658   -3.253851   -1.188832
     33          1           0        1.201163   -3.021323   -0.197071
     34          1           0        2.558538   -3.973365    0.427797
 ---------------------------------------------------------------------

 SCF Done:  E(RHF) =  -669.536510729     A.U. after   15 cycles
 E2 =    -0.2092475018D+01 EUMP2 =    -0.67162898574681D+03

 The electronic state is 1-A.
 Alpha  occ. eigenvalues --  -20.61035 -20.61028 -15.86051 -11.31366 -11.27924
 Alpha  occ. eigenvalues --  -11.27908 -11.27645 -11.26913 -11.26901 -11.21516
 Alpha  occ. eigenvalues --  -11.21131 -11.21116 -11.20894 -11.20759 -11.19734
 Alpha  occ. eigenvalues --   -1.60090  -1.39643  -1.19523  -1.08929  -1.08021
 Alpha  occ. eigenvalues --   -1.04911  -1.03011  -0.95774  -0.95446  -0.86464
 Alpha  occ. eigenvalues --   -0.86311  -0.82603  -0.79131  -0.77782  -0.77662
 Alpha  occ. eigenvalues --   -0.72260  -0.71416  -0.70624  -0.65175  -0.64910
 Alpha  occ. eigenvalues --   -0.64654  -0.62256  -0.60394  -0.58913  -0.57050
 Alpha  occ. eigenvalues --   -0.55415  -0.54732  -0.53241  -0.53000  -0.52135
 Alpha  occ. eigenvalues --   -0.51872  -0.49490  -0.49025  -0.48937  -0.47407
 Alpha  occ. eigenvalues --   -0.46172  -0.45364  -0.45270  -0.44904  -0.43291
 Alpha  occ. eigenvalues --   -0.37491  -0.36507
 Alpha virt. eigenvalues --    0.04821   0.11131   0.16313   0.21256   0.23057
 Alpha virt. eigenvalues --    0.24787   0.26691   0.27212   0.27707   0.28274
 Alpha virt. eigenvalues --    0.28649   0.30824   0.31895   0.32030   0.32479

 Mulliken charges:
               1
     1  C   -0.170333
     2  C   -0.218560
     3  C   -0.170686
     4  C    0.158859
     5  C   -0.171354
     6  C   -0.218628
     7  H    0.226472
     8  H    0.224248
     9  H    0.276349
    10  H    0.276042
    11  H    0.224223
    12  N    0.487950
    13  O   -0.459589
    14  O   -0.458467
    15  C   -0.297162
    16  C   -0.299572
    17  C   -0.474936
    18  H    0.146391
    19  H    0.149568
    20  H    0.149892
    21  H    0.152267
    22  H    0.156237
    23  H    0.152321
    24  H    0.157828
    25  C   -0.296613
    26  C   -0.298006
    27  C   -0.483368
    28  H    0.144333
    29  H    0.149105
    30  H    0.152380
    31  H    0.147074
    32  H    0.148647
    33  H    0.179215
    34  H    0.157874
 Sum of Mulliken charges =  -0.00000

 Dipole moment (field-independent basis, Debye):
    X=             -1.6429    Y=              4.9384    Z=              0.1195  Tot=              5.2059
 Quadrupole moment (field-independent basis, Debye-Ang):
   XX=            -88.6950   YY=            -99.2932   ZZ=            -90.2330
   XY=            -10.9685   XZ=              1.0001   YZ=              0.4806

 Normal termination of Gaussian 16 at Thu May  6 12:24:59 2021.
