 Gaussian 16, Revision A.03,
 Gaussian 16:  EM64L-G16RevA.03 25-Dec-2016

 -------------
 #p 6-31g* mp2
 -------------

 ------------------------------------------------------
 Input file generated by CHIRIPA (05-May-2021 14:51:13)
 ------------------------------------------------------
 Symbolic Z-matrix:
 Charge =  0 Multiplicity = 1

                         Standard orientation:
 ---------------------------------------------------------------------
 Center     Atomic      Atomic             Coordinates (Angstroms)
 Number     Number       Type             X           Y           Z
 ---------------------------------------------------------------------
      1          6           0        4.261057   -0.152815   -0.234890
      2          6           0        3.169565    0.431008    0.662764
      3          6           0        1.767548    0.257158    0.078026
      4          1           0        4.211523    0.327861   -1.221522
      5          1           0        4.060276   -1.220881   -0.397115
      6          1           0        3.373107    1.497342    0.824377
      7          1           0        3.221826   -0.050977    1.647435
      8          1           0        1.539541   -0.803750   -0.067186
      9          1           0        1.691682    0.753365   -0.894920
     10          1           0        1.002727    0.681588    0.735877
     11          6           0        5.668197    0.013259    0.336163
     12          6           0        6.759689   -0.570563   -0.561491
     13          6           0        8.161706   -0.396713    0.023248
     14          1           0        5.868978    1.081326    0.498389
     15          1           0        5.717731   -0.467416    1.322795
     16          1           0        6.707428   -0.088578   -1.546161
     17          1           0        6.556147   -1.636897   -0.723104
     18          1           0        8.237572   -0.892921    0.996194
     19          1           0        8.389713    0.664195    0.168460
     20          1           0        8.926527   -0.821143   -0.634604
     21          6           0       -4.220126   -0.078731    0.033592
     22          6           0       -3.322572    1.113774   -0.298544
     23          6           0       -1.835963    0.801107   -0.125259
     24          1           0       -4.028943   -0.396632    1.067677
     25          1           0       -3.945270   -0.926036   -0.609778
     26          1           0       -3.599963    1.959007    0.344303
     27          1           0       -3.516051    1.428995   -1.331897
     28          1           0       -1.537473   -0.025425   -0.778213
     29          1           0       -1.621861    0.507598    0.907511
     30          1           0       -1.212578    1.667335   -0.367951
     31          6           0       -5.709129    0.218286   -0.134865
     32          6           0       -6.606682   -0.974220    0.197271
     33          6           0       -8.093291   -0.661552    0.023985
     34          1           0       -5.983984    1.065591    0.508504
     35          1           0       -5.900312    0.536188   -1.168951
     36          1           0       -6.413204   -1.289440    1.230624
     37          1           0       -6.329291   -1.819451   -0.445577
     38          1           0       -8.307392   -0.368042   -1.008785
     39          1           0       -8.391781    0.164981    0.676939
     40          1           0       -8.716677   -1.527779    0.266678
 ---------------------------------------------------------------------

 SCF Done:  E(RHF) =  -470.732845390     A.U. after   11 cycles
 E2 =    -0.1582425595D+01 EUMP2 =    -0.47231527098516D+03

 The electronic state is 1-A.
 Alpha  occ. eigenvalues --  -11.21582 -11.21569 -11.21534 -11.21505 -11.21374
 Alpha  occ. eigenvalues --  -11.21352 -11.21314 -11.21290 -11.21057 -11.21046
 Alpha  occ. eigenvalues --  -11.20978 -11.20894  -1.08398  -1.08369  -1.03514
 Alpha  occ. eigenvalues --   -1.03439  -0.96018  -0.95836  -0.87105  -0.86784
 Alpha  occ. eigenvalues --   -0.79675  -0.79409  -0.78219  -0.78174  -0.65027
 Alpha  occ. eigenvalues --   -0.65004  -0.60895  -0.60862  -0.59458  -0.59151
 Alpha  occ. eigenvalues --   -0.57552  -0.57525  -0.55235  -0.55193  -0.53022
 Alpha  occ. eigenvalues --   -0.52429  -0.52333  -0.52135  -0.49887  -0.49843
 Alpha  occ. eigenvalues --   -0.47869  -0.47841  -0.46587  -0.46559  -0.45765
 Alpha  occ. eigenvalues --   -0.45722  -0.45668  -0.45655  -0.43924  -0.43485
 Alpha virt. eigenvalues --    0.22548   0.22998   0.23629   0.24816   0.26578
 Alpha virt. eigenvalues --    0.26652   0.26689   0.27546   0.27589   0.29216
 Alpha virt. eigenvalues --    0.30329   0.31088   0.31316   0.32134   0.32280

 Mulliken charges:
               1
     1  C   -0.298372
     2  C   -0.300596
     3  C   -0.476636
     4  H    0.149360
     5  H    0.149266
     6  H    0.151250
     7  H    0.151297
     8  H    0.154100
     9  H    0.154198
    10  H    0.166617
    11  C   -0.298134
    12  C   -0.299546
    13  C   -0.475655
    14  H    0.149359
    15  H    0.149499
    16  H    0.151833
    17  H    0.151831
    18  H    0.155115
    19  H    0.155113
    20  H    0.160122
    21  C   -0.298355
    22  C   -0.301302
    23  C   -0.474179
    24  H    0.149449
    25  H    0.149425
    26  H    0.151386
    27  H    0.151578
    28  H    0.156898
    29  H    0.154096
    30  H    0.161235
    31  C   -0.298196
    32  C   -0.299582
    33  C   -0.475677
    34  H    0.149420
    35  H    0.149586
    36  H    0.151859
    37  H    0.151879
    38  H    0.155149
    39  H    0.155138
    40  H    0.160174
 Sum of Mulliken charges =  -0.00000

 Dipole moment (field-independent basis, Debye):
    X=             -0.0203    Y=              0.0022    Z=             -0.0026  Tot=              0.0206
 Quadrupole moment (field-independent basis, Debye-Ang):
   XX=            -87.5815   YY=            -83.9042   ZZ=            -83.6914
   XY=              0.1157   XZ=             -0.4855   YZ=             -0.1436

 Normal termination of Gaussian 16 at Thu May  6 05:32:15 2021.
