 Gaussian 16, Revision A.03,
 Gaussian 16:  EM64L-G16RevA.03 25-Dec-2016

 -------------
 #p 6-31g* mp2
 -------------

 ------------------------------------------------------
 Input file generated by CHIRIPA (05-May-2021 14:53:15)
 ------------------------------------------------------
 Symbolic Z-matrix:
 Charge =  0 Multiplicity = 1

                         Standard orientation:
 ---------------------------------------------------------------------
 Center     Atomic      Atomic             Coordinates (Angstroms)
 Number     Number       Type             X           Y           Z
 ---------------------------------------------------------------------
      1          6           0        3.547669    0.421631   -0.541017
      2          6           0        3.568958    1.950504   -0.532192
      3          6           0        2.332768    2.562743   -1.191581
      4          1           0        3.470769    0.068320   -1.578419
      5          1           0        2.643674    0.071469   -0.023740
      6          1           0        4.473344    2.297661   -1.048122
      7          1           0        3.646009    2.300214    0.505296
      8          1           0        1.422352    2.244825   -0.673245
      9          1           0        2.254388    2.242257   -2.235490
     10          1           0        2.368665    3.656485   -1.174260
     11          6           0        4.776872   -0.205151    0.114674
     12          6           0        4.755584   -1.734025    0.105850
     13          6           0        5.991773   -2.346263    0.765238
     14          1           0        5.680867    0.145011   -0.402602
     15          1           0        4.853772    0.148160    1.152076
     16          1           0        4.678533   -2.083734   -0.931639
     17          1           0        3.851197   -2.081181    0.621780
     18          1           0        6.070153   -2.025777    1.809147
     19          1           0        6.902189   -2.028345    0.246902
     20          1           0        5.955876   -3.440005    0.747918
     21          6           0       -1.314271    1.066914    1.300606
     22          6           0       -1.130301    0.443257    0.062168
     23          6           0       -2.196693   -0.197773   -0.575355
     24          6           0       -3.439084   -0.195883    0.056903
     25          6           0       -3.654009    0.416641    1.290560
     26          6           0       -2.573318    1.051642    1.909776
     27          1           0       -0.480317    1.562540    1.788738
     28          1           0       -0.153621    0.453534   -0.413263
     29          1           0       -2.082180   -0.688389   -1.534313
     30          1           0       -4.639335    0.389724    1.739812
     31          1           0       -2.719116    1.535164    2.871542
     32          7           0       -4.575595   -0.871322   -0.608323
     33          8           0       -5.660246   -0.855582   -0.030465
     34          8           0       -4.360221   -1.403682   -1.694990
 ---------------------------------------------------------------------

 SCF Done:  E(RHF) =  -669.535403159     A.U. after   15 cycles
 E2 =    -0.2091460187D+01 EUMP2 =    -0.67162686334564D+03

 The electronic state is 1-A.
 Alpha  occ. eigenvalues --  -20.60739 -20.60734 -15.85791 -11.31159 -11.27730
 Alpha  occ. eigenvalues --  -11.27716 -11.27476 -11.26748 -11.26700 -11.22551
 Alpha  occ. eigenvalues --  -11.22357 -11.22202 -11.22160 -11.22102 -11.21551
 Alpha  occ. eigenvalues --   -1.59814  -1.39367  -1.19330  -1.09262  -1.08728
 Alpha  occ. eigenvalues --   -1.04733  -1.04324  -0.96785  -0.95562  -0.87800
 Alpha  occ. eigenvalues --   -0.86136  -0.82392  -0.80396  -0.79062  -0.77437
 Alpha  occ. eigenvalues --   -0.72011  -0.71137  -0.70446  -0.65923  -0.64983
 Alpha  occ. eigenvalues --   -0.64748  -0.62146  -0.61660  -0.60151  -0.58382
 Alpha  occ. eigenvalues --   -0.56093  -0.55240  -0.53448  -0.53261  -0.53043
 Alpha  occ. eigenvalues --   -0.52805  -0.50730  -0.48808  -0.48765  -0.48656
 Alpha  occ. eigenvalues --   -0.47423  -0.46587  -0.46506  -0.44772  -0.44577
 Alpha  occ. eigenvalues --   -0.37313  -0.36329
 Alpha virt. eigenvalues --    0.05094   0.11229   0.16585   0.19019   0.22570
 Alpha virt. eigenvalues --    0.23798   0.25183   0.26300   0.27059   0.27748
 Alpha virt. eigenvalues --    0.28884   0.30038   0.31063   0.31392   0.31648

 Mulliken charges:
               1
     1  C   -0.300720
     2  C   -0.300634
     3  C   -0.479400
     4  H    0.152233
     5  H    0.142650
     6  H    0.156927
     7  H    0.151526
     8  H    0.146261
     9  H    0.159036
    10  H    0.165710
    11  C   -0.298453
    12  C   -0.300443
    13  C   -0.476185
    14  H    0.152424
    15  H    0.149968
    16  H    0.153427
    17  H    0.151740
    18  H    0.155478
    19  H    0.156344
    20  H    0.162519
    21  C   -0.172629
    22  C   -0.224949
    23  C   -0.171741
    24  C    0.158877
    25  C   -0.171191
    26  C   -0.218500
    27  H    0.225024
    28  H    0.232704
    29  H    0.276095
    30  H    0.275530
    31  H    0.223271
    32  N    0.487978
    33  O   -0.460529
    34  O   -0.460348
 Sum of Mulliken charges =  -0.00000

 Dipole moment (field-independent basis, Debye):
    X=              4.2250    Y=              2.3842    Z=              2.2980  Tot=              5.3681
 Quadrupole moment (field-independent basis, Debye-Ang):
   XX=           -120.4467   YY=            -96.2420   ZZ=            -91.1449
   XY=             -9.3494   XZ=            -11.4936   YZ=              0.9871

 Normal termination of Gaussian 16 at Thu May  6 04:15:15 2021.
