 Gaussian 16, Revision A.03,
 Gaussian 16:  EM64L-G16RevA.03 25-Dec-2016

 -------------
 #p 6-31g* mp2
 -------------

 ------------------------------------------------------
 Input file generated by CHIRIPA (05-May-2021 14:57:22)
 ------------------------------------------------------
 Symbolic Z-matrix:
 Charge =  0 Multiplicity = 1

                         Standard orientation:
 ---------------------------------------------------------------------
 Center     Atomic      Atomic             Coordinates (Angstroms)
 Number     Number       Type             X           Y           Z
 ---------------------------------------------------------------------
      1          6           0       -4.917571    0.605994    1.659329
      2          6           0       -5.133458    0.888153    0.306443
      3          6           0       -4.210116    0.479035   -0.660309
      4          6           0       -3.076673   -0.213355   -0.236996
      5          6           0       -2.833408   -0.509544    1.103296
      6          6           0       -3.770258   -0.090725    2.052744
      7          1           0       -5.640092    0.927575    2.403604
      8          1           0       -6.023583    1.429071   -0.001987
      9          1           0       -4.352390    0.684179   -1.714393
     10          1           0       -1.936679   -1.050482    1.380208
     11          1           0       -3.599992   -0.311247    3.102708
     12          7           0       -2.092022   -0.651605   -1.251294
     13          8           0       -1.101401   -1.260146   -0.852566
     14          8           0       -2.329519   -0.378266   -2.425823
     15          6           0        3.322112   -2.356067    0.420589
     16          6           0        4.141569   -1.514801    1.180381
     17          6           0        4.103842   -0.129673    0.994523
     18          6           0        3.230916    0.382546    0.035918
     19          6           0        2.402089   -0.429509   -0.736677
     20          6           0        2.456514   -1.811695   -0.533833
     21          1           0        3.357906   -3.430925    0.571566
     22          1           0        4.814776   -1.934778    1.922309
     23          1           0        4.727312    0.544654    1.568967
     24          1           0        1.741244    0.018530   -1.468772
     25          1           0        1.818968   -2.462618   -1.125339
     26          7           0        3.182137    1.847362   -0.169834
     27          8           0        2.404443    2.273819   -1.020694
     28          8           0        3.922523    2.541293    0.523655
 ---------------------------------------------------------------------

 SCF Done:  E(RHF) =  -868.340222074     A.U. after   16 cycles
 E2 =    -0.2599034504D+01 EUMP2 =    -0.87093925657798D+03

 The electronic state is 1-A.
 Alpha  occ. eigenvalues --  -20.61361 -20.61314 -20.60031 -20.60015 -15.86358
 Alpha  occ. eigenvalues --  -15.85067 -11.31451 -11.30218 -11.28004 -11.27977
 Alpha  occ. eigenvalues --  -11.27695 -11.26959 -11.26939 -11.26856 -11.26585
 Alpha  occ. eigenvalues --  -11.26513 -11.25876 -11.25555  -1.60397  -1.59107
 Alpha  occ. eigenvalues --   -1.39959  -1.38663  -1.19601  -1.18380  -1.09050
 Alpha  occ. eigenvalues --   -1.07836  -1.04967  -1.03707  -0.95933  -0.94695
 Alpha  occ. eigenvalues --   -0.86379  -0.85142  -0.82783  -0.81500  -0.77851
 Alpha  occ. eigenvalues --   -0.76565  -0.72609  -0.71687  -0.71290  -0.70715
 Alpha  occ. eigenvalues --   -0.70430  -0.69504  -0.65265  -0.64975  -0.64017
 Alpha  occ. eigenvalues --   -0.63698  -0.62320  -0.61026  -0.55486  -0.54292
 Alpha  occ. eigenvalues --   -0.53303  -0.53061  -0.52112  -0.51776  -0.49375
 Alpha  occ. eigenvalues --   -0.49324  -0.48055  -0.48030  -0.45419  -0.44114
 Alpha  occ. eigenvalues --   -0.37564  -0.36553  -0.36418  -0.35281
 Alpha virt. eigenvalues --    0.04643   0.05926   0.11106   0.12325   0.16198
 Alpha virt. eigenvalues --    0.17440   0.21238   0.22484   0.27168   0.28035
 Alpha virt. eigenvalues --    0.28579   0.29304   0.30838   0.31941   0.32356

 Mulliken charges:
               1
     1  C   -0.169589
     2  C   -0.218389
     3  C   -0.169359
     4  C    0.158660
     5  C   -0.169827
     6  C   -0.218251
     7  H    0.226970
     8  H    0.224956
     9  H    0.276702
    10  H    0.274420
    11  H    0.224131
    12  N    0.491711
    13  O   -0.473211
    14  O   -0.456199
    15  C   -0.174155
    16  C   -0.219934
    17  C   -0.174010
    18  C    0.154958
    19  C   -0.167698
    20  C   -0.216340
    21  H    0.221818
    22  H    0.218415
    23  H    0.271162
    24  H    0.284202
    25  H    0.236321
    26  N    0.487857
    27  O   -0.460101
    28  O   -0.465223
 Sum of Mulliken charges =  -0.00000

 Dipole moment (field-independent basis, Debye):
    X=             -3.8054    Y=             -3.6402    Z=              4.1079  Tot=              6.6789
 Quadrupole moment (field-independent basis, Debye-Ang):
   XX=            -79.9062   YY=           -110.1591   ZZ=           -101.8895
   XY=            -22.0520   XZ=             -3.4424   YZ=             -2.0525

 Normal termination of Gaussian 16 at Thu May  6 14:33:06 2021.
