 Gaussian 16, Revision A.03,
 Gaussian 16:  EM64L-G16RevA.03 25-Dec-2016

 -------------
 #p 6-31g* mp2
 -------------

 ------------------------------------------------------
 Input file generated by CHIRIPA (05-May-2021 14:51:10)
 ------------------------------------------------------
 Symbolic Z-matrix:
 Charge =  0 Multiplicity = 1

                         Standard orientation:
 ---------------------------------------------------------------------
 Center     Atomic      Atomic             Coordinates (Angstroms)
 Number     Number       Type             X           Y           Z
 ---------------------------------------------------------------------
      1          6           0        5.000960   -0.562444    0.051140
      2          6           0        6.498537   -0.603984   -0.254672
      3          6           0        7.145477   -1.932498    0.138154
      4          1           0        4.847042   -0.743894    1.123674
      5          1           0        4.502440   -1.385248   -0.479771
      6          1           0        6.993881    0.219490    0.275556
      7          1           0        6.648919   -0.422224   -1.326570
      8          1           0        6.677941   -2.762896   -0.400781
      9          1           0        7.024862   -2.117537    1.210447
     10          1           0        8.216046   -1.940433   -0.089178
     11          6           0        4.340031    0.759316   -0.335968
     12          6           0        2.842453    0.800856   -0.030156
     13          6           0        2.195513    2.129370   -0.422982
     14          1           0        4.838550    1.582120    0.194942
     15          1           0        4.493948    0.940766   -1.408503
     16          1           0        2.692071    0.619096    1.041741
     17          1           0        2.347110   -0.022618   -0.560384
     18          1           0        2.316128    2.314409   -1.495276
     19          1           0        2.663049    2.959768    0.115953
     20          1           0        1.124944    2.137305   -0.195651
     21          6           0       -5.288813   -0.057477   -0.304170
     22          6           0       -6.403082   -1.017693    0.113410
     23          6           0       -7.633391   -0.924035   -0.789564
     24          1           0       -5.676107    0.970543   -0.293127
     25          1           0       -4.999870   -0.271499   -1.342487
     26          1           0       -6.688880   -0.802836    1.151086
     27          1           0       -6.013036   -2.043530    0.101557
     28          1           0       -7.369551   -1.159208   -1.825751
     29          1           0       -8.049235    0.088536   -0.770259
     30          1           0       -8.417509   -1.618905   -0.473061
     31          6           0       -4.052178   -0.139395    0.588999
     32          6           0       -2.937908    0.820821    0.171418
     33          6           0       -1.707599    0.727164    1.074392
     34          1           0       -4.341120    0.074627    1.627316
     35          1           0       -3.664883   -1.167415    0.577955
     36          1           0       -3.327955    1.846658    0.183272
     37          1           0       -2.652111    0.605964   -0.866258
     38          1           0       -1.291755   -0.285408    1.055087
     39          1           0       -1.971439    0.962335    2.110580
     40          1           0       -0.923481    1.422033    0.757890
 ---------------------------------------------------------------------

 SCF Done:  E(RHF) =  -470.733319687     A.U. after   11 cycles
 E2 =    -0.1582206222D+01 EUMP2 =    -0.47231552590866D+03

 The electronic state is 1-A.
 Alpha  occ. eigenvalues --  -11.21607 -11.21603 -11.21591 -11.21572 -11.21407
 Alpha  occ. eigenvalues --  -11.21388 -11.21348 -11.21329 -11.21073 -11.21072
 Alpha  occ. eigenvalues --  -11.21063 -11.21048  -1.08433  -1.08412  -1.03543
 Alpha  occ. eigenvalues --   -1.03504  -0.96012  -0.95939  -0.87039  -0.86947
 Alpha  occ. eigenvalues --   -0.79600  -0.79568  -0.78244  -0.78222  -0.65062
 Alpha  occ. eigenvalues --   -0.65042  -0.60930  -0.60906  -0.59632  -0.59141
 Alpha  occ. eigenvalues --   -0.57737  -0.57422  -0.55267  -0.55248  -0.52959
 Alpha  occ. eigenvalues --   -0.52535  -0.52445  -0.52184  -0.49920  -0.49904
 Alpha  occ. eigenvalues --   -0.47983  -0.47817  -0.46627  -0.46605  -0.45790
 Alpha  occ. eigenvalues --   -0.45762  -0.45710  -0.45690  -0.43913  -0.43627
 Alpha virt. eigenvalues --    0.21756   0.23006   0.23368   0.25001   0.26634
 Alpha virt. eigenvalues --    0.26659   0.26755   0.27394   0.27666   0.28814
 Alpha virt. eigenvalues --    0.29916   0.31344   0.31447   0.31831   0.32067

 Mulliken charges:
               1
     1  C   -0.298232
     2  C   -0.299639
     3  C   -0.475696
     4  H    0.149734
     5  H    0.149418
     6  H    0.151930
     7  H    0.151891
     8  H    0.155127
     9  H    0.155194
    10  H    0.160214
    11  C   -0.298410
    12  C   -0.298886
    13  C   -0.482591
    14  H    0.149495
    15  H    0.149528
    16  H    0.152563
    17  H    0.151875
    18  H    0.155153
    19  H    0.155228
    20  H    0.165826
    21  C   -0.298248
    22  C   -0.299652
    23  C   -0.475706
    24  H    0.149684
    25  H    0.149528
    26  H    0.151939
    27  H    0.151938
    28  H    0.155178
    29  H    0.155196
    30  H    0.160256
    31  C   -0.298539
    32  C   -0.299070
    33  C   -0.483046
    34  H    0.149567
    35  H    0.149670
    36  H    0.151949
    37  H    0.152017
    38  H    0.155754
    39  H    0.155389
    40  H    0.166478
 Sum of Mulliken charges =  -0.00000

 Dipole moment (field-independent basis, Debye):
    X=             -0.0083    Y=             -0.0028    Z=              0.0067  Tot=              0.0110
 Quadrupole moment (field-independent basis, Debye-Ang):
   XX=            -85.9485   YY=            -84.9583   ZZ=            -83.8962
   XY=              0.2762   XZ=             -0.7161   YZ=              1.0007

 Normal termination of Gaussian 16 at Thu May  6 00:37:30 2021.
