 Gaussian 16, Revision A.03,
 Gaussian 16:  EM64L-G16RevA.03 25-Dec-2016

 -------------
 #p 6-31g* mp2
 -------------

 ------------------------------------------------------
 Input file generated by CHIRIPA (05-May-2021 14:55:24)
 ------------------------------------------------------
 Symbolic Z-matrix:
 Charge =  0 Multiplicity = 1

                         Standard orientation:
 ---------------------------------------------------------------------
 Center     Atomic      Atomic             Coordinates (Angstroms)
 Number     Number       Type             X           Y           Z
 ---------------------------------------------------------------------
      1          6           0       -4.912713    0.391956    1.029581
      2          6           0       -3.738250    0.367016    1.788880
      3          6           0       -2.538152   -0.077326    1.225965
      4          6           0       -2.548717   -0.491406   -0.105093
      5          6           0       -3.702407   -0.478331   -0.887473
      6          6           0       -4.891082   -0.030054   -0.303821
      7          1           0       -5.840541    0.738660    1.474921
      8          1           0       -3.752078    0.694165    2.824654
      9          1           0       -1.614401   -0.107021    1.790961
     10          1           0       -3.657322   -0.810665   -1.917492
     11          1           0       -5.801663   -0.011775   -0.895896
     12          7           0       -1.284274   -0.963895   -0.712002
     13          8           0       -1.320008   -1.323452   -1.886770
     14          8           0       -0.281412   -0.965728   -0.001438
     15          6           0        4.256704    0.362737    0.168597
     16          6           0        4.496410   -1.126416    0.419495
     17          6           0        5.956764   -1.443906    0.742542
     18          1           0        4.897694    0.696484   -0.658863
     19          1           0        4.569164    0.931762    1.055148
     20          1           0        4.182302   -1.692581   -0.466738
     21          1           0        3.854634   -1.456700    1.246327
     22          1           0        6.279003   -0.904626    1.639170
     23          1           0        6.608533   -1.141847   -0.083629
     24          1           0        6.105594   -2.513862    0.918337
     25          6           0        2.801505    0.695912   -0.155624
     26          6           0        2.561798    2.185065   -0.406524
     27          6           0        1.101445    2.502554   -0.729571
     28          1           0        2.489045    0.126886   -1.042177
     29          1           0        2.160515    0.362164    0.671835
     30          1           0        3.203574    2.515349   -1.233356
     31          1           0        2.875906    2.751230    0.479710
     32          1           0        0.449676    2.200495    0.096600
     33          1           0        0.779206    1.963275   -1.626198
     34          1           0        0.952615    3.572510   -0.905366
 ---------------------------------------------------------------------

 SCF Done:  E(RHF) =  -669.535836652     A.U. after   15 cycles
 E2 =    -0.2092172904D+01 EUMP2 =    -0.67162800955592D+03

 The electronic state is 1-A.
 Alpha  occ. eigenvalues --  -20.60926 -20.60902 -15.85936 -11.31274 -11.27843
 Alpha  occ. eigenvalues --  -11.27829 -11.27572 -11.26849 -11.26838 -11.20625
 Alpha  occ. eigenvalues --  -11.20550 -11.20294 -11.20261 -11.20245 -11.19876
 Alpha  occ. eigenvalues --   -1.59970  -1.39528  -1.19440  -1.08842  -1.07298
 Alpha  occ. eigenvalues --   -1.04840  -1.02554  -0.95685  -0.94998  -0.86241
 Alpha  occ. eigenvalues --   -0.86026  -0.82526  -0.78612  -0.77593  -0.77022
 Alpha  occ. eigenvalues --   -0.72158  -0.71272  -0.70552  -0.65099  -0.64845
 Alpha  occ. eigenvalues --   -0.63943  -0.62191  -0.59972  -0.58361  -0.56599
 Alpha  occ. eigenvalues --   -0.55344  -0.54296  -0.53166  -0.52934  -0.51763
 Alpha  occ. eigenvalues --   -0.51426  -0.48976  -0.48932  -0.48915  -0.46946
 Alpha  occ. eigenvalues --   -0.45651  -0.45130  -0.44498  -0.44295  -0.42748
 Alpha  occ. eigenvalues --   -0.37414  -0.36440
 Alpha virt. eigenvalues --    0.04941   0.11181   0.16422   0.21238   0.23840
 Alpha virt. eigenvalues --    0.25028   0.26969   0.27589   0.28092   0.28749
 Alpha virt. eigenvalues --    0.29023   0.30913   0.31728   0.32574   0.32729

 Mulliken charges:
               1
     1  C   -0.170631
     2  C   -0.218346
     3  C   -0.170985
     4  C    0.158845
     5  C   -0.170689
     6  C   -0.218407
     7  H    0.225926
     8  H    0.223710
     9  H    0.274918
    10  H    0.275756
    11  H    0.223769
    12  N    0.491738
    13  O   -0.460152
    14  O   -0.461036
    15  C   -0.298801
    16  C   -0.298082
    17  C   -0.475138
    18  H    0.145491
    19  H    0.143346
    20  H    0.156137
    21  H    0.152712
    22  H    0.151889
    23  H    0.153216
    24  H    0.158038
    25  C   -0.297568
    26  C   -0.299671
    27  C   -0.473724
    28  H    0.161407
    29  H    0.159328
    30  H    0.148521
    31  H    0.145583
    32  H    0.150167
    33  H    0.159540
    34  H    0.153191
 Sum of Mulliken charges =  -0.00000

 Dipole moment (field-independent basis, Debye):
    X=             -4.7225    Y=              1.4631    Z=              2.0755  Tot=              5.3619
 Quadrupole moment (field-independent basis, Debye-Ang):
   XX=            -73.5606   YY=            -97.9648   ZZ=            -90.7039
   XY=             -1.6890   XZ=             -3.4376   YZ=             -0.0317

 Normal termination of Gaussian 16 at Thu May  6 17:42:30 2021.
