 Gaussian 16, Revision A.03,
 Gaussian 16:  EM64L-G16RevA.03 25-Dec-2016

 -------------
 #p 6-31g* mp2
 -------------

 ------------------------------------------------------
 Input file generated by CHIRIPA (05-May-2021 14:57:24)
 ------------------------------------------------------
 Symbolic Z-matrix:
 Charge =  0 Multiplicity = 1

                         Standard orientation:
 ---------------------------------------------------------------------
 Center     Atomic      Atomic             Coordinates (Angstroms)
 Number     Number       Type             X           Y           Z
 ---------------------------------------------------------------------
      1          6           0        2.304208   -2.254460    0.909180
      2          6           0        2.583879   -2.037617   -0.444069
      3          6           0        2.973464   -0.772850   -0.894776
      4          6           0        3.073627    0.257045    0.039340
      5          6           0        2.801734    0.072486    1.394073
      6          6           0        2.413834   -1.200575    1.822322
      7          1           0        2.002224   -3.240183    1.250578
      8          1           0        2.499580   -2.854217   -1.155477
      9          1           0        3.195932   -0.577193   -1.936719
     10          1           0        2.894597    0.906120    2.079529
     11          1           0        2.197262   -1.366066    2.873871
     12          7           0        3.485171    1.600387   -0.425916
     13          8           0        3.565961    2.491174    0.417060
     14          8           0        3.719156    1.737076   -1.624751
     15          6           0       -4.737725    1.729453    0.384762
     16          6           0       -3.378007    2.056903    0.406314
     17          6           0       -2.409661    1.086986    0.130429
     18          6           0       -2.838364   -0.206290   -0.164434
     19          6           0       -4.185515   -0.563523   -0.193728
     20          6           0       -5.136436    0.422589    0.085337
     21          1           0       -5.483191    2.489200    0.600312
     22          1           0       -3.065452    3.071019    0.638532
     23          1           0       -1.350334    1.313143    0.140211
     24          1           0       -4.466428   -1.583008   -0.428589
     25          1           0       -6.191711    0.165422    0.067876
     26          7           0       -1.822443   -1.241671   -0.458185
     27          8           0       -2.226013   -2.373818   -0.715110
     28          8           0       -0.641830   -0.901450   -0.425940
 ---------------------------------------------------------------------

 SCF Done:  E(RHF) =  -868.338500346     A.U. after   16 cycles
 E2 =    -0.2600231125D+01 EUMP2 =    -0.87093873147159D+03

 The electronic state is 1-A.
 Alpha  occ. eigenvalues --  -20.61162 -20.61132 -20.60035 -20.60013 -15.86177
 Alpha  occ. eigenvalues --  -15.85065 -11.31395 -11.30050 -11.27964 -11.27917
 Alpha  occ. eigenvalues --  -11.27660 -11.26942 -11.26895 -11.26652 -11.26519
 Alpha  occ. eigenvalues --  -11.26213 -11.25592 -11.25422  -1.60232  -1.59113
 Alpha  occ. eigenvalues --   -1.39785  -1.38677  -1.19556  -1.18159  -1.08983
 Alpha  occ. eigenvalues --   -1.07630  -1.04931  -1.03535  -0.95841  -0.94544
 Alpha  occ. eigenvalues --   -0.86337  -0.84973  -0.82674  -0.81414  -0.77740
 Alpha  occ. eigenvalues --   -0.76511  -0.72424  -0.71546  -0.71302  -0.70660
 Alpha  occ. eigenvalues --   -0.70429  -0.69321  -0.65209  -0.64928  -0.63850
 Alpha  occ. eigenvalues --   -0.63591  -0.62275  -0.60943  -0.55441  -0.54066
 Alpha  occ. eigenvalues --   -0.53277  -0.53017  -0.51833  -0.51680  -0.49184
 Alpha  occ. eigenvalues --   -0.49122  -0.48072  -0.48020  -0.45225  -0.44169
 Alpha  occ. eigenvalues --   -0.37536  -0.36530  -0.36019  -0.35050
 Alpha virt. eigenvalues --    0.04758   0.06036   0.11126   0.12569   0.16289
 Alpha virt. eigenvalues --    0.17653   0.21299   0.22521   0.27225   0.28155
 Alpha virt. eigenvalues --    0.28385   0.29384   0.30857   0.32018   0.32381

 Mulliken charges:
               1
     1  C   -0.159272
     2  C   -0.200541
     3  C   -0.166909
     4  C    0.158081
     5  C   -0.174451
     6  C   -0.217467
     7  H    0.223608
     8  H    0.222626
     9  H    0.271371
    10  H    0.268196
    11  H    0.216879
    12  N    0.487277
    13  O   -0.467319
    14  O   -0.462887
    15  C   -0.170423
    16  C   -0.218823
    17  C   -0.171155
    18  C    0.157171
    19  C   -0.171249
    20  C   -0.218693
    21  H    0.226784
    22  H    0.226700
    23  H    0.277820
    24  H    0.274643
    25  H    0.223720
    26  N    0.489314
    27  O   -0.464462
    28  O   -0.460539
 Sum of Mulliken charges =  -0.00000

 Dipole moment (field-independent basis, Debye):
    X=             -5.2867    Y=             -1.2817    Z=              2.5643  Tot=              6.0139
 Quadrupole moment (field-independent basis, Debye-Ang):
   XX=            -92.6815   YY=           -106.6653   ZZ=           -101.8451
   XY=            -23.1240   XZ=              2.3776   YZ=              1.8919

 Normal termination of Gaussian 16 at Thu May  6 01:53:44 2021.
