 Gaussian 16, Revision A.03,
 Gaussian 16:  EM64L-G16RevA.03 25-Dec-2016

 -------------
 #p 6-31g* mp2
 -------------

 ------------------------------------------------------
 Input file generated by CHIRIPA (05-May-2021 14:55:23)
 ------------------------------------------------------
 Symbolic Z-matrix:
 Charge =  0 Multiplicity = 1

                         Standard orientation:
 ---------------------------------------------------------------------
 Center     Atomic      Atomic             Coordinates (Angstroms)
 Number     Number       Type             X           Y           Z
 ---------------------------------------------------------------------
      1          6           0        3.754082   -1.560366   -1.477900
      2          6           0        2.356979   -1.494127   -1.462450
      3          6           0        1.695265   -0.671525   -0.545930
      4          6           0        2.465386    0.074586    0.344869
      5          6           0        3.858664    0.030106    0.354255
      6          6           0        4.499151   -0.799379   -0.571097
      7          1           0        4.259873   -2.202056   -2.193306
      8          1           0        1.775778   -2.084002   -2.165513
      9          1           0        0.614831   -0.601261   -0.512102
     10          1           0        4.410951    0.629894    1.067454
     11          1           0        5.584281   -0.848831   -0.580804
     12          7           0        1.776095    0.949081    1.319823
     13          8           0        2.477437    1.596468    2.094190
     14          8           0        0.547537    0.970565    1.291163
     15          6           0       -3.859925   -0.399630   -0.055806
     16          6           0       -3.357285   -1.668222    0.634130
     17          6           0       -4.486958   -2.635945    0.987890
     18          1           0       -4.584316    0.103786    0.599005
     19          1           0       -4.404590   -0.678262   -0.968548
     20          1           0       -2.812542   -1.387205    1.544569
     21          1           0       -2.633864   -2.168575   -0.022318
     22          1           0       -5.025953   -2.944945    0.086444
     23          1           0       -5.205647   -2.159136    1.662234
     24          1           0       -4.105275   -3.535851    1.480176
     25          6           0       -2.742288    0.577656   -0.415706
     26          6           0       -3.244928    1.846249   -1.105642
     27          6           0       -2.115255    2.813971   -1.459401
     28          1           0       -2.197624    0.856288    0.497037
     29          1           0       -2.017897    0.074240   -1.070516
     30          1           0       -3.968349    2.346601   -0.449194
     31          1           0       -3.789672    1.565231   -2.016081
     32          1           0       -1.396566    2.337162   -2.133746
     33          1           0       -1.576260    3.122972   -0.557957
     34          1           0       -2.496938    3.713878   -1.951689
 ---------------------------------------------------------------------

 SCF Done:  E(RHF) =  -669.536078947     A.U. after   15 cycles
 E2 =    -0.2091934644D+01 EUMP2 =    -0.67162801359035D+03

 The electronic state is 1-A.
 Alpha  occ. eigenvalues --  -20.60862 -20.60852 -15.85904 -11.31211 -11.27786
 Alpha  occ. eigenvalues --  -11.27755 -11.27526 -11.26792 -11.26779 -11.21309
 Alpha  occ. eigenvalues --  -11.21062 -11.20970 -11.20845 -11.20740 -11.20437
 Alpha  occ. eigenvalues --   -1.59927  -1.39482  -1.19385  -1.08793  -1.07964
 Alpha  occ. eigenvalues --   -1.04781  -1.03089  -0.95640  -0.95525  -0.86547
 Alpha  occ. eigenvalues --   -0.86181  -0.82475  -0.79167  -0.77860  -0.77419
 Alpha  occ. eigenvalues --   -0.72130  -0.71240  -0.70497  -0.65049  -0.64795
 Alpha  occ. eigenvalues --   -0.64578  -0.62127  -0.60488  -0.58906  -0.57138
 Alpha  occ. eigenvalues --   -0.55292  -0.54807  -0.53114  -0.52879  -0.52250
 Alpha  occ. eigenvalues --   -0.51942  -0.49467  -0.48887  -0.48884  -0.47478
 Alpha  occ. eigenvalues --   -0.46203  -0.45361  -0.45136  -0.44856  -0.43334
 Alpha  occ. eigenvalues --   -0.37368  -0.36382
 Alpha virt. eigenvalues --    0.04998   0.11265   0.16492   0.20560   0.23176
 Alpha virt. eigenvalues --    0.24587   0.25202   0.27413   0.27747   0.28382
 Alpha virt. eigenvalues --    0.29565   0.31257   0.31750   0.32069   0.32384

 Mulliken charges:
               1
     1  C   -0.170336
     2  C   -0.220355
     3  C   -0.174838
     4  C    0.156505
     5  C   -0.170282
     6  C   -0.218953
     7  H    0.225684
     8  H    0.223587
     9  H    0.283690
    10  H    0.275539
    11  H    0.223491
    12  N    0.493902
    13  O   -0.459796
    14  O   -0.467003
    15  C   -0.297666
    16  C   -0.299529
    17  C   -0.475285
    18  H    0.150953
    19  H    0.145478
    20  H    0.159598
    21  H    0.142761
    22  H    0.153190
    23  H    0.156485
    24  H    0.158737
    25  C   -0.307043
    26  C   -0.298941
    27  C   -0.476761
    28  H    0.179107
    29  H    0.135328
    30  H    0.152569
    31  H    0.146897
    32  H    0.148148
    33  H    0.168261
    34  H    0.156877
 Sum of Mulliken charges =  -0.00000

 Dipole moment (field-independent basis, Debye):
    X=              2.5276    Y=             -2.9565    Z=             -3.2167  Tot=              5.0475
 Quadrupole moment (field-independent basis, Debye-Ang):
   XX=            -79.7664   YY=            -96.0965   ZZ=            -96.6192
   XY=             -7.0086   XZ=             -6.3749   YZ=              0.3104

 Normal termination of Gaussian 16 at Wed May  5 20:44:13 2021.
