 Gaussian 16, Revision A.03,
 Gaussian 16:  EM64L-G16RevA.03 25-Dec-2016

 -------------
 #p 6-31g* mp2
 -------------

 ------------------------------------------------------
 Input file generated by CHIRIPA (05-May-2021 14:51:12)
 ------------------------------------------------------
 Symbolic Z-matrix:
 Charge =  0 Multiplicity = 1

                         Standard orientation:
 ---------------------------------------------------------------------
 Center     Atomic      Atomic             Coordinates (Angstroms)
 Number     Number       Type             X           Y           Z
 ---------------------------------------------------------------------
      1          6           0        3.897960   -0.196644   -0.299384
      2          6           0        3.369797   -1.558626    0.152316
      3          6           0        4.226171   -2.721170   -0.350584
      4          1           0        3.942356   -0.173305   -1.396849
      5          1           0        4.929877   -0.074486    0.057853
      6          1           0        2.338704   -1.677601   -0.204488
      7          1           0        3.326472   -1.578657    1.248827
      8          1           0        5.253478   -2.629980    0.016740
      9          1           0        4.260098   -2.729487   -1.444833
     10          1           0        3.830597   -3.685273   -0.016089
     11          6           0        3.052430    0.975493    0.195492
     12          6           0        3.580593    2.337475   -0.256208
     13          6           0        2.724218    3.500019    0.246692
     14          1           0        2.020512    0.853335   -0.161745
     15          1           0        3.008033    0.952154    1.292957
     16          1           0        3.623918    2.357506   -1.352719
     17          1           0        4.611685    2.456450    0.100596
     18          1           0        2.690291    3.508335    1.340941
     19          1           0        1.696912    3.408829   -0.120632
     20          1           0        3.119792    4.464121   -0.087803
     21          6           0       -2.829162   -0.669488   -0.244091
     22          6           0       -1.819204   -1.112885    0.814856
     23          6           0       -0.531933   -1.670867    0.207085
     24          1           0       -3.068400   -1.522724   -0.893473
     25          1           0       -2.365800    0.092028   -0.886574
     26          1           0       -2.284793   -1.872336    1.456009
     27          1           0       -1.582487   -0.258542    1.461911
     28          1           0       -0.042142   -0.916557   -0.417191
     29          1           0       -0.748438   -2.539521   -0.423128
     30          1           0        0.175922   -1.981752    0.981778
     31          6           0       -4.121228   -0.109361    0.347983
     32          6           0       -5.131186    0.334036   -0.710964
     33          6           0       -6.418455    0.892019   -0.103193
     34          1           0       -4.584589   -0.870878    0.990465
     35          1           0       -3.881990    0.743876    0.997365
     36          1           0       -5.367903   -0.520307   -1.358018
     37          1           0       -4.665596    1.093487   -1.352116
     38          1           0       -6.201952    1.760672    0.527020
     39          1           0       -6.908248    0.137709    0.521084
     40          1           0       -7.126312    1.202904   -0.877886
 ---------------------------------------------------------------------

 SCF Done:  E(RHF) =  -470.732532194     A.U. after   11 cycles
 E2 =    -0.1583313472D+01 EUMP2 =    -0.47231584566566D+03

 The electronic state is 1-A.
 Alpha  occ. eigenvalues --  -11.21613 -11.21609 -11.21592 -11.21426 -11.21422
 Alpha  occ. eigenvalues --  -11.21365 -11.21362 -11.21293 -11.21081 -11.21079
 Alpha  occ. eigenvalues --  -11.21078 -11.20983  -1.08451  -1.08377  -1.03560
 Alpha  occ. eigenvalues --   -1.03465  -0.96006  -0.95934  -0.87054  -0.86931
 Alpha  occ. eigenvalues --   -0.79712  -0.79469  -0.78290  -0.78151  -0.65124
 Alpha  occ. eigenvalues --   -0.64980  -0.60977  -0.60859  -0.59463  -0.59214
 Alpha  occ. eigenvalues --   -0.57633  -0.57518  -0.55321  -0.55208  -0.52795
 Alpha  occ. eigenvalues --   -0.52588  -0.52431  -0.52335  -0.49978  -0.49873
 Alpha  occ. eigenvalues --   -0.47945  -0.47848  -0.46732  -0.46549  -0.45882
 Alpha  occ. eigenvalues --   -0.45755  -0.45715  -0.45435  -0.43777  -0.43673
 Alpha virt. eigenvalues --    0.21552   0.23090   0.24037   0.24277   0.25623
 Alpha virt. eigenvalues --    0.26762   0.26855   0.27545   0.27848   0.29473
 Alpha virt. eigenvalues --    0.30414   0.31083   0.31677   0.31844   0.32242

 Mulliken charges:
               1
     1  C   -0.297691
     2  C   -0.309166
     3  C   -0.475060
     4  H    0.148984
     5  H    0.149028
     6  H    0.166235
     7  H    0.149959
     8  H    0.154451
     9  H    0.154680
    10  H    0.159746
    11  C   -0.301163
    12  C   -0.299498
    13  C   -0.475551
    14  H    0.151674
    15  H    0.149480
    16  H    0.151800
    17  H    0.152109
    18  H    0.155169
    19  H    0.154518
    20  H    0.160281
    21  C   -0.298504
    22  C   -0.300293
    23  C   -0.480363
    24  H    0.149605
    25  H    0.149090
    26  H    0.151950
    27  H    0.152552
    28  H    0.156475
    29  H    0.154897
    30  H    0.164366
    31  C   -0.298330
    32  C   -0.299625
    33  C   -0.475720
    34  H    0.149604
    35  H    0.149795
    36  H    0.151918
    37  H    0.151860
    38  H    0.155253
    39  H    0.155206
    40  H    0.160279
 Sum of Mulliken charges =  -0.00000

 Dipole moment (field-independent basis, Debye):
    X=             -0.0407    Y=             -0.0164    Z=              0.0066  Tot=              0.0444
 Quadrupole moment (field-independent basis, Debye-Ang):
   XX=            -85.8110   YY=            -85.0077   ZZ=            -84.2397
   XY=              1.3875   XZ=              0.9061   YZ=             -0.3416

 Normal termination of Gaussian 16 at Thu May  6 02:20:20 2021.
