 Gaussian 16, Revision A.03,
 Gaussian 16:  EM64L-G16RevA.03 25-Dec-2016

 -------------
 #p 6-31g* mp2
 -------------

 ------------------------------------------------------
 Input file generated by CHIRIPA (05-May-2021 14:57:22)
 ------------------------------------------------------
 Symbolic Z-matrix:
 Charge =  0 Multiplicity = 1

                         Standard orientation:
 ---------------------------------------------------------------------
 Center     Atomic      Atomic             Coordinates (Angstroms)
 Number     Number       Type             X           Y           Z
 ---------------------------------------------------------------------
      1          6           0       -2.566716   -2.409533    0.256902
      2          6           0       -3.712067   -2.036127    0.967718
      3          6           0       -4.231633   -0.743670    0.848749
      4          6           0       -3.577622    0.153966    0.006247
      5          6           0       -2.434781   -0.187994   -0.715049
      6          6           0       -1.932846   -1.485903   -0.580736
      7          1           0       -2.169953   -3.415663    0.355280
      8          1           0       -4.206417   -2.751340    1.618973
      9          1           0       -5.116827   -0.428055    1.387486
     10          1           0       -1.963888    0.546991   -1.356512
     11          1           0       -1.043194   -1.773114   -1.133976
     12          7           0       -4.118331    1.525119   -0.127822
     13          8           0       -3.523658    2.297343   -0.876602
     14          8           0       -5.126573    1.801642    0.518413
     15          6           0        4.036211    2.483215    0.473715
     16          6           0        4.844857    1.461249    0.981847
     17          6           0        4.550900    0.121741    0.710079
     18          6           0        3.435557   -0.161090   -0.076881
     19          6           0        2.610664    0.834750   -0.597596
     20          6           0        2.923657    2.167261   -0.312998
     21          1           0        4.271957    3.521060    0.689814
     22          1           0        5.709517    1.703668    1.593108
     23          1           0        5.159967   -0.689171    1.090707
     24          1           0        1.755430    0.561946   -1.203874
     25          1           0        2.293874    2.958864   -0.708956
     26          7           0        3.114282   -1.575463   -0.371380
     27          8           0        2.126003   -1.798339   -1.067274
     28          8           0        3.856829   -2.434392    0.099262
 ---------------------------------------------------------------------

 SCF Done:  E(RHF) =  -868.340051155     A.U. after   16 cycles
 E2 =    -0.2598499099D+01 EUMP2 =    -0.87093855025484D+03

 The electronic state is 1-A.
 Alpha  occ. eigenvalues --  -20.61529 -20.61471 -20.60650 -20.60633 -15.86540
 Alpha  occ. eigenvalues --  -15.85688 -11.31639 -11.30875 -11.28198 -11.28155
 Alpha  occ. eigenvalues --  -11.27828 -11.27402 -11.27390 -11.27114 -11.27091
 Alpha  occ. eigenvalues --  -11.26997 -11.26382 -11.26189  -1.60562  -1.59722
 Alpha  occ. eigenvalues --   -1.40129  -1.39282  -1.19776  -1.18994  -1.09212
 Alpha  occ. eigenvalues --   -1.08403  -1.05139  -1.04359  -0.96098  -0.95284
 Alpha  occ. eigenvalues --   -0.86548  -0.85747  -0.82946  -0.82118  -0.78031
 Alpha  occ. eigenvalues --   -0.77205  -0.72777  -0.71911  -0.71865  -0.71042
 Alpha  occ. eigenvalues --   -0.70880  -0.70077  -0.65433  -0.65130  -0.64630
 Alpha  occ. eigenvalues --   -0.64301  -0.62499  -0.61698  -0.55633  -0.54810
 Alpha  occ. eigenvalues --   -0.53478  -0.53225  -0.52709  -0.52409  -0.49538
 Alpha  occ. eigenvalues --   -0.49487  -0.48680  -0.48643  -0.45588  -0.44729
 Alpha  occ. eigenvalues --   -0.37726  -0.36939  -0.36728  -0.35965
 Alpha virt. eigenvalues --    0.04476   0.05295   0.10930   0.11697   0.16023
 Alpha virt. eigenvalues --    0.16856   0.20509   0.22066   0.25848   0.27399
 Alpha virt. eigenvalues --    0.28653   0.29081   0.30788   0.31471   0.32747

 Mulliken charges:
               1
     1  C   -0.172105
     2  C   -0.218444
     3  C   -0.172699
     4  C    0.158766
     5  C   -0.175066
     6  C   -0.224490
     7  H    0.230332
     8  H    0.222548
     9  H    0.273741
    10  H    0.268676
    11  H    0.244345
    12  N    0.488283
    13  O   -0.464686
    14  O   -0.460919
    15  C   -0.169935
    16  C   -0.218302
    17  C   -0.170855
    18  C    0.158490
    19  C   -0.169374
    20  C   -0.217990
    21  H    0.228587
    22  H    0.225095
    23  H    0.275850
    24  H    0.269411
    25  H    0.228479
    26  N    0.491480
    27  O   -0.472438
    28  O   -0.456779
 Sum of Mulliken charges =  -0.00000

 Dipole moment (field-independent basis, Debye):
    X=              3.3556    Y=              0.0994    Z=              1.5791  Tot=              3.7099
 Quadrupole moment (field-independent basis, Debye-Ang):
   XX=           -105.3649   YY=           -107.8053   ZZ=           -102.6979
   XY=             35.1596   XZ=              1.8177   YZ=             -2.1791

 Normal termination of Gaussian 16 at Thu May  6 19:33:25 2021.
