 Gaussian 16, Revision A.03,
 Gaussian 16:  EM64L-G16RevA.03 25-Dec-2016

 -------------
 #p 6-31g* mp2
 -------------

 ------------------------------------------------------
 Input file generated by CHIRIPA (05-May-2021 14:55:25)
 ------------------------------------------------------
 Symbolic Z-matrix:
 Charge =  0 Multiplicity = 1

                         Standard orientation:
 ---------------------------------------------------------------------
 Center     Atomic      Atomic             Coordinates (Angstroms)
 Number     Number       Type             X           Y           Z
 ---------------------------------------------------------------------
      1          6           0        0.661036    2.279081   -0.363270
      2          6           0        1.639316    1.967418   -1.313194
      3          6           0        2.614260    1.003799   -1.038475
      4          6           0        2.581040    0.368465    0.201903
      5          6           0        1.619390    0.657022    1.168988
      6          6           0        0.654207    1.624043    0.872610
      7          1           0       -0.092533    3.028965   -0.585091
      8          1           0        1.647063    2.474529   -2.273831
      9          1           0        3.383114    0.743142   -1.755651
     10          1           0        1.637412    0.134651    2.117788
     11          1           0       -0.104333    1.864054    1.612243
     12          7           0        3.608003   -0.653476    0.504200
     13          8           0        3.557000   -1.198974    1.604412
     14          8           0        4.444493   -0.889625   -0.364797
     15          6           0       -2.425077   -1.021460   -0.011727
     16          6           0       -1.579345   -1.398120   -1.228629
     17          6           0       -0.258023   -2.065826   -0.846441
     18          1           0       -1.846013   -0.348213    0.635086
     19          1           0       -2.627459   -1.925351    0.579390
     20          1           0       -1.379784   -0.494009   -1.818014
     21          1           0       -2.160561   -2.070396   -1.872717
     22          1           0       -0.440407   -2.983314   -0.277623
     23          1           0        0.344807   -1.397970   -0.222610
     24          1           0        0.330690   -2.326703   -1.731439
     25          6           0       -3.749090   -0.352987   -0.377599
     26          6           0       -4.594822    0.023671    0.839303
     27          6           0       -5.916145    0.691379    0.457116
     28          1           0       -3.546709    0.550903   -0.968716
     29          1           0       -4.328154   -1.026234   -1.024412
     30          1           0       -4.013607    0.695948    1.483391
     31          1           0       -4.794383   -0.880438    1.428689
     32          1           0       -6.518974    0.023523   -0.166716
     33          1           0       -5.733762    1.608866   -0.111702
     34          1           0       -6.504858    0.952256    1.342114
 ---------------------------------------------------------------------

 SCF Done:  E(RHF) =  -669.534435815     A.U. after   15 cycles
 E2 =    -0.2094649255D+01 EUMP2 =    -0.67162908507063D+03

 The electronic state is 1-A.
 Alpha  occ. eigenvalues --  -20.60824 -20.60816 -15.85876 -11.31277 -11.27885
 Alpha  occ. eigenvalues --  -11.27862 -11.27665 -11.26931 -11.26921 -11.22068
 Alpha  occ. eigenvalues --  -11.21789 -11.21730 -11.21638 -11.21504 -11.20900
 Alpha  occ. eigenvalues --   -1.59895  -1.39448  -1.19511  -1.08882  -1.08743
 Alpha  occ. eigenvalues --   -1.04918  -1.03777  -0.96222  -0.95700  -0.87239
 Alpha  occ. eigenvalues --   -0.86301  -0.82530  -0.79866  -0.78566  -0.77563
 Alpha  occ. eigenvalues --   -0.72097  -0.71227  -0.70597  -0.65416  -0.65149
 Alpha  occ. eigenvalues --   -0.64894  -0.62250  -0.61228  -0.59602  -0.57844
 Alpha  occ. eigenvalues --   -0.55634  -0.55405  -0.53285  -0.52997  -0.52890
 Alpha  occ. eigenvalues --   -0.52545  -0.50134  -0.48861  -0.48847  -0.48149
 Alpha  occ. eigenvalues --   -0.46911  -0.46081  -0.46032  -0.44834  -0.44049
 Alpha  occ. eigenvalues --   -0.37426  -0.36453
 Alpha virt. eigenvalues --    0.04948   0.11024   0.16368   0.20691   0.22753
 Alpha virt. eigenvalues --    0.24072   0.25605   0.26634   0.27602   0.28260
 Alpha virt. eigenvalues --    0.28498   0.30649   0.31229   0.31569   0.31821

 Mulliken charges:
               1
     1  C   -0.171938
     2  C   -0.217349
     3  C   -0.170644
     4  C    0.163786
     5  C   -0.180396
     6  C   -0.212663
     7  H    0.226455
     8  H    0.224330
     9  H    0.276352
    10  H    0.276701
    11  H    0.224544
    12  N    0.488899
    13  O   -0.460007
    14  O   -0.460341
    15  C   -0.299618
    16  C   -0.297578
    17  C   -0.482331
    18  H    0.144647
    19  H    0.151376
    20  H    0.148154
    21  H    0.151823
    22  H    0.156634
    23  H    0.161886
    24  H    0.160659
    25  C   -0.297726
    26  C   -0.298605
    27  C   -0.475515
    28  H    0.144859
    29  H    0.151888
    30  H    0.145977
    31  H    0.154402
    32  H    0.157128
    33  H    0.153190
    34  H    0.161019
 Sum of Mulliken charges =  -0.00000

 Dipole moment (field-independent basis, Debye):
    X=             -3.5073    Y=              3.6061    Z=             -1.0712  Tot=              5.1433
 Quadrupole moment (field-independent basis, Debye-Ang):
   XX=           -113.9336   YY=            -92.0100   ZZ=            -91.3001
   XY=              9.3969   XZ=             -5.7745   YZ=             -0.4272

 Normal termination of Gaussian 16 at Thu May  6 17:46:41 2021.
