 Gaussian 16, Revision A.03,
 Gaussian 16:  EM64L-G16RevA.03 25-Dec-2016

 -------------
 #p 6-31g* mp2
 -------------

 ------------------------------------------------------
 Input file generated by CHIRIPA (05-May-2021 14:57:24)
 ------------------------------------------------------
 Symbolic Z-matrix:
 Charge =  0 Multiplicity = 1

                         Standard orientation:
 ---------------------------------------------------------------------
 Center     Atomic      Atomic             Coordinates (Angstroms)
 Number     Number       Type             X           Y           Z
 ---------------------------------------------------------------------
      1          6           0        2.588753   -1.775406    1.319127
      2          6           0        1.725630   -0.844709    1.906786
      3          6           0        1.451523    0.369752    1.270785
      4          6           0        2.060531    0.621964    0.042458
      5          6           0        2.924965   -0.285087   -0.568528
      6          6           0        3.184615   -1.493122    0.085520
      7          1           0        2.796070   -2.716333    1.820198
      8          1           0        1.261457   -1.061249    2.864752
      9          1           0        0.787278    1.108113    1.703242
     10          1           0        3.372729   -0.040933   -1.524203
     11          1           0        3.855342   -2.214043   -0.373221
     12          7           0        1.777999    1.904259   -0.640401
     13          8           0        2.327155    2.102569   -1.721945
     14          8           0        1.012744    2.686730   -0.081152
     15          6           0       -2.995399    1.351759    1.416889
     16          6           0       -2.350001    0.220309    1.926598
     17          6           0       -1.853852   -0.762569    1.065009
     18          6           0       -2.021218   -0.581008   -0.306966
     19          6           0       -2.659655    0.535156   -0.845359
     20          6           0       -3.147898    1.505300    0.034973
     21          1           0       -3.377748    2.110337    2.093472
     22          1           0       -2.230142    0.098423    2.999361
     23          1           0       -1.350158   -1.648320    1.432645
     24          1           0       -2.764101    0.628800   -1.919483
     25          1           0       -3.648698    2.382970   -0.363700
     26          7           0       -1.500153   -1.614797   -1.229013
     27          8           0       -1.660297   -1.431322   -2.433723
     28          8           0       -0.941465   -2.588982   -0.729543
 ---------------------------------------------------------------------

 SCF Done:  E(RHF) =  -868.337275248     A.U. after   16 cycles
 E2 =    -0.2603550485D+01 EUMP2 =    -0.87094082573217D+03

 The electronic state is 1-A.
 Alpha  occ. eigenvalues --  -20.60788 -20.60773 -20.60676 -20.60648 -15.85835
 Alpha  occ. eigenvalues --  -15.85717 -11.31131 -11.30955 -11.27820 -11.27679
 Alpha  occ. eigenvalues --  -11.27605 -11.27514 -11.27485 -11.27293 -11.26819
 Alpha  occ. eigenvalues --  -11.26622 -11.26619 -11.26441  -1.59858  -1.59743
 Alpha  occ. eigenvalues --   -1.39412  -1.39298  -1.19351  -1.19141  -1.08731
 Alpha  occ. eigenvalues --   -1.08559  -1.04799  -1.04514  -0.95579  -0.95410
 Alpha  occ. eigenvalues --   -0.86144  -0.85957  -0.82439  -0.82249  -0.77494
 Alpha  occ. eigenvalues --   -0.77307  -0.72063  -0.71944  -0.71221  -0.71030
 Alpha  occ. eigenvalues --   -0.70450  -0.70261  -0.65001  -0.64818  -0.64767
 Alpha  occ. eigenvalues --   -0.64576  -0.62144  -0.61890  -0.55240  -0.55057
 Alpha  occ. eigenvalues --   -0.53361  -0.52910  -0.52648  -0.52496  -0.48823
 Alpha  occ. eigenvalues --   -0.48806  -0.48701  -0.48688  -0.44824  -0.44725
 Alpha  occ. eigenvalues --   -0.37464  -0.37025  -0.36831  -0.35488
 Alpha virt. eigenvalues --    0.04821   0.05464   0.11257   0.11458   0.16395
 Alpha virt. eigenvalues --    0.16877   0.20643   0.22124   0.26219   0.28058
 Alpha virt. eigenvalues --    0.28485   0.28791   0.30869   0.31291   0.32332

 Mulliken charges:
               1
     1  C   -0.162516
     2  C   -0.223562
     3  C   -0.168701
     4  C    0.153763
     5  C   -0.167034
     6  C   -0.214300
     7  H    0.226374
     8  H    0.214702
     9  H    0.273181
    10  H    0.277038
    11  H    0.225665
    12  N    0.488258
    13  O   -0.458848
    14  O   -0.464988
    15  C   -0.166502
    16  C   -0.227566
    17  C   -0.168934
    18  C    0.156453
    19  C   -0.166650
    20  C   -0.212426
    21  H    0.226999
    22  H    0.217875
    23  H    0.270533
    24  H    0.278443
    25  H    0.227247
    26  N    0.488336
    27  O   -0.458547
    28  O   -0.464295
 Sum of Mulliken charges =  -0.00000

 Dipole moment (field-independent basis, Debye):
    X=             -0.8344    Y=             -0.8448    Z=              5.3710  Tot=              5.5006
 Quadrupole moment (field-independent basis, Debye-Ang):
   XX=            -91.2713   YY=           -113.9417   ZZ=           -101.7014
   XY=            -18.0548   XZ=             -2.0958   YZ=             -2.9392

 Normal termination of Gaussian 16 at Thu May  6 13:03:38 2021.
