 Gaussian 16, Revision A.03,
 Gaussian 16:  EM64L-G16RevA.03 25-Dec-2016

 -------------
 #p 6-31g* mp2
 -------------

 ------------------------------------------------------
 Input file generated by CHIRIPA (05-May-2021 14:51:11)
 ------------------------------------------------------
 Symbolic Z-matrix:
 Charge =  0 Multiplicity = 1

                         Standard orientation:
 ---------------------------------------------------------------------
 Center     Atomic      Atomic             Coordinates (Angstroms)
 Number     Number       Type             X           Y           Z
 ---------------------------------------------------------------------
      1          6           0       -2.532085   -0.587174    0.043634
      2          6           0       -2.757290   -1.988089   -0.526194
      3          6           0       -1.543328   -2.900586   -0.348875
      4          1           0       -1.657765   -0.135715   -0.444930
      5          1           0       -2.286165   -0.668438    1.111489
      6          1           0       -3.004069   -1.904118   -1.592339
      7          1           0       -3.631290   -2.436192   -0.036354
      8          1           0       -1.298355   -3.014008    0.712126
      9          1           0       -0.667571   -2.478910   -0.852700
     10          1           0       -1.726092   -3.896952   -0.763259
     11          6           0       -3.736796    0.336733   -0.126054
     12          6           0       -3.511591    1.737648    0.443774
     13          6           0       -4.725552    2.650145    0.266456
     14          1           0       -3.982715    0.417997   -1.193909
     15          1           0       -4.611115   -0.114726    0.362510
     16          1           0       -2.637591    2.185751   -0.046066
     17          1           0       -3.264811    1.653677    1.509919
     18          1           0       -5.601309    2.228469    0.770280
     19          1           0       -4.970525    2.763567   -0.794546
     20          1           0       -4.542788    3.646511    0.680839
     21          6           0        3.204508   -0.534913    0.419028
     22          6           0        2.353083   -1.661982   -0.166442
     23          6           0        2.503998   -2.976231    0.600219
     24          1           0        4.259196   -0.842448    0.418320
     25          1           0        2.924383   -0.381422    1.470391
     26          1           0        2.633767   -1.812368   -1.216783
     27          1           0        1.300321   -1.351653   -0.164518
     28          1           0        2.204862   -2.848917    1.645642
     29          1           0        3.545884   -3.312250    0.587398
     30          1           0        1.886729   -3.768198    0.164757
     31          6           0        3.064372    0.785353   -0.336608
     32          6           0        3.915797    1.912424    0.248863
     33          6           0        3.764882    3.226672   -0.517799
     34          1           0        3.344496    0.631862   -1.387972
     35          1           0        2.009685    1.092888   -0.335900
     36          1           0        4.968560    1.602094    0.246938
     37          1           0        3.635114    2.062809    1.299203
     38          1           0        2.722995    3.562691   -0.504978
     39          1           0        4.064018    3.099359   -1.563223
     40          1           0        4.382150    4.018638   -0.082337
 ---------------------------------------------------------------------

 SCF Done:  E(RHF) =  -470.733121706     A.U. after   11 cycles
 E2 =    -0.1583080574D+01 EUMP2 =    -0.47231620228021D+03

 The electronic state is 1-A.
 Alpha  occ. eigenvalues --  -11.21637 -11.21618 -11.21590 -11.21526 -11.21448
 Alpha  occ. eigenvalues --  -11.21387 -11.21382 -11.21317 -11.21096 -11.21066
 Alpha  occ. eigenvalues --  -11.21039 -11.20994  -1.08466  -1.08397  -1.03572
 Alpha  occ. eigenvalues --   -1.03477  -0.96026  -0.95919  -0.87023  -0.86955
 Alpha  occ. eigenvalues --   -0.79665  -0.79525  -0.78315  -0.78183  -0.65120
 Alpha  occ. eigenvalues --   -0.65010  -0.61016  -0.60851  -0.59392  -0.59305
 Alpha  occ. eigenvalues --   -0.57730  -0.57443  -0.55301  -0.55216  -0.52724
 Alpha  occ. eigenvalues --   -0.52630  -0.52432  -0.52317  -0.50007  -0.49836
 Alpha  occ. eigenvalues --   -0.48050  -0.47800  -0.46776  -0.46482  -0.45967
 Alpha  occ. eigenvalues --   -0.45762  -0.45718  -0.45434  -0.43821  -0.43737
 Alpha virt. eigenvalues --    0.21362   0.23167   0.23411   0.24691   0.25523
 Alpha virt. eigenvalues --    0.26764   0.26825   0.27229   0.28616   0.29191
 Alpha virt. eigenvalues --    0.30532   0.31172   0.31582   0.31862   0.31936

 Mulliken charges:
               1
     1  C   -0.299393
     2  C   -0.299927
     3  C   -0.481379
     4  H    0.149696
     5  H    0.149330
     6  H    0.151953
     7  H    0.151960
     8  H    0.155610
     9  H    0.162398
    10  H    0.159945
    11  C   -0.298246
    12  C   -0.299660
    13  C   -0.475731
    14  H    0.149775
    15  H    0.149944
    16  H    0.151707
    17  H    0.151834
    18  H    0.155273
    19  H    0.155328
    20  H    0.160326
    21  C   -0.297583
    22  C   -0.305294
    23  C   -0.476309
    24  H    0.149439
    25  H    0.149514
    26  H    0.150874
    27  H    0.157396
    28  H    0.154652
    29  H    0.154596
    30  H    0.162712
    31  C   -0.298410
    32  C   -0.299586
    33  C   -0.475699
    34  H    0.149269
    35  H    0.149285
    36  H    0.151978
    37  H    0.152034
    38  H    0.155062
    39  H    0.155072
    40  H    0.160257
 Sum of Mulliken charges =  -0.00000

 Dipole moment (field-independent basis, Debye):
    X=             -0.0234    Y=             -0.0149    Z=             -0.0023  Tot=              0.0278
 Quadrupole moment (field-independent basis, Debye-Ang):
   XX=            -84.7364   YY=            -86.2568   ZZ=            -83.7898
   XY=              0.5080   XZ=             -0.8501   YZ=              0.3964

 Normal termination of Gaussian 16 at Thu May  6 05:26:16 2021.
