 Gaussian 16, Revision A.03,
 Gaussian 16:  EM64L-G16RevA.03 25-Dec-2016

 -------------
 #p 6-31g* mp2
 -------------

 ------------------------------------------------------
 Input file generated by CHIRIPA (05-May-2021 14:53:16)
 ------------------------------------------------------
 Symbolic Z-matrix:
 Charge =  0 Multiplicity = 1

                         Standard orientation:
 ---------------------------------------------------------------------
 Center     Atomic      Atomic             Coordinates (Angstroms)
 Number     Number       Type             X           Y           Z
 ---------------------------------------------------------------------
      1          6           0        3.913026   -0.400650    0.410806
      2          6           0        5.176819   -1.130571   -0.045293
      3          6           0        5.445863   -2.404233    0.756701
      4          1           0        4.005563   -0.151727    1.476835
      5          1           0        3.053596   -1.079513    0.321805
      6          1           0        6.033394   -0.450087    0.043234
      7          1           0        5.081343   -1.377615   -1.110408
      8          1           0        4.609968   -3.104528    0.659409
      9          1           0        5.567429   -2.171730    1.819605
     10          1           0        6.353905   -2.910116    0.414063
     11          6           0        3.630668    0.874607   -0.381483
     12          6           0        2.366874    1.604527    0.074616
     13          6           0        2.097830    2.878189   -0.727379
     14          1           0        4.490098    1.553470   -0.292483
     15          1           0        3.538130    0.625684   -1.447513
     16          1           0        2.462350    1.851572    1.139730
     17          1           0        1.510299    0.924044   -0.013912
     18          1           0        1.976265    2.645687   -1.790283
     19          1           0        2.933726    3.578485   -0.630086
     20          1           0        1.189788    3.384073   -0.384740
     21          6           0       -2.486225    2.252349    0.449504
     22          6           0       -3.622571    1.640478    0.988811
     23          6           0       -3.887738    0.290539    0.740012
     24          6           0       -2.991277   -0.420787   -0.056018
     25          6           0       -1.850596    0.160499   -0.607599
     26          6           0       -1.605418    1.511713   -0.345578
     27          1           0       -2.288002    3.301510    0.647913
     28          1           0       -4.308366    2.213207    1.606641
     29          1           0       -4.759949   -0.208156    1.144946
     30          1           0       -1.185371   -0.436338   -1.219711
     31          1           0       -0.722129    1.984280   -0.765729
     32          7           0       -3.261417   -1.850582   -0.326409
     33          8           0       -2.456093   -2.455383   -1.030897
     34          8           0       -4.273364   -2.339379    0.171266
 ---------------------------------------------------------------------

 SCF Done:  E(RHF) =  -669.535127271     A.U. after   15 cycles
 E2 =    -0.2092038018D+01 EUMP2 =    -0.67162716528900D+03

 The electronic state is 1-A.
 Alpha  occ. eigenvalues --  -20.60754 -20.60749 -15.85806 -11.31164 -11.27729
 Alpha  occ. eigenvalues --  -11.27720 -11.27456 -11.26749 -11.26664 -11.22422
 Alpha  occ. eigenvalues --  -11.22178 -11.21944 -11.21828 -11.21711 -11.21178
 Alpha  occ. eigenvalues --   -1.59829  -1.39383  -1.19331  -1.08948  -1.08724
 Alpha  occ. eigenvalues --   -1.04738  -1.04084  -0.96548  -0.95565  -0.87563
 Alpha  occ. eigenvalues --   -0.86127  -0.82400  -0.80160  -0.78689  -0.77450
 Alpha  occ. eigenvalues --   -0.72026  -0.71152  -0.70444  -0.65627  -0.64980
 Alpha  occ. eigenvalues --   -0.64762  -0.62221  -0.61391  -0.59922  -0.58119
 Alpha  occ. eigenvalues --   -0.55831  -0.55215  -0.53323  -0.53061  -0.53028
 Alpha  occ. eigenvalues --   -0.52631  -0.50471  -0.48782  -0.48779  -0.48468
 Alpha  occ. eigenvalues --   -0.47189  -0.46239  -0.46127  -0.44791  -0.44320
 Alpha  occ. eigenvalues --   -0.37308  -0.36313
 Alpha virt. eigenvalues --    0.05060   0.11292   0.16463   0.19836   0.22787
 Alpha virt. eigenvalues --    0.23997   0.25611   0.26405   0.26846   0.27916
 Alpha virt. eigenvalues --    0.29119   0.30715   0.30979   0.31675   0.31768

 Mulliken charges:
               1
     1  C   -0.299317
     2  C   -0.300166
     3  C   -0.476404
     4  H    0.150449
     5  H    0.152284
     6  H    0.151728
     7  H    0.152991
     8  H    0.157963
     9  H    0.155226
    10  H    0.161285
    11  C   -0.298526
    12  C   -0.303500
    13  C   -0.482524
    14  H    0.151135
    15  H    0.150424
    16  H    0.155790
    17  H    0.149861
    18  H    0.156166
    19  H    0.163631
    20  H    0.150326
    21  C   -0.173964
    22  C   -0.218313
    23  C   -0.171314
    24  C    0.158921
    25  C   -0.174350
    26  C   -0.223134
    27  H    0.225276
    28  H    0.223302
    29  H    0.275479
    30  H    0.275092
    31  H    0.237314
    32  N    0.488094
    33  O   -0.460767
    34  O   -0.460459
 Sum of Mulliken charges =  -0.00000

 Dipole moment (field-independent basis, Debye):
    X=              1.1294    Y=              5.0022    Z=              0.9867  Tot=              5.2221
 Quadrupole moment (field-independent basis, Debye-Ang):
   XX=            -96.3545   YY=           -100.2210   ZZ=            -93.7463
   XY=            -15.2846   XZ=             -5.3841   YZ=              0.3686

 Normal termination of Gaussian 16 at Thu May  6 20:28:48 2021.
