 Gaussian 16, Revision A.03,
 Gaussian 16:  EM64L-G16RevA.03 25-Dec-2016

 -------------
 #p 6-31g* mp2
 -------------

 ------------------------------------------------------
 Input file generated by CHIRIPA (05-May-2021 14:55:18)
 ------------------------------------------------------
 Symbolic Z-matrix:
 Charge =  0 Multiplicity = 1

                         Standard orientation:
 ---------------------------------------------------------------------
 Center     Atomic      Atomic             Coordinates (Angstroms)
 Number     Number       Type             X           Y           Z
 ---------------------------------------------------------------------
      1          6           0        1.831485    2.235199   -0.053972
      2          6           0        1.342301    0.972469   -0.404307
      3          6           0        2.199442   -0.130590   -0.460154
      4          6           0        3.546087    0.065965   -0.158154
      5          6           0        4.063625    1.311466    0.194223
      6          6           0        3.188193    2.400376    0.243650
      7          1           0        1.158533    3.086586   -0.013082
      8          1           0        0.289133    0.841232   -0.635950
      9          1           0        1.847339   -1.119260   -0.728433
     10          1           0        5.118424    1.411119    0.419805
     11          1           0        3.570889    3.379864    0.516032
     12          7           0        4.463185   -1.094305   -0.213879
     13          8           0        5.645403   -0.894823    0.056685
     14          8           0        3.982423   -2.181236   -0.527065
     15          6           0       -4.945036   -0.405510   -0.276427
     16          6           0       -6.125540    0.490061    0.100864
     17          6           0       -7.317260    0.326082   -0.842909
     18          1           0       -4.634030   -0.177394   -1.305107
     19          1           0       -5.273891   -1.453959   -0.274534
     20          1           0       -5.794205    1.536403    0.099608
     21          1           0       -6.433649    0.259920    1.128832
     22          1           0       -7.675342   -0.708479   -0.835111
     23          1           0       -7.032266    0.575257   -1.870183
     24          1           0       -8.149843    0.975443   -0.554820
     25          6           0       -3.746005   -0.252899    0.657790
     26          6           0       -2.565501   -1.148471    0.280501
     27          6           0       -1.373781   -0.984492    1.224273
     28          1           0       -3.417150    0.795551    0.655897
     29          1           0       -4.057010   -0.481015    1.686471
     30          1           0       -2.257393   -0.918329   -0.747469
     31          1           0       -2.896836   -2.194812    0.281755
     32          1           0       -1.658776   -1.233666    2.251547
     33          1           0       -1.015698    0.050070    1.216474
     34          1           0       -0.541197   -1.633853    0.936185
 ---------------------------------------------------------------------

 SCF Done:  E(RHF) =  -669.534738359     A.U. after   15 cycles
 E2 =    -0.2091937494D+01 EUMP2 =    -0.67162667585291D+03

 The electronic state is 1-A.
 Alpha  occ. eigenvalues --  -20.60743 -20.60738 -15.85796 -11.31160 -11.27719
 Alpha  occ. eigenvalues --  -11.27711 -11.27464 -11.26747 -11.26699 -11.22364
 Alpha  occ. eigenvalues --  -11.22074 -11.22056 -11.21911 -11.21813 -11.21459
 Alpha  occ. eigenvalues --   -1.59818  -1.39372  -1.19329  -1.09049  -1.08727
 Alpha  occ. eigenvalues --   -1.04739  -1.04137  -0.96585  -0.95562  -0.87602
 Alpha  occ. eigenvalues --   -0.86131  -0.82394  -0.80201  -0.78841  -0.77441
 Alpha  occ. eigenvalues --   -0.72015  -0.71140  -0.70442  -0.65733  -0.64982
 Alpha  occ. eigenvalues --   -0.64749  -0.62208  -0.61429  -0.59946  -0.58183
 Alpha  occ. eigenvalues --   -0.55916  -0.55216  -0.53336  -0.53068  -0.52976
 Alpha  occ. eigenvalues --   -0.52750  -0.50487  -0.48775  -0.48770  -0.48501
 Alpha  occ. eigenvalues --   -0.47248  -0.46380  -0.46309  -0.44778  -0.44385
 Alpha  occ. eigenvalues --   -0.37309  -0.36291
 Alpha virt. eigenvalues --    0.05081   0.11227   0.16531   0.19525   0.22656
 Alpha virt. eigenvalues --    0.23789   0.25779   0.26297   0.27001   0.27652
 Alpha virt. eigenvalues --    0.29193   0.29821   0.31094   0.31339   0.31952

 Mulliken charges:
               1
     1  C   -0.172865
     2  C   -0.216655
     3  C   -0.172177
     4  C    0.158572
     5  C   -0.171176
     6  C   -0.218113
     7  H    0.225158
     8  H    0.227605
     9  H    0.275301
    10  H    0.275458
    11  H    0.223257
    12  N    0.488153
    13  O   -0.460463
    14  O   -0.460584
    15  C   -0.298599
    16  C   -0.299888
    17  C   -0.476015
    18  H    0.148944
    19  H    0.151946
    20  H    0.150808
    21  H    0.153193
    22  H    0.156502
    23  H    0.155280
    24  H    0.161399
    25  C   -0.297553
    26  C   -0.303053
    27  C   -0.480265
    28  H    0.145171
    29  H    0.152796
    30  H    0.146246
    31  H    0.157735
    32  H    0.161452
    33  H    0.150494
    34  H    0.161936
 Sum of Mulliken charges =  -0.00000

 Dipole moment (field-independent basis, Debye):
    X=             -3.3729    Y=              4.0299    Z=              0.2572  Tot=              5.2614
 Quadrupole moment (field-independent basis, Debye-Ang):
   XX=           -115.1993   YY=            -92.2586   ZZ=            -95.2193
   XY=             17.4605   XZ=              1.5005   YZ=             -0.2645

 Normal termination of Gaussian 16 at Thu May  6 06:03:28 2021.
