 Gaussian 16, Revision A.03,
 Gaussian 16:  EM64L-G16RevA.03 25-Dec-2016

 -------------
 #p 6-31g* mp2
 -------------

 ------------------------------------------------------
 Input file generated by CHIRIPA (05-May-2021 14:57:23)
 ------------------------------------------------------
 Symbolic Z-matrix:
 Charge =  0 Multiplicity = 1

                         Standard orientation:
 ---------------------------------------------------------------------
 Center     Atomic      Atomic             Coordinates (Angstroms)
 Number     Number       Type             X           Y           Z
 ---------------------------------------------------------------------
      1          6           0       -4.972195    1.804932    0.301321
      2          6           0       -5.552344    0.619477   -0.161975
      3          6           0       -4.779901   -0.535299   -0.318095
      4          6           0       -3.424274   -0.468695   -0.000088
      5          6           0       -2.817153    0.697335    0.463666
      6          6           0       -3.608855    1.840016    0.612115
      7          1           0       -5.579727    2.697292    0.419618
      8          1           0       -6.610882    0.589303   -0.404115
      9          1           0       -5.203354   -1.466334   -0.674856
     10          1           0       -1.759316    0.696570    0.696901
     11          1           0       -3.155611    2.759263    0.972116
     12          7           0       -2.596329   -1.684802   -0.161305
     13          8           0       -1.404243   -1.600084    0.125733
     14          8           0       -3.155149   -2.699678   -0.571651
     15          6           0        4.720198   -1.944298    0.328642
     16          6           0        5.473088   -0.789678    0.090879
     17          6           0        4.841291    0.441630   -0.107269
     18          6           0        3.448636    0.482168   -0.060814
     19          6           0        2.670853   -0.650625    0.173965
     20          6           0        3.323946   -1.871215    0.369354
     21          1           0        5.219265   -2.896645    0.481497
     22          1           0        6.557578   -0.843450    0.058716
     23          1           0        5.399746    1.351012   -0.293199
     24          1           0        1.591273   -0.565569    0.200285
     25          1           0        2.736683   -2.766283    0.553809
     26          7           0        2.768508    1.780026   -0.269125
     27          8           0        1.540316    1.789185   -0.223348
     28          8           0        3.476496    2.763551   -0.474230
 ---------------------------------------------------------------------

 SCF Done:  E(RHF) =  -868.341173593     A.U. after   16 cycles
 E2 =    -0.2598209715D+01 EUMP2 =    -0.87093938330802D+03

 The electronic state is 1-A.
 Alpha  occ. eigenvalues --  -20.60902 -20.60868 -20.60565 -20.60544 -15.85928
 Alpha  occ. eigenvalues --  -15.85599 -11.30938 -11.30653 -11.27525 -11.27389
 Alpha  occ. eigenvalues --  -11.27268 -11.27195 -11.27052 -11.26935 -11.26481
 Alpha  occ. eigenvalues --  -11.26359 -11.26239 -11.26057  -1.59948  -1.59628
 Alpha  occ. eigenvalues --   -1.39514  -1.39190  -1.19092  -1.18815  -1.08561
 Alpha  occ. eigenvalues --   -1.08281  -1.04433  -1.04152  -0.95448  -0.95155
 Alpha  occ. eigenvalues --   -0.85857  -0.85577  -0.82295  -0.81988  -0.77370
 Alpha  occ. eigenvalues --   -0.77046  -0.72180  -0.71834  -0.71246  -0.70938
 Alpha  occ. eigenvalues --   -0.70206  -0.69920  -0.64753  -0.64472  -0.64430
 Alpha  occ. eigenvalues --   -0.64145  -0.61772  -0.61470  -0.54978  -0.54706
 Alpha  occ. eigenvalues --   -0.52798  -0.52534  -0.52517  -0.52223  -0.48918
 Alpha  occ. eigenvalues --   -0.48878  -0.48584  -0.48556  -0.44993  -0.44663
 Alpha  occ. eigenvalues --   -0.37079  -0.36821  -0.36020  -0.35750
 Alpha virt. eigenvalues --    0.05135   0.05434   0.11630   0.11894   0.16684
 Alpha virt. eigenvalues --    0.16976   0.21329   0.22241   0.26585   0.27918
 Alpha virt. eigenvalues --    0.28304   0.29474   0.30914   0.31719   0.32151

 Mulliken charges:
               1
     1  C   -0.170167
     2  C   -0.219189
     3  C   -0.171290
     4  C    0.156425
     5  C   -0.170312
     6  C   -0.219465
     7  H    0.225715
     8  H    0.222305
     9  H    0.273685
    10  H    0.284422
    11  H    0.229035
    12  N    0.493646
    13  O   -0.473338
    14  O   -0.460023
    15  C   -0.170660
    16  C   -0.219532
    17  C   -0.171602
    18  C    0.156478
    19  C   -0.176513
    20  C   -0.221616
    21  H    0.224665
    22  H    0.221125
    23  H    0.272800
    24  H    0.291743
    25  H    0.231673
    26  N    0.489387
    27  O   -0.467419
    28  O   -0.461980
 Sum of Mulliken charges =  -0.00000

 Dipole moment (field-independent basis, Debye):
    X=             -0.6713    Y=             -0.3076    Z=              1.3387  Tot=              1.5289
 Quadrupole moment (field-independent basis, Debye-Ang):
   XX=            -62.2235   YY=           -111.8392   ZZ=           -106.0191
   XY=            -24.4480   XZ=              1.3331   YZ=              1.0706

 Normal termination of Gaussian 16 at Thu May  6 22:41:59 2021.
