 Gaussian 16, Revision A.03,
 Gaussian 16:  EM64L-G16RevA.03 25-Dec-2016

 -------------
 #p 6-31g* mp2
 -------------

 ------------------------------------------------------
 Input file generated by CHIRIPA (05-May-2021 14:57:21)
 ------------------------------------------------------
 Symbolic Z-matrix:
 Charge =  0 Multiplicity = 1

                         Standard orientation:
 ---------------------------------------------------------------------
 Center     Atomic      Atomic             Coordinates (Angstroms)
 Number     Number       Type             X           Y           Z
 ---------------------------------------------------------------------
      1          6           0        3.313980    2.456726    0.369910
      2          6           0        2.456069    1.620743   -0.352339
      3          6           0        2.795633    0.284502   -0.584076
      4          6           0        4.006324   -0.184749   -0.076808
      5          6           0        4.882228    0.623302    0.646473
      6          6           0        4.522191    1.956220    0.866136
      7          1           0        3.042246    3.493460    0.545240
      8          1           0        1.517116    2.006723   -0.738904
      9          1           0        2.150126   -0.384623   -1.139964
     10          1           0        5.811478    0.209871    1.019282
     11          1           0        5.190411    2.603156    1.427385
     12          7           0        4.376642   -1.597609   -0.315747
     13          8           0        5.448956   -1.986816    0.141743
     14          8           0        3.587570   -2.289049   -0.955992
     15          6           0       -1.440098    0.227874   -0.079890
     16          6           0       -2.268526    0.998828   -0.901996
     17          6           0       -3.657938    0.854309   -0.845461
     18          6           0       -4.187484   -0.074789    0.048770
     19          6           0       -3.388515   -0.857532    0.880785
     20          6           0       -2.001746   -0.696217    0.807313
     21          1           0       -0.361796    0.346664   -0.130388
     22          1           0       -1.835120    1.717266   -1.591962
     23          1           0       -4.322586    1.438254   -1.470496
     24          1           0       -3.849828   -1.565516    1.558551
     25          1           0       -1.360821   -1.296302    1.446966
     26          7           0       -5.656993   -0.236675    0.117587
     27          8           0       -6.098809   -1.062125    0.913871
     28          8           0       -6.339152    0.464955   -0.626060
 ---------------------------------------------------------------------

 SCF Done:  E(RHF) =  -868.336630296     A.U. after   16 cycles
 E2 =    -0.2600454721D+01 EUMP2 =    -0.87093708501642D+03

 The electronic state is 1-A.
 Alpha  occ. eigenvalues --  -20.61579 -20.61567 -20.61009 -20.61001 -15.86638
 Alpha  occ. eigenvalues --  -15.86065 -11.32166 -11.31523 -11.28847 -11.28708
 Alpha  occ. eigenvalues --  -11.28498 -11.28123 -11.28061 -11.27929 -11.27910
 Alpha  occ. eigenvalues --  -11.27714 -11.27234 -11.27103  -1.60650  -1.60081
 Alpha  occ. eigenvalues --   -1.40199  -1.39632  -1.20363  -1.19711  -1.09709
 Alpha  occ. eigenvalues --   -1.09111  -1.05813  -1.05123  -0.96518  -0.95928
 Alpha  occ. eigenvalues --   -0.87180  -0.86531  -0.83379  -0.82745  -0.78401
 Alpha  occ. eigenvalues --   -0.77763  -0.72849  -0.72282  -0.71980  -0.71459
 Alpha  occ. eigenvalues --   -0.71404  -0.70876  -0.66013  -0.65820  -0.65372
 Alpha  occ. eigenvalues --   -0.65143  -0.63154  -0.62464  -0.56268  -0.55700
 Alpha  occ. eigenvalues --   -0.54066  -0.53896  -0.53447  -0.53225  -0.49621
 Alpha  occ. eigenvalues --   -0.49596  -0.49050  -0.49030  -0.45570  -0.45016
 Alpha  occ. eigenvalues --   -0.38311  -0.37726  -0.37411  -0.36715
 Alpha virt. eigenvalues --    0.04118   0.04758   0.10240   0.10923   0.15386
 Alpha virt. eigenvalues --    0.16199   0.18425   0.22004   0.25089   0.26096
 Alpha virt. eigenvalues --    0.27580   0.29116   0.30595   0.30624   0.32433

 Mulliken charges:
               1
     1  C   -0.170183
     2  C   -0.220778
     3  C   -0.175429
     4  C    0.158906
     5  C   -0.169228
     6  C   -0.218097
     7  H    0.229165
     8  H    0.217327
     9  H    0.274104
    10  H    0.279081
    11  H    0.227570
    12  N    0.487991
    13  O   -0.456954
    14  O   -0.459965
    15  C   -0.175534
    16  C   -0.220283
    17  C   -0.170007
    18  C    0.158946
    19  C   -0.169938
    20  C   -0.219306
    21  H    0.222923
    22  H    0.218151
    23  H    0.276351
    24  H    0.277730
    25  H    0.228175
    26  N    0.487935
    27  O   -0.458716
    28  O   -0.459935
 Sum of Mulliken charges =  -0.00000

 Dipole moment (field-independent basis, Debye):
    X=              4.0776    Y=              5.5008    Z=              0.7495  Tot=              6.8882
 Quadrupole moment (field-independent basis, Debye-Ang):
   XX=           -153.6305   YY=           -104.9267   ZZ=           -102.2324
   XY=             18.2111   XZ=              7.8861   YZ=             -2.8688

 Normal termination of Gaussian 16 at Wed May  5 22:31:57 2021.
