 Gaussian 16, Revision A.03,
 Gaussian 16:  EM64L-G16RevA.03 25-Dec-2016

 -------------
 #p 6-31g* mp2
 -------------

 ------------------------------------------------------
 Input file generated by CHIRIPA (05-May-2021 14:57:21)
 ------------------------------------------------------
 Symbolic Z-matrix:
 Charge =  0 Multiplicity = 1

                         Standard orientation:
 ---------------------------------------------------------------------
 Center     Atomic      Atomic             Coordinates (Angstroms)
 Number     Number       Type             X           Y           Z
 ---------------------------------------------------------------------
      1          6           0       -6.773871    0.594506   -0.102508
      2          6           0       -5.744499    1.517137    0.111185
      3          6           0       -4.414736    1.092307    0.187333
      4          6           0       -4.149096   -0.268720    0.044748
      5          6           0       -5.152682   -1.212329   -0.169043
      6          6           0       -6.475204   -0.764886   -0.241694
      7          1           0       -7.804051    0.933307   -0.160303
      8          1           0       -5.973495    2.573472    0.219641
      9          1           0       -3.598416    1.785076    0.351987
     10          1           0       -4.893290   -2.258873   -0.273347
     11          1           0       -7.272593   -1.483668   -0.407733
     12          7           0       -2.745168   -0.730438    0.123512
     13          8           0       -2.537410   -1.934960   -0.005322
     14          8           0       -1.879112    0.120933    0.312590
     15          6           0        2.784831    2.145235   -0.116238
     16          6           0        2.289644    0.837464   -0.083906
     17          6           0        3.164475   -0.252040   -0.037015
     18          6           0        4.534741    0.003851   -0.023601
     19          6           0        5.058828    1.295223   -0.054982
     20          6           0        4.165409    2.369545   -0.101697
     21          1           0        2.098021    2.985690   -0.152595
     22          1           0        1.217954    0.660264   -0.095099
     23          1           0        2.808223   -1.274703   -0.011252
     24          1           0        6.132247    1.440282   -0.042779
     25          1           0        4.552819    3.384105   -0.126730
     26          7           0        5.470726   -1.141521    0.025948
     27          8           0        6.673622   -0.889416    0.036883
     28          8           0        4.983730   -2.269681    0.052911
 ---------------------------------------------------------------------

 SCF Done:  E(RHF) =  -868.340160441     A.U. after   16 cycles
 E2 =    -0.2598265671D+01 EUMP2 =    -0.87093842611227D+03

 The electronic state is 1-A.
 Alpha  occ. eigenvalues --  -20.61697 -20.61661 -20.59970 -20.59954 -15.86706
 Alpha  occ. eigenvalues --  -15.85008 -11.31831 -11.30232 -11.28393 -11.28345
 Alpha  occ. eigenvalues --  -11.28060 -11.27338 -11.27308 -11.26826 -11.26652
 Alpha  occ. eigenvalues --  -11.26478 -11.25859 -11.25520  -1.60734  -1.59043
 Alpha  occ. eigenvalues --   -1.40296  -1.38599  -1.19977  -1.18372  -1.09415
 Alpha  occ. eigenvalues --   -1.07802  -1.05345  -1.03723  -0.96292  -0.94666
 Alpha  occ. eigenvalues --   -0.86754  -0.85132  -0.83136  -0.81479  -0.78210
 Alpha  occ. eigenvalues --   -0.76540  -0.72941  -0.72030  -0.71231  -0.71082
 Alpha  occ. eigenvalues --   -0.70363  -0.69502  -0.65636  -0.65345  -0.64013
 Alpha  occ. eigenvalues --   -0.63681  -0.62697  -0.61043  -0.55850  -0.54266
 Alpha  occ. eigenvalues --   -0.53685  -0.53435  -0.52104  -0.51778  -0.49704
 Alpha  occ. eigenvalues --   -0.49657  -0.47994  -0.47972  -0.45750  -0.44036
 Alpha  occ. eigenvalues --   -0.37939  -0.36937  -0.36378  -0.35327
 Alpha virt. eigenvalues --    0.04312   0.05942   0.10722   0.12315   0.15853
 Alpha virt. eigenvalues --    0.17478   0.20873   0.22528   0.26806   0.27678
 Alpha virt. eigenvalues --    0.28609   0.29256   0.30468   0.31826   0.32185

 Mulliken charges:
               1
     1  C   -0.169851
     2  C   -0.218377
     3  C   -0.170439
     4  C    0.157877
     5  C   -0.170003
     6  C   -0.218475
     7  H    0.227757
     8  H    0.224537
     9  H    0.272952
    10  H    0.277345
    11  H    0.225828
    12  N    0.491841
    13  O   -0.455247
    14  O   -0.472508
    15  C   -0.172952
    16  C   -0.228385
    17  C   -0.173584
    18  C    0.158151
    19  C   -0.173381
    20  C   -0.218675
    21  H    0.222503
    22  H    0.249194
    23  H    0.279204
    24  H    0.272044
    25  H    0.218904
    26  N    0.487975
    27  O   -0.463987
    28  O   -0.460247
 Sum of Mulliken charges =  -0.00000

 Dipole moment (field-independent basis, Debye):
    X=             -8.8576    Y=              5.5115    Z=             -0.4618  Tot=             10.4426
 Quadrupole moment (field-independent basis, Debye-Ang):
   XX=            -91.2395   YY=            -99.7611   ZZ=           -106.5436
   XY=             17.1084   XZ=              0.5555   YZ=              0.8531

 Normal termination of Gaussian 16 at Thu May  6 17:47:19 2021.
