 Gaussian 16, Revision A.03,
 Gaussian 16:  EM64L-G16RevA.03 25-Dec-2016

 -------------
 #p 6-31g* mp2
 -------------

 ------------------------------------------------------
 Input file generated by CHIRIPA (05-May-2021 14:53:17)
 ------------------------------------------------------
 Symbolic Z-matrix:
 Charge =  0 Multiplicity = 1

                         Standard orientation:
 ---------------------------------------------------------------------
 Center     Atomic      Atomic             Coordinates (Angstroms)
 Number     Number       Type             X           Y           Z
 ---------------------------------------------------------------------
      1          6           0       -3.146499    1.182203    0.003070
      2          6           0       -1.746387    1.530234   -0.503433
      3          6           0       -1.347698    2.973566   -0.194186
      4          1           0       -3.874394    1.869989   -0.448664
      5          1           0       -3.188760    1.350814    1.088049
      6          1           0       -1.706373    1.359697   -1.586914
      7          1           0       -1.021763    0.841417   -0.050589
      8          1           0       -1.359529    3.153565    0.885657
      9          1           0       -2.048029    3.674790   -0.659397
     10          1           0       -0.343381    3.200893   -0.565036
     11          6           0       -3.559389   -0.257333   -0.298568
     12          6           0       -4.959502   -0.605364    0.207935
     13          6           0       -5.358191   -2.048696   -0.101312
     14          1           0       -3.517128   -0.425945   -1.383547
     15          1           0       -2.831494   -0.945120    0.153166
     16          1           0       -5.684125    0.083453   -0.244909
     17          1           0       -4.999515   -0.434827    1.291416
     18          1           0       -4.657859   -2.749921    0.363899
     19          1           0       -5.346359   -2.228696   -1.181155
     20          1           0       -6.362508   -2.276023    0.269538
     21          6           0        2.850093    2.148378    0.235318
     22          6           0        3.780150    1.393687   -0.487148
     23          6           0        3.662224    0.002545   -0.560406
     24          6           0        2.597194   -0.603901    0.103838
     25          6           0        1.654454    0.120534    0.831661
     26          6           0        1.792079    1.510518    0.891260
     27          1           0        2.949352    3.228601    0.286921
     28          1           0        4.602826    1.886369   -0.997553
     29          1           0        4.368035   -0.605961   -1.112646
     30          1           0        0.844997   -0.398927    1.330017
     31          1           0        1.068296    2.094079    1.453077
     32          7           0        2.461924   -2.076028    0.033514
     33          8           0        1.514657   -2.586390    0.627528
     34          8           0        3.305727   -2.691644   -0.614291
 ---------------------------------------------------------------------

 SCF Done:  E(RHF) =  -669.534350761     A.U. after   15 cycles
 E2 =    -0.2093619865D+01 EUMP2 =    -0.67162797062680D+03

 The electronic state is 1-A.
 Alpha  occ. eigenvalues --  -20.60795 -20.60790 -15.85848 -11.31223 -11.27771
 Alpha  occ. eigenvalues --  -11.27768 -11.27506 -11.26803 -11.26754 -11.22025
 Alpha  occ. eigenvalues --  -11.21790 -11.21681 -11.21624 -11.21447 -11.20964
 Alpha  occ. eigenvalues --   -1.59870  -1.39423  -1.19393  -1.08790  -1.08660
 Alpha  occ. eigenvalues --   -1.04811  -1.03785  -0.96259  -0.95619  -0.87289
 Alpha  occ. eigenvalues --   -0.86177  -0.82455  -0.79870  -0.78431  -0.77500
 Alpha  occ. eigenvalues --   -0.72067  -0.71192  -0.70501  -0.65366  -0.65029
 Alpha  occ. eigenvalues --   -0.64797  -0.62253  -0.61113  -0.59648  -0.57848
 Alpha  occ. eigenvalues --   -0.55598  -0.55254  -0.53198  -0.52963  -0.52818
 Alpha  occ. eigenvalues --   -0.52604  -0.50189  -0.48825  -0.48820  -0.48172
 Alpha  occ. eigenvalues --   -0.46911  -0.45976  -0.45884  -0.44825  -0.44031
 Alpha  occ. eigenvalues --   -0.37354  -0.36314
 Alpha virt. eigenvalues --    0.04991   0.11164   0.16417   0.20101   0.23033
 Alpha virt. eigenvalues --    0.24134   0.25618   0.26362   0.27325   0.28213
 Alpha virt. eigenvalues --    0.29021   0.30256   0.31193   0.31703   0.32704

 Mulliken charges:
               1
     1  C   -0.298173
     2  C   -0.302888
     3  C   -0.480250
     4  H    0.150361
     5  H    0.146760
     6  H    0.156270
     7  H    0.151704
     8  H    0.147488
     9  H    0.159643
    10  H    0.158393
    11  C   -0.299683
    12  C   -0.299774
    13  C   -0.476373
    14  H    0.151335
    15  H    0.153673
    16  H    0.151164
    17  H    0.151164
    18  H    0.158843
    19  H    0.155890
    20  H    0.160024
    21  C   -0.174108
    22  C   -0.218014
    23  C   -0.171569
    24  C    0.157852
    25  C   -0.172532
    26  C   -0.213720
    27  H    0.226124
    28  H    0.223597
    29  H    0.275648
    30  H    0.274678
    31  H    0.229138
    32  N    0.488226
    33  O   -0.460731
    34  O   -0.460157
 Sum of Mulliken charges =  -0.00000

 Dipole moment (field-independent basis, Debye):
    X=              0.4571    Y=              5.1102    Z=              0.1805  Tot=              5.1338
 Quadrupole moment (field-independent basis, Debye-Ang):
   XX=            -88.9602   YY=           -102.7417   ZZ=            -92.8866
   XY=             12.8199   XZ=             -1.5695   YZ=              0.0295

 Normal termination of Gaussian 16 at Wed May  5 15:46:07 2021.
