 Gaussian 16, Revision A.03,
 Gaussian 16:  EM64L-G16RevA.03 25-Dec-2016

 -------------
 #p 6-31g* mp2
 -------------

 ------------------------------------------------------
 Input file generated by CHIRIPA (05-May-2021 14:55:20)
 ------------------------------------------------------
 Symbolic Z-matrix:
 Charge =  0 Multiplicity = 1

                         Standard orientation:
 ---------------------------------------------------------------------
 Center     Atomic      Atomic             Coordinates (Angstroms)
 Number     Number       Type             X           Y           Z
 ---------------------------------------------------------------------
      1          6           0       -3.136309   -2.153565    0.941169
      2          6           0       -4.084381   -1.227584    1.388650
      3          6           0       -4.077711    0.084716    0.906598
      4          6           0       -3.104355    0.438511   -0.026513
      5          6           0       -2.146450   -0.461107   -0.491696
      6          6           0       -2.172069   -1.768051    0.004077
      7          1           0       -3.148850   -3.170910    1.320968
      8          1           0       -4.834393   -1.524176    2.116358
      9          1           0       -4.799927    0.821838    1.235952
     10          1           0       -1.411140   -0.135918   -1.217635
     11          1           0       -1.434552   -2.485056   -0.345232
     12          7           0       -3.087264    1.824949   -0.544103
     13          8           0       -2.219319    2.111712   -1.365733
     14          8           0       -3.942137    2.598623   -0.118359
     15          6           0        3.766655   -0.872998   -0.492472
     16          6           0        2.258453   -1.124188   -0.477798
     17          6           0        1.852830   -2.336228   -1.316979
     18          1           0        4.098024   -0.729824   -1.530085
     19          1           0        4.284020   -1.767891   -0.119786
     20          1           0        1.744017   -0.228584   -0.849097
     21          1           0        1.930606   -1.266591    0.559918
     22          1           0        2.339613   -3.243232   -0.944169
     23          1           0        2.151964   -2.199328   -2.361190
     24          1           0        0.770584   -2.497473   -1.292450
     25          6           0        4.187706    0.335373    0.341965
     26          6           0        5.695907    0.586564    0.327292
     27          6           0        6.101530    1.798602    1.166472
     28          1           0        3.670341    1.230267   -0.030720
     29          1           0        3.856337    0.192199    1.379578
     30          1           0        6.023755    0.728966   -0.710424
     31          1           0        6.210344   -0.309040    0.698591
     32          1           0        5.802396    1.661702    2.210685
     33          1           0        5.614748    2.705607    0.793663
     34          1           0        7.183776    1.959847    1.141944
 ---------------------------------------------------------------------

 SCF Done:  E(RHF) =  -669.535494075     A.U. after   15 cycles
 E2 =    -0.2091247044D+01 EUMP2 =    -0.67162674111923D+03

 The electronic state is 1-A.
 Alpha  occ. eigenvalues --  -20.60748 -20.60743 -15.85801 -11.31157 -11.27731
 Alpha  occ. eigenvalues --  -11.27719 -11.27471 -11.26746 -11.26720 -11.22133
 Alpha  occ. eigenvalues --  -11.21899 -11.21721 -11.21704 -11.21529 -11.21102
 Alpha  occ. eigenvalues --   -1.59823  -1.39377  -1.19330  -1.08734  -1.08722
 Alpha  occ. eigenvalues --   -1.04735  -1.03881  -0.96344  -0.95564  -0.87361
 Alpha  occ. eigenvalues --   -0.86132  -0.82399  -0.79946  -0.78495  -0.77449
 Alpha  occ. eigenvalues --   -0.72020  -0.71145  -0.70441  -0.65350  -0.64986
 Alpha  occ. eigenvalues --   -0.64761  -0.62151  -0.61263  -0.59731  -0.57936
 Alpha  occ. eigenvalues --   -0.55606  -0.55236  -0.53196  -0.53058  -0.52867
 Alpha  occ. eigenvalues --   -0.52596  -0.50256  -0.48778  -0.48775  -0.48258
 Alpha  occ. eigenvalues --   -0.46957  -0.46048  -0.45938  -0.44785  -0.44126
 Alpha  occ. eigenvalues --   -0.37313  -0.36331
 Alpha virt. eigenvalues --    0.05082   0.11309   0.16548   0.19401   0.22823
 Alpha virt. eigenvalues --    0.23817   0.25978   0.26089   0.26970   0.28026
 Alpha virt. eigenvalues --    0.29098   0.29269   0.31140   0.31596   0.32149

 Mulliken charges:
               1
     1  C   -0.171418
     2  C   -0.218587
     3  C   -0.170906
     4  C    0.158484
     5  C   -0.172915
     6  C   -0.223564
     7  H    0.225937
     8  H    0.223264
     9  H    0.275483
    10  H    0.276698
    11  H    0.230078
    12  N    0.488157
    13  O   -0.460708
    14  O   -0.460571
    15  C   -0.298714
    16  C   -0.302518
    17  C   -0.479113
    18  H    0.151633
    19  H    0.149393
    20  H    0.155771
    21  H    0.152347
    22  H    0.157908
    23  H    0.160934
    24  H    0.148192
    25  C   -0.299400
    26  C   -0.300027
    27  C   -0.476091
    28  H    0.153676
    29  H    0.149646
    30  H    0.152742
    31  H    0.151186
    32  H    0.155111
    33  H    0.157291
    34  H    0.160599
 Sum of Mulliken charges =  -0.00000

 Dipole moment (field-independent basis, Debye):
    X=              0.0957    Y=             -4.8247    Z=              1.8338  Tot=              5.1624
 Quadrupole moment (field-independent basis, Debye-Ang):
   XX=            -91.2466   YY=            -99.8793   ZZ=            -93.4046
   XY=             13.9123   XZ=             -8.6783   YZ=              0.5961

 Normal termination of Gaussian 16 at Wed May  5 20:32:01 2021.
