 Gaussian 16, Revision A.03,
 Gaussian 16:  EM64L-G16RevA.03 25-Dec-2016

 -------------
 #p 6-31g* mp2
 -------------

 ------------------------------------------------------
 Input file generated by CHIRIPA (05-May-2021 14:55:18)
 ------------------------------------------------------
 Symbolic Z-matrix:
 Charge =  0 Multiplicity = 1

                         Standard orientation:
 ---------------------------------------------------------------------
 Center     Atomic      Atomic             Coordinates (Angstroms)
 Number     Number       Type             X           Y           Z
 ---------------------------------------------------------------------
      1          6           0       -3.464450    1.592706   -1.194026
      2          6           0       -3.848329    0.247697   -1.183515
      3          6           0       -3.160502   -0.680849   -0.396594
      4          6           0       -2.088710   -0.227779    0.371051
      5          6           0       -1.682165    1.105598    0.381893
      6          6           0       -2.384497    2.016616   -0.412666
      7          1           0       -4.004404    2.307215   -1.808291
      8          1           0       -4.686647   -0.084358   -1.789326
      9          1           0       -3.436444   -1.728011   -0.369649
     10          1           0       -0.842404    1.406670    0.996364
     11          1           0       -2.084145    3.060549   -0.418857
     12          7           0       -1.352860   -1.201511    1.208171
     13          8           0       -0.412059   -0.777081    1.875546
     14          8           0       -1.730837   -2.370715    1.181081
     15          6           0        2.796786    0.631095    0.235912
     16          6           0        3.042108    2.035993   -0.315506
     17          6           0        2.974880    3.115356    0.765350
     18          1           0        1.813046    0.602334    0.724145
     19          1           0        3.539597    0.416296    1.016610
     20          1           0        2.299916    2.247547   -1.095899
     21          1           0        4.025298    2.061360   -0.802652
     22          1           0        3.726122    2.931830    1.540306
     23          1           0        1.990937    3.119074    1.245394
     24          1           0        3.153129    4.111827    0.349257
     25          6           0        2.860780   -0.458817   -0.832605
     26          6           0        2.615457   -1.863715   -0.281187
     27          6           0        2.682685   -2.943078   -1.362042
     28          1           0        2.117969   -0.244018   -1.613303
     29          1           0        3.844520   -0.430056   -1.320839
     30          1           0        1.632268   -1.889083    0.205959
     31          1           0        3.357649   -2.075269    0.499206
     32          1           0        3.666629   -2.946796   -1.842086
     33          1           0        1.931444   -2.759552   -2.136998
     34          1           0        2.504437   -3.939549   -0.945950
 ---------------------------------------------------------------------

 SCF Done:  E(RHF) =  -669.536110762     A.U. after   15 cycles
 E2 =    -0.2093212951D+01 EUMP2 =    -0.67162932371268D+03

 The electronic state is 1-A.
 Alpha  occ. eigenvalues --  -20.61088 -20.61078 -15.86083 -11.31369 -11.27927
 Alpha  occ. eigenvalues --  -11.27918 -11.27648 -11.26919 -11.26909 -11.21384
 Alpha  occ. eigenvalues --  -11.21063 -11.20785 -11.20716 -11.20588 -11.20317
 Alpha  occ. eigenvalues --   -1.60134  -1.39691  -1.19531  -1.08943  -1.07865
 Alpha  occ. eigenvalues --   -1.04919  -1.03018  -0.95793  -0.95492  -0.86521
 Alpha  occ. eigenvalues --   -0.86322  -0.82628  -0.79078  -0.77767  -0.77527
 Alpha  occ. eigenvalues --   -0.72309  -0.71452  -0.70639  -0.65191  -0.64934
 Alpha  occ. eigenvalues --   -0.64496  -0.62267  -0.60433  -0.58882  -0.57063
 Alpha  occ. eigenvalues --   -0.55423  -0.54813  -0.53252  -0.53010  -0.52213
 Alpha  occ. eigenvalues --   -0.51912  -0.49515  -0.49075  -0.49065  -0.47374
 Alpha  occ. eigenvalues --   -0.46096  -0.45628  -0.45153  -0.44463  -0.43237
 Alpha  occ. eigenvalues --   -0.37503  -0.36514
 Alpha virt. eigenvalues --    0.04769   0.11092   0.16260   0.20117   0.22981
 Alpha virt. eigenvalues --    0.24382   0.26179   0.27535   0.27603   0.28486
 Alpha virt. eigenvalues --    0.29244   0.31095   0.31331   0.32036   0.32514

 Mulliken charges:
               1
     1  C   -0.170290
     2  C   -0.218585
     3  C   -0.170549
     4  C    0.157834
     5  C   -0.172264
     6  C   -0.219254
     7  H    0.226434
     8  H    0.224185
     9  H    0.276051
    10  H    0.278376
    11  H    0.224730
    12  N    0.487631
    13  O   -0.458962
    14  O   -0.457571
    15  C   -0.307622
    16  C   -0.299748
    17  C   -0.473601
    18  H    0.164518
    19  H    0.150967
    20  H    0.145561
    21  H    0.151908
    22  H    0.158849
    23  H    0.147353
    24  H    0.157634
    25  C   -0.297554
    26  C   -0.306138
    27  C   -0.475048
    28  H    0.143176
    29  H    0.146266
    30  H    0.169749
    31  H    0.151924
    32  H    0.150907
    33  H    0.150391
    34  H    0.162742
 Sum of Mulliken charges =  -0.00000

 Dipole moment (field-independent basis, Debye):
    X=             -2.7992    Y=              3.3017    Z=             -2.7822  Tot=              5.1456
 Quadrupole moment (field-independent basis, Debye-Ang):
   XX=            -81.5907   YY=            -95.0117   ZZ=            -97.7569
   XY=             -4.3661   XZ=              7.2058   YZ=              2.3631

 Normal termination of Gaussian 16 at Wed May  5 15:49:02 2021.
