 Gaussian 16, Revision A.03,
 Gaussian 16:  EM64L-G16RevA.03 25-Dec-2016

 -------------
 #p 6-31g* mp2
 -------------

 ------------------------------------------------------
 Input file generated by CHIRIPA (05-May-2021 14:51:14)
 ------------------------------------------------------
 Symbolic Z-matrix:
 Charge =  0 Multiplicity = 1

                         Standard orientation:
 ---------------------------------------------------------------------
 Center     Atomic      Atomic             Coordinates (Angstroms)
 Number     Number       Type             X           Y           Z
 ---------------------------------------------------------------------
      1          6           0        4.568592   -0.582829   -0.137565
      2          6           0        5.781938    0.176201    0.400627
      3          6           0        7.085103   -0.609170    0.249806
      4          1           0        4.482306   -1.543582    0.388223
      5          1           0        4.734044   -0.820372   -1.197563
      6          1           0        5.613649    0.413451    1.458930
      7          1           0        5.865233    1.135342   -0.126370
      8          1           0        7.279988   -0.833434   -0.803915
      9          1           0        7.026973   -1.559427    0.790394
     10          1           0        7.939549   -0.048080    0.640906
     11          6           0        3.258339    0.189384    0.006139
     12          6           0        2.044993   -0.569646   -0.532053
     13          6           0        0.741828    0.215725   -0.381232
     14          1           0        3.092887    0.426927    1.066136
     15          1           0        3.344625    1.150137   -0.519649
     16          1           0        1.961698   -1.528787   -0.005056
     17          1           0        2.213282   -0.806896   -1.590357
     18          1           0        0.799957    1.165982   -0.921820
     19          1           0        0.546943    0.439989    0.672488
     20          1           0       -0.112618   -0.345365   -0.772333
     21          6           0       -3.797675    0.882478    0.381569
     22          6           0       -2.904154    1.794509   -0.459741
     23          6           0       -2.681811    3.162809    0.185326
     24          1           0       -4.766240    1.375454    0.542196
     25          1           0       -3.345075    0.751696    1.374265
     26          1           0       -3.357606    1.922413   -1.451021
     27          1           0       -1.937672    1.299221   -0.618545
     28          1           0       -2.207687    3.053864    1.166110
     29          1           0       -3.635689    3.680597    0.328903
     30          1           0       -2.040346    3.798612   -0.432844
     31          6           0       -4.029256   -0.489033   -0.250143
     32          6           0       -4.922778   -1.401063    0.591168
     33          6           0       -5.145119   -2.769364   -0.053900
     34          1           0       -4.481856   -0.358252   -1.242838
     35          1           0       -3.060690   -0.982010   -0.410770
     36          1           0       -5.889259   -0.905776    0.749972
     37          1           0       -4.469324   -1.528969    1.582448
     38          1           0       -4.191242   -3.287152   -0.197477
     39          1           0       -5.619244   -2.660419   -1.034684
     40          1           0       -5.786585   -3.405168    0.564271
 ---------------------------------------------------------------------

 SCF Done:  E(RHF) =  -470.733047249     A.U. after   11 cycles
 E2 =    -0.1582928862D+01 EUMP2 =    -0.47231597611089D+03

 The electronic state is 1-A.
 Alpha  occ. eigenvalues --  -11.21665 -11.21629 -11.21568 -11.21449 -11.21402
 Alpha  occ. eigenvalues --  -11.21388 -11.21346 -11.21268 -11.21178 -11.21093
 Alpha  occ. eigenvalues --  -11.21050 -11.20967  -1.08479  -1.08352  -1.03593
 Alpha  occ. eigenvalues --   -1.03441  -0.96047  -0.95906  -0.87080  -0.86915
 Alpha  occ. eigenvalues --   -0.79711  -0.79467  -0.78297  -0.78152  -0.65106
 Alpha  occ. eigenvalues --   -0.64993  -0.60981  -0.60865  -0.59436  -0.59246
 Alpha  occ. eigenvalues --   -0.57656  -0.57512  -0.55328  -0.55197  -0.52813
 Alpha  occ. eigenvalues --   -0.52579  -0.52462  -0.52326  -0.49982  -0.49843
 Alpha  occ. eigenvalues --   -0.47980  -0.47816  -0.46689  -0.46534  -0.45858
 Alpha  occ. eigenvalues --   -0.45753  -0.45697  -0.45625  -0.43768  -0.43685
 Alpha virt. eigenvalues --    0.21476   0.22975   0.23968   0.24392   0.25683
 Alpha virt. eigenvalues --    0.26538   0.26998   0.27443   0.27887   0.29042
 Alpha virt. eigenvalues --    0.30864   0.30935   0.31794   0.31903   0.32205

 Mulliken charges:
               1
     1  C   -0.298368
     2  C   -0.299647
     3  C   -0.475733
     4  H    0.149694
     5  H    0.149648
     6  H    0.151971
     7  H    0.152036
     8  H    0.155239
     9  H    0.155205
    10  H    0.160366
    11  C   -0.298657
    12  C   -0.300297
    13  C   -0.479069
    14  H    0.149564
    15  H    0.149893
    16  H    0.151991
    17  H    0.152398
    18  H    0.156507
    19  H    0.155647
    20  H    0.161714
    21  C   -0.297263
    22  C   -0.311333
    23  C   -0.474767
    24  H    0.149109
    25  H    0.148954
    26  H    0.150510
    27  H    0.167677
    28  H    0.154633
    29  H    0.154457
    30  H    0.159426
    31  C   -0.299927
    32  C   -0.299537
    33  C   -0.475671
    34  H    0.149438
    35  H    0.150110
    36  H    0.152018
    37  H    0.151839
    38  H    0.154956
    39  H    0.155128
    40  H    0.160139
 Sum of Mulliken charges =  -0.00000

 Dipole moment (field-independent basis, Debye):
    X=              0.0657    Y=             -0.0116    Z=             -0.0092  Tot=              0.0673
 Quadrupole moment (field-independent basis, Debye-Ang):
   XX=            -85.3661   YY=            -85.8634   ZZ=            -83.8151
   XY=              0.0308   XZ=              0.2110   YZ=             -0.9526

 Normal termination of Gaussian 16 at Thu May  6 02:25:15 2021.
