 Gaussian 16, Revision A.03,
 Gaussian 16:  EM64L-G16RevA.03 25-Dec-2016

 -------------
 #p 6-31g* mp2
 -------------

 ------------------------------------------------------
 Input file generated by CHIRIPA (05-May-2021 14:53:16)
 ------------------------------------------------------
 Symbolic Z-matrix:
 Charge =  0 Multiplicity = 1

                         Standard orientation:
 ---------------------------------------------------------------------
 Center     Atomic      Atomic             Coordinates (Angstroms)
 Number     Number       Type             X           Y           Z
 ---------------------------------------------------------------------
      1          6           0        2.349808    0.992042    0.120635
      2          6           0        2.434922    2.066775    1.204927
      3          6           0        1.385748    3.165455    1.031920
      4          1           0        2.469653    1.463639   -0.864341
      5          1           0        1.345436    0.546554    0.133763
      6          1           0        3.439273    2.509144    1.190674
      7          1           0        2.315051    1.592538    2.187447
      8          1           0        0.376273    2.743225    1.067743
      9          1           0        1.506884    3.665038    0.065306
     10          1           0        1.464624    3.923213    1.817695
     11          6           0        3.392267   -0.113219    0.280018
     12          6           0        3.307154   -1.187953   -0.804274
     13          6           0        4.356327   -2.286633   -0.631267
     14          1           0        4.396639    0.332269    0.266890
     15          1           0        3.272422   -0.584816    1.264994
     16          1           0        3.427024   -0.713716   -1.786795
     17          1           0        2.302802   -1.630321   -0.790021
     18          1           0        4.235191   -2.786215    0.335347
     19          1           0        5.365802   -1.864402   -0.667090
     20          1           0        4.277451   -3.044390   -1.417042
     21          6           0       -2.079080   -2.626729    0.904137
     22          6           0       -1.055366   -2.167829    0.068710
     23          6           0       -1.135595   -0.904340   -0.524339
     24          6           0       -2.258845   -0.122536   -0.259044
     25          6           0       -3.295169   -0.551649    0.568714
     26          6           0       -3.193749   -1.818599    1.151038
     27          1           0       -2.008526   -3.609582    1.360666
     28          1           0       -0.188526   -2.793273   -0.124822
     29          1           0       -0.357515   -0.524281   -1.175157
     30          1           0       -4.146922    0.094585    0.742826
     31          1           0       -3.990294   -2.172389    1.799418
     32          7           0       -2.354997    1.216896   -0.881200
     33          8           0       -3.355012    1.886449   -0.631594
     34          8           0       -1.428524    1.571825   -1.606673
 ---------------------------------------------------------------------

 SCF Done:  E(RHF) =  -669.535151195     A.U. after   15 cycles
 E2 =    -0.2093486252D+01 EUMP2 =    -0.67162863744653D+03

 The electronic state is 1-A.
 Alpha  occ. eigenvalues --  -20.60822 -20.60800 -15.85856 -11.31230 -11.27805
 Alpha  occ. eigenvalues --  -11.27761 -11.27546 -11.26820 -11.26808 -11.22134
 Alpha  occ. eigenvalues --  -11.21585 -11.21529 -11.21388 -11.21284 -11.20527
 Alpha  occ. eigenvalues --   -1.59881  -1.39433  -1.19410  -1.08800  -1.08544
 Alpha  occ. eigenvalues --   -1.04813  -1.03587  -0.96000  -0.95632  -0.87016
 Alpha  occ. eigenvalues --   -0.86207  -0.82464  -0.79708  -0.78349  -0.77472
 Alpha  occ. eigenvalues --   -0.72071  -0.71205  -0.70519  -0.65231  -0.65046
 Alpha  occ. eigenvalues --   -0.64808  -0.62148  -0.60994  -0.59426  -0.57603
 Alpha  occ. eigenvalues --   -0.55348  -0.55251  -0.53154  -0.52928  -0.52716
 Alpha  occ. eigenvalues --   -0.52362  -0.49943  -0.48835  -0.48830  -0.47992
 Alpha  occ. eigenvalues --   -0.46775  -0.45861  -0.45733  -0.44763  -0.43837
 Alpha  occ. eigenvalues --   -0.37387  -0.36380
 Alpha virt. eigenvalues --    0.04982   0.11142   0.16440   0.19661   0.23033
 Alpha virt. eigenvalues --    0.24028   0.25109   0.26740   0.27712   0.28056
 Alpha virt. eigenvalues --    0.29232   0.30652   0.31623   0.31703   0.32178

 Mulliken charges:
               1
     1  C   -0.302628
     2  C   -0.300614
     3  C   -0.473123
     4  H    0.155830
     5  H    0.148374
     6  H    0.151005
     7  H    0.148829
     8  H    0.156701
     9  H    0.161997
    10  H    0.157805
    11  C   -0.297829
    12  C   -0.301002
    13  C   -0.475821
    14  H    0.151894
    15  H    0.147889
    16  H    0.156882
    17  H    0.138747
    18  H    0.153760
    19  H    0.159028
    20  H    0.159616
    21  C   -0.170605
    22  C   -0.222388
    23  C   -0.172645
    24  C    0.157348
    25  C   -0.170885
    26  C   -0.218343
    27  H    0.225925
    28  H    0.225923
    29  H    0.280208
    30  H    0.275801
    31  H    0.223702
    32  N    0.488149
    33  O   -0.460060
    34  O   -0.459471
 Sum of Mulliken charges =  -0.00000

 Dipole moment (field-independent basis, Debye):
    X=              0.3370    Y=             -4.5819    Z=              2.1337  Tot=              5.0655
 Quadrupole moment (field-independent basis, Debye-Ang):
   XX=            -92.2850   YY=            -94.4001   ZZ=            -95.2976
   XY=             11.1569   XZ=             -8.0025   YZ=              0.7406

 Normal termination of Gaussian 16 at Wed May  5 21:59:06 2021.
