 Gaussian 16, Revision A.03,
 Gaussian 16:  EM64L-G16RevA.03 25-Dec-2016

 -------------
 #p 6-31g* mp2
 -------------

 ------------------------------------------------------
 Input file generated by CHIRIPA (05-May-2021 14:57:25)
 ------------------------------------------------------
 Symbolic Z-matrix:
 Charge =  0 Multiplicity = 1

                         Standard orientation:
 ---------------------------------------------------------------------
 Center     Atomic      Atomic             Coordinates (Angstroms)
 Number     Number       Type             X           Y           Z
 ---------------------------------------------------------------------
      1          6           0        4.961178    0.034566   -1.321129
      2          6           0        4.389846   -1.186768   -0.949048
      3          6           0        3.315785   -1.225084   -0.054916
      4          6           0        2.835997   -0.017577    0.450078
      5          6           0        3.383853    1.215145    0.098594
      6          6           0        4.457246    1.229518   -0.797044
      7          1           0        5.795275    0.055031   -2.016297
      8          1           0        4.779144   -2.116350   -1.354471
      9          1           0        2.854618   -2.156591    0.250104
     10          1           0        2.974057    2.125282    0.519468
     11          1           0        4.898973    2.179490   -1.084229
     12          7           0        1.699290   -0.045467    1.397454
     13          8           0        1.294937    1.032293    1.828231
     14          8           0        1.234215   -1.144559    1.691290
     15          6           0       -3.022552    2.535986   -0.312902
     16          6           0       -4.220023    1.837748   -0.125689
     17          6           0       -4.232322    0.439805   -0.113379
     18          6           0       -3.023416   -0.230935   -0.292106
     19          6           0       -1.814092    0.436288   -0.480890
     20          6           0       -1.825519    1.834265   -0.489593
     21          1           0       -3.022214    3.621956   -0.321064
     22          1           0       -5.151160    2.380087    0.011780
     23          1           0       -5.145021   -0.125852    0.029563
     24          1           0       -0.901747   -0.132023   -0.615309
     25          1           0       -0.894045    2.373896   -0.635195
     26          7           0       -3.023878   -1.710893   -0.280983
     27          8           0       -1.945440   -2.278445   -0.440652
     28          8           0       -4.102668   -2.275308   -0.112807
 ---------------------------------------------------------------------

 SCF Done:  E(RHF) =  -868.337660822     A.U. after   16 cycles
 E2 =    -0.2600281158D+01 EUMP2 =    -0.87093794198015D+03

 The electronic state is 1-A.
 Alpha  occ. eigenvalues --  -20.61152 -20.61057 -20.59970 -20.59934 -15.86124
 Alpha  occ. eigenvalues --  -15.85007 -11.31478 -11.30358 -11.28094 -11.27966
 Alpha  occ. eigenvalues --  -11.27758 -11.27068 -11.26981 -11.26956 -11.26929
 Alpha  occ. eigenvalues --  -11.26706 -11.25996 -11.25939  -1.60186  -1.59025
 Alpha  occ. eigenvalues --   -1.39729  -1.38579  -1.19646  -1.18533  -1.09045
 Alpha  occ. eigenvalues --   -1.07940  -1.05030  -1.03943  -0.95877  -0.94781
 Alpha  occ. eigenvalues --   -0.86430  -0.85351  -0.82696  -0.81618  -0.77756
 Alpha  occ. eigenvalues --   -0.76661  -0.72326  -0.71569  -0.71225  -0.70732
 Alpha  occ. eigenvalues --   -0.70333  -0.69669  -0.65285  -0.65020  -0.64202
 Alpha  occ. eigenvalues --   -0.63973  -0.62368  -0.61307  -0.55523  -0.54483
 Alpha  occ. eigenvalues --   -0.53378  -0.53110  -0.52250  -0.52066  -0.49116
 Alpha  occ. eigenvalues --   -0.49087  -0.47997  -0.47984  -0.45113  -0.43983
 Alpha  occ. eigenvalues --   -0.37632  -0.36635  -0.36517  -0.35506
 Alpha virt. eigenvalues --    0.04734   0.05905   0.11005   0.12130   0.16233
 Alpha virt. eigenvalues --    0.17385   0.21134   0.22042   0.26983   0.27481
 Alpha virt. eigenvalues --    0.28345   0.28833   0.30830   0.31326   0.32468

 Mulliken charges:
               1
     1  C   -0.170494
     2  C   -0.218394
     3  C   -0.170083
     4  C    0.153542
     5  C   -0.174420
     6  C   -0.218462
     7  H    0.226848
     8  H    0.226494
     9  H    0.282350
    10  H    0.272095
    11  H    0.223128
    12  N    0.483815
    13  O   -0.465892
    14  O   -0.448322
    15  C   -0.171193
    16  C   -0.218588
    17  C   -0.171479
    18  C    0.158321
    19  C   -0.162027
    20  C   -0.210823
    21  H    0.222365
    22  H    0.220395
    23  H    0.273375
    24  H    0.270815
    25  H    0.220428
    26  N    0.488581
    27  O   -0.458224
    28  O   -0.464153
 Sum of Mulliken charges =  -0.00000

 Dipole moment (field-independent basis, Debye):
    X=              4.2501    Y=              5.0872    Z=             -3.3024  Tot=              7.4060
 Quadrupole moment (field-independent basis, Debye-Ang):
   XX=            -78.1110   YY=           -102.9132   ZZ=           -109.3129
   XY=            -15.9738   XZ=             -8.9515   YZ=             -1.1540

 Normal termination of Gaussian 16 at Thu May  6 11:26:25 2021.
