 Gaussian 16, Revision A.03,
 Gaussian 16:  EM64L-G16RevA.03 25-Dec-2016

 -------------
 #p 6-31g* mp2
 -------------

 ------------------------------------------------------
 Input file generated by CHIRIPA (05-May-2021 14:55:21)
 ------------------------------------------------------
 Symbolic Z-matrix:
 Charge =  0 Multiplicity = 1

                         Standard orientation:
 ---------------------------------------------------------------------
 Center     Atomic      Atomic             Coordinates (Angstroms)
 Number     Number       Type             X           Y           Z
 ---------------------------------------------------------------------
      1          6           0       -1.283368    2.701449    0.385077
      2          6           0       -2.514376    2.309660    0.921399
      3          6           0       -3.080930    1.079616    0.574186
      4          6           0       -2.386051    0.262461   -0.316146
      5          6           0       -1.157963    0.624693   -0.867397
      6          6           0       -0.610277    1.859200   -0.506039
      7          1           0       -0.850584    3.658710    0.660294
      8          1           0       -3.039351    2.961727    1.613682
      9          1           0       -4.032519    0.751496    0.974477
     10          1           0       -0.658287   -0.046758   -1.555071
     11          1           0        0.345888    2.160869   -0.924117
     12          7           0       -2.975849   -1.042094   -0.691213
     13          8           0       -2.343698   -1.743910   -1.477646
     14          8           0       -4.059116   -1.338087   -0.191655
     15          6           0        2.415765   -1.174362    0.279923
     16          6           0        1.372450   -1.135126    1.397035
     17          6           0        0.351173   -2.268170    1.292159
     18          1           0        1.905602   -1.121315   -0.691602
     19          1           0        2.935977   -2.141844    0.307380
     20          1           0        0.855314   -0.167468    1.368349
     21          1           0        1.885170   -1.188081    2.366020
     22          1           0        0.849307   -3.241749    1.343226
     23          1           0       -0.186401   -2.215337    0.339886
     24          1           0       -0.385185   -2.221026    2.100500
     25          6           0        3.443678   -0.047953    0.371162
     26          6           0        4.486994   -0.087190   -0.745949
     27          6           0        5.508270    1.045854   -0.641073
     28          1           0        2.923466    0.919529    0.343706
     29          1           0        3.953842   -0.101001    1.342689
     30          1           0        3.974274   -0.034235   -1.714933
     31          1           0        5.004130   -1.054848   -0.717262
     32          1           0        6.045844    0.993021    0.311200
     33          1           0        5.010137    2.019434   -0.692139
     34          1           0        6.244628    0.998710   -1.449413
 ---------------------------------------------------------------------

 SCF Done:  E(RHF) =  -669.535592593     A.U. after   15 cycles
 E2 =    -0.2094640770D+01 EUMP2 =    -0.67163023336301D+03

 The electronic state is 1-A.
 Alpha  occ. eigenvalues --  -20.60952 -20.60945 -15.85962 -11.31300 -11.27884
 Alpha  occ. eigenvalues --  -11.27869 -11.27619 -11.26892 -11.26872 -11.21973
 Alpha  occ. eigenvalues --  -11.21771 -11.21590 -11.21486 -11.21467 -11.20686
 Alpha  occ. eigenvalues --   -1.59997  -1.39557  -1.19487  -1.08881  -1.08666
 Alpha  occ. eigenvalues --   -1.04893  -1.03656  -0.96111  -0.95718  -0.87117
 Alpha  occ. eigenvalues --   -0.86284  -0.82556  -0.79738  -0.78462  -0.77609
 Alpha  occ. eigenvalues --   -0.72194  -0.71315  -0.70595  -0.65347  -0.65136
 Alpha  occ. eigenvalues --   -0.64890  -0.62240  -0.61071  -0.59500  -0.57710
 Alpha  occ. eigenvalues --   -0.55433  -0.55384  -0.53181  -0.52978  -0.52759
 Alpha  occ. eigenvalues --   -0.52513  -0.50080  -0.48951  -0.48950  -0.48037
 Alpha  occ. eigenvalues --   -0.46810  -0.46011  -0.45941  -0.44841  -0.43942
 Alpha  occ. eigenvalues --   -0.37446  -0.36427
 Alpha virt. eigenvalues --    0.04888   0.11055   0.16310   0.19706   0.23010
 Alpha virt. eigenvalues --    0.23837   0.25482   0.26154   0.27525   0.28393
 Alpha virt. eigenvalues --    0.29406   0.30561   0.31521   0.31780   0.31794

 Mulliken charges:
               1
     1  C   -0.170880
     2  C   -0.218406
     3  C   -0.170569
     4  C    0.161628
     5  C   -0.171571
     6  C   -0.219934
     7  H    0.226441
     8  H    0.224064
     9  H    0.276026
    10  H    0.276593
    11  H    0.225267
    12  N    0.488768
    13  O   -0.459304
    14  O   -0.457924
    15  C   -0.298102
    16  C   -0.305127
    17  C   -0.485608
    18  H    0.143997
    19  H    0.153332
    20  H    0.153494
    21  H    0.150426
    22  H    0.156189
    23  H    0.167293
    24  H    0.159434
    25  C   -0.297741
    26  C   -0.299585
    27  C   -0.475102
    28  H    0.140731
    29  H    0.151935
    30  H    0.149473
    31  H    0.155226
    32  H    0.156574
    33  H    0.151115
    34  H    0.161846
 Sum of Mulliken charges =  -0.00000

 Dipole moment (field-independent basis, Debye):
    X=              1.9407    Y=              4.5509    Z=              1.3090  Tot=              5.1177
 Quadrupole moment (field-independent basis, Debye-Ang):
   XX=           -101.7741   YY=            -92.8193   ZZ=            -94.1908
   XY=            -12.4926   XZ=             -6.1291   YZ=             -0.6615

 Normal termination of Gaussian 16 at Wed May  5 19:00:33 2021.
