 Gaussian 16, Revision A.03,
 Gaussian 16:  EM64L-G16RevA.03 25-Dec-2016

 -------------
 #p 6-31g* mp2
 -------------

 ------------------------------------------------------
 Input file generated by CHIRIPA (05-May-2021 14:57:24)
 ------------------------------------------------------
 Symbolic Z-matrix:
 Charge =  0 Multiplicity = 1

                         Standard orientation:
 ---------------------------------------------------------------------
 Center     Atomic      Atomic             Coordinates (Angstroms)
 Number     Number       Type             X           Y           Z
 ---------------------------------------------------------------------
      1          6           0        2.865943    2.319506    0.496457
      2          6           0        2.238776    1.076725    0.633133
      3          6           0        2.940288   -0.104771    0.375267
      4          6           0        4.273699   -0.006144   -0.019165
      5          6           0        4.926382    1.217066   -0.164264
      6          6           0        4.205382    2.385593    0.098896
      7          1           0        2.313422    3.232283    0.698829
      8          1           0        1.198652    1.022369    0.941729
      9          1           0        2.479304   -1.080128    0.473201
     10          1           0        5.964306    1.239302   -0.473515
     11          1           0        4.695021    3.349365   -0.008074
     12          7           0        5.026674   -1.250076   -0.294958
     13          8           0        6.200501   -1.136211   -0.641079
     14          8           0        4.428769   -2.315381   -0.159781
     15          6           0       -6.446069    0.790548   -0.362746
     16          6           0       -6.308813   -0.556207   -0.010709
     17          6           0       -5.041328   -1.115056    0.178280
     18          6           0       -3.927586   -0.294525    0.006237
     19          6           0       -4.031672    1.050700   -0.344229
     20          6           0       -5.309064    1.588298   -0.528091
     21          1           0       -7.434530    1.216421   -0.507566
     22          1           0       -7.190061   -1.178127    0.118376
     23          1           0       -4.906248   -2.154653    0.451060
     24          1           0       -3.134602    1.645602   -0.465788
     25          1           0       -5.412637    2.634522   -0.801462
     26          7           0       -2.580512   -0.874904    0.203598
     27          8           0       -1.615006   -0.130858    0.046018
     28          8           0       -2.515688   -2.062861    0.512132
 ---------------------------------------------------------------------

 SCF Done:  E(RHF) =  -868.339584393     A.U. after   16 cycles
 E2 =    -0.2598334820D+01 EUMP2 =    -0.87093791921338D+03

 The electronic state is 1-A.
 Alpha  occ. eigenvalues --  -20.61570 -20.61511 -20.59940 -20.59919 -15.86581
 Alpha  occ. eigenvalues --  -15.84977 -11.31755 -11.30225 -11.28328 -11.28274
 Alpha  occ. eigenvalues --  -11.27999 -11.27283 -11.27249 -11.26838 -11.26639
 Alpha  occ. eigenvalues --  -11.26529 -11.25881 -11.25584  -1.60603  -1.59010
 Alpha  occ. eigenvalues --   -1.40165  -1.38565  -1.19907  -1.18381  -1.09335
 Alpha  occ. eigenvalues --   -1.07816  -1.05283  -1.03734  -0.96204  -0.94668
 Alpha  occ. eigenvalues --   -0.86690  -0.85154  -0.83047  -0.81476  -0.78116
 Alpha  occ. eigenvalues --   -0.76528  -0.72815  -0.71906  -0.71200  -0.71013
 Alpha  occ. eigenvalues --   -0.70331  -0.69521  -0.65566  -0.65284  -0.64026
 Alpha  occ. eigenvalues --   -0.63712  -0.62636  -0.61054  -0.55785  -0.54305
 Alpha  occ. eigenvalues --   -0.53619  -0.53373  -0.52116  -0.51799  -0.49581
 Alpha  occ. eigenvalues --   -0.49532  -0.47961  -0.47945  -0.45608  -0.43995
 Alpha  occ. eigenvalues --   -0.37871  -0.36877  -0.36404  -0.35333
 Alpha virt. eigenvalues --    0.04404   0.05957   0.10781   0.12301   0.15928
 Alpha virt. eigenvalues --    0.17472   0.20915   0.22455   0.26850   0.27652
 Alpha virt. eigenvalues --    0.28572   0.29237   0.30510   0.31767   0.32231

 Mulliken charges:
               1
     1  C   -0.172888
     2  C   -0.222962
     3  C   -0.172362
     4  C    0.157681
     5  C   -0.173150
     6  C   -0.218820
     7  H    0.220786
     8  H    0.241743
     9  H    0.282582
    10  H    0.272130
    11  H    0.218815
    12  N    0.487903
    13  O   -0.464374
    14  O   -0.459095
    15  C   -0.170030
    16  C   -0.218427
    17  C   -0.170143
    18  C    0.158100
    19  C   -0.170552
    20  C   -0.218331
    21  H    0.227473
    22  H    0.225612
    23  H    0.277356
    24  H    0.272480
    25  H    0.224176
    26  N    0.491798
    27  O   -0.472654
    28  O   -0.454848
 Sum of Mulliken charges =  -0.00000

 Dipole moment (field-independent basis, Debye):
    X=             -7.9501    Y=              6.2492    Z=              0.3177  Tot=             10.1171
 Quadrupole moment (field-independent basis, Debye-Ang):
   XX=            -87.1246   YY=           -101.4413   ZZ=           -106.0964
   XY=             16.4269   XZ=              5.5528   YZ=             -1.7536

 Normal termination of Gaussian 16 at Fri May  7 06:30:02 2021.
