 Gaussian 16, Revision A.03,
 Gaussian 16:  EM64L-G16RevA.03 25-Dec-2016

 -------------
 #p 6-31g* mp2
 -------------

 ------------------------------------------------------
 Input file generated by CHIRIPA (05-May-2021 14:51:09)
 ------------------------------------------------------
 Symbolic Z-matrix:
 Charge =  0 Multiplicity = 1

                         Standard orientation:
 ---------------------------------------------------------------------
 Center     Atomic      Atomic             Coordinates (Angstroms)
 Number     Number       Type             X           Y           Z
 ---------------------------------------------------------------------
      1          6           0        3.143070   -0.020672   -0.326174
      2          6           0        2.488789   -1.402278   -0.293532
      3          6           0        1.023147   -1.372704   -0.728058
      4          1           0        2.579452    0.660430    0.326037
      5          1           0        3.069424    0.388283   -1.343389
      6          1           0        2.564874   -1.809093    0.722996
      7          1           0        3.054143   -2.080220   -0.945748
      8          1           0        0.931991   -0.991161   -1.750172
      9          1           0        0.439942   -0.718494   -0.071946
     10          1           0        0.575065   -2.370770   -0.697274
     11          6           0        4.608376   -0.033927    0.105602
     12          6           0        5.262658    1.347679    0.072960
     13          6           0        6.728300    1.318105    0.507485
     14          1           0        4.682023   -0.442882    1.122817
     15          1           0        5.171995   -0.715029   -0.546610
     16          1           0        4.697304    2.025621    0.725176
     17          1           0        5.186573    1.754494   -0.943568
     18          1           0        7.311505    0.663895   -0.148626
     19          1           0        6.819456    0.936562    1.529599
     20          1           0        7.176382    2.316171    0.476701
     21          6           0       -3.945939    0.691891   -0.259606
     22          6           0       -4.886672    1.676462    0.435827
     23          6           0       -5.016812    3.001352   -0.316188
     24          1           0       -2.954866    1.153977   -0.365411
     25          1           0       -4.312647    0.502103   -1.277888
     26          1           0       -4.519065    1.863268    1.452972
     27          1           0       -5.875570    1.211906    0.540162
     28          1           0       -5.405450    2.834575   -1.326013
     29          1           0       -4.041237    3.489637   -0.408017
     30          1           0       -5.693898    3.690253    0.198429
     31          6           0       -3.805507   -0.637292    0.480177
     32          6           0       -2.864774   -1.621863   -0.215254
     33          6           0       -2.734635   -2.946752    0.536760
     34          1           0       -3.438800   -0.447505    1.498461
     35          1           0       -4.796580   -1.099378    0.585984
     36          1           0       -1.875877   -1.157308   -0.319590
     37          1           0       -3.232382   -1.808668   -1.232400
     38          1           0       -3.710209   -3.435038    0.628589
     39          1           0       -2.345996   -2.779975    1.546585
     40          1           0       -2.057549   -3.635654    0.022144
 ---------------------------------------------------------------------

 SCF Done:  E(RHF) =  -470.732819021     A.U. after   11 cycles
 E2 =    -0.1582904546D+01 EUMP2 =    -0.47231572356736D+03

 The electronic state is 1-A.
 Alpha  occ. eigenvalues --  -11.21631 -11.21623 -11.21566 -11.21436 -11.21416
 Alpha  occ. eigenvalues --  -11.21376 -11.21341 -11.21275 -11.21117 -11.21088
 Alpha  occ. eigenvalues --  -11.21044 -11.21001  -1.08463  -1.08358  -1.03577
 Alpha  occ. eigenvalues --   -1.03446  -0.96035  -0.95904  -0.87046  -0.86932
 Alpha  occ. eigenvalues --   -0.79702  -0.79462  -0.78288  -0.78149  -0.65115
 Alpha  occ. eigenvalues --   -0.64980  -0.61054  -0.60791  -0.59470  -0.59205
 Alpha  occ. eigenvalues --   -0.57642  -0.57511  -0.55355  -0.55166  -0.52751
 Alpha  occ. eigenvalues --   -0.52565  -0.52496  -0.52303  -0.50023  -0.49820
 Alpha  occ. eigenvalues --   -0.48052  -0.47755  -0.46765  -0.46446  -0.45884
 Alpha  occ. eigenvalues --   -0.45747  -0.45684  -0.45493  -0.43789  -0.43714
 Alpha virt. eigenvalues --    0.21798   0.23012   0.23570   0.24964   0.25880
 Alpha virt. eigenvalues --    0.26687   0.26911   0.27188   0.27813   0.29099
 Alpha virt. eigenvalues --    0.30144   0.30979   0.31558   0.31730   0.32380

 Mulliken charges:
               1
     1  C   -0.298547
     2  C   -0.300164
     3  C   -0.478189
     4  H    0.149430
     5  H    0.149625
     6  H    0.152141
     7  H    0.152055
     8  H    0.155859
     9  H    0.154950
    10  H    0.163178
    11  C   -0.298283
    12  C   -0.299650
    13  C   -0.475725
    14  H    0.149575
    15  H    0.149777
    16  H    0.151878
    17  H    0.151980
    18  H    0.155238
    19  H    0.155210
    20  H    0.160320
    21  C   -0.298107
    22  C   -0.299544
    23  C   -0.475659
    24  H    0.149170
    25  H    0.149543
    26  H    0.151650
    27  H    0.151920
    28  H    0.155156
    29  H    0.155071
    30  H    0.160089
    31  C   -0.297725
    32  C   -0.309117
    33  C   -0.475549
    34  H    0.148546
    35  H    0.149121
    36  H    0.164897
    37  H    0.150967
    38  H    0.154761
    39  H    0.154489
    40  H    0.159659
 Sum of Mulliken charges =  -0.00000

 Dipole moment (field-independent basis, Debye):
    X=              0.0529    Y=             -0.0020    Z=             -0.0200  Tot=              0.0566
 Quadrupole moment (field-independent basis, Debye-Ang):
   XX=            -85.4581   YY=            -85.7405   ZZ=            -83.8239
   XY=              0.2547   XZ=             -0.2221   YZ=              0.7811

 Normal termination of Gaussian 16 at Wed May  5 18:09:37 2021.
