 Gaussian 16, Revision A.03,
 Gaussian 16:  EM64L-G16RevA.03 25-Dec-2016

 -------------
 #p 6-31g* mp2
 -------------

 ------------------------------------------------------
 Input file generated by CHIRIPA (05-May-2021 14:57:26)
 ------------------------------------------------------
 Symbolic Z-matrix:
 Charge =  0 Multiplicity = 1

                         Standard orientation:
 ---------------------------------------------------------------------
 Center     Atomic      Atomic             Coordinates (Angstroms)
 Number     Number       Type             X           Y           Z
 ---------------------------------------------------------------------
      1          6           0        4.675139   -2.145010    0.131410
      2          6           0        4.247702   -1.546147    1.321024
      3          6           0        3.566359   -0.325605    1.296616
      4          6           0        3.328288    0.270998    0.059410
      5          6           0        3.741494   -0.300674   -1.142979
      6          6           0        4.421119   -1.521462   -1.094633
      7          1           0        5.203755   -3.093252    0.159669
      8          1           0        4.443589   -2.028123    2.274635
      9          1           0        3.224282    0.160065    2.202445
     10          1           0        3.531591    0.203809   -2.078316
     11          1           0        4.751901   -1.984235   -2.020089
     12          7           0        2.607890    1.563262    0.020900
     13          8           0        2.410503    2.068585   -1.081971
     14          8           0        2.254271    2.046345    1.094315
     15          6           0       -2.167983    2.113777   -0.181077
     16          6           0       -3.479962    2.098959    0.303704
     17          6           0       -4.198141    0.901423    0.372088
     18          6           0       -3.570670   -0.267979   -0.054609
     19          6           0       -2.264922   -0.285668   -0.542459
     20          6           0       -1.565712    0.923516   -0.601870
     21          1           0       -1.617453    3.048577   -0.230713
     22          1           0       -3.950229    3.021807    0.631187
     23          1           0       -5.215074    0.861315    0.743109
     24          1           0       -1.822852   -1.221676   -0.861650
     25          1           0       -0.546942    0.932023   -0.978806
     26          7           0       -4.320933   -1.541922    0.013036
     27          8           0       -3.745575   -2.558602   -0.369014
     28          8           0       -5.470140   -1.499636    0.446825
 ---------------------------------------------------------------------

 SCF Done:  E(RHF) =  -868.340109948     A.U. after   15 cycles
 E2 =    -0.2598527181D+01 EUMP2 =    -0.87093863712882D+03

 The electronic state is 1-A.
 Alpha  occ. eigenvalues --  -20.61823 -20.61793 -20.60330 -20.60323 -15.86820
 Alpha  occ. eigenvalues --  -15.85376 -11.31879 -11.30546 -11.28419 -11.28389
 Alpha  occ. eigenvalues --  -11.28070 -11.27343 -11.27320 -11.27108 -11.27091
 Alpha  occ. eigenvalues --  -11.26652 -11.26037 -11.25938  -1.60886  -1.59409
 Alpha  occ. eigenvalues --   -1.40439  -1.38969  -1.20021  -1.18681  -1.09471
 Alpha  occ. eigenvalues --   -1.08077  -1.05369  -1.04063  -0.96354  -0.94955
 Alpha  occ. eigenvalues --   -0.86780  -0.85443  -0.83190  -0.81808  -0.78280
 Alpha  occ. eigenvalues --   -0.76911  -0.73038  -0.72208  -0.71597  -0.71109
 Alpha  occ. eigenvalues --   -0.70731  -0.69714  -0.65667  -0.65358  -0.64316
 Alpha  occ. eigenvalues --   -0.64025  -0.62716  -0.61419  -0.55867  -0.54452
 Alpha  occ. eigenvalues --   -0.53722  -0.53448  -0.52395  -0.52134  -0.49823
 Alpha  occ. eigenvalues --   -0.49783  -0.48366  -0.48334  -0.45892  -0.44420
 Alpha  occ. eigenvalues --   -0.37979  -0.36959  -0.36594  -0.35681
 Alpha virt. eigenvalues --    0.04201   0.05626   0.10697   0.11990   0.15752
 Alpha virt. eigenvalues --    0.17192   0.20895   0.22220   0.26834   0.27540
 Alpha virt. eigenvalues --    0.28056   0.29176   0.30492   0.31659   0.32132

 Mulliken charges:
               1
     1  C   -0.169291
     2  C   -0.218173
     3  C   -0.170111
     4  C    0.155330
     5  C   -0.172666
     6  C   -0.218244
     7  H    0.228994
     8  H    0.226655
     9  H    0.276948
    10  H    0.275169
    11  H    0.226068
    12  N    0.486101
    13  O   -0.465936
    14  O   -0.457545
    15  C   -0.169299
    16  C   -0.219546
    17  C   -0.172139
    18  C    0.157749
    19  C   -0.173132
    20  C   -0.222049
    21  H    0.236282
    22  H    0.222225
    23  H    0.273088
    24  H    0.271070
    25  H    0.230124
    26  N    0.488283
    27  O   -0.463791
    28  O   -0.462164
 Sum of Mulliken charges =  -0.00000

 Dipole moment (field-independent basis, Debye):
    X=              5.5880    Y=             -0.0051    Z=             -0.0223  Tot=              5.5881
 Quadrupole moment (field-independent basis, Debye-Ang):
   XX=           -104.6518   YY=           -109.2648   ZZ=            -99.7276
   XY=            -34.7035   XZ=             -0.5942   YZ=              0.5698

 Normal termination of Gaussian 16 at Thu May  6 22:57:10 2021.
