 Gaussian 16, Revision A.03,
 Gaussian 16:  EM64L-G16RevA.03 25-Dec-2016

 -------------
 #p 6-31g* mp2
 -------------

 ------------------------------------------------------
 Input file generated by CHIRIPA (05-May-2021 14:57:23)
 ------------------------------------------------------
 Symbolic Z-matrix:
 Charge =  0 Multiplicity = 1

                         Standard orientation:
 ---------------------------------------------------------------------
 Center     Atomic      Atomic             Coordinates (Angstroms)
 Number     Number       Type             X           Y           Z
 ---------------------------------------------------------------------
      1          6           0        4.303789    0.651699    0.609554
      2          6           0        3.983697    0.596579   -0.750969
      3          6           0        2.863070   -0.115725   -1.188423
      4          6           0        2.081030   -0.764076   -0.233779
      5          6           0        2.373819   -0.727820    1.128664
      6          6           0        3.499247   -0.009511    1.543382
      7          1           0        5.176184    1.207367    0.940548
      8          1           0        4.606708    1.109119   -1.478435
      9          1           0        2.592212   -0.174864   -2.235589
     10          1           0        1.733723   -1.248909    1.830206
     11          1           0        3.745418    0.031570    2.600622
     12          7           0        0.892131   -1.521339   -0.684857
     13          8           0        0.219234   -2.083957    0.176136
     14          8           0        0.655680   -1.537925   -1.890864
     15          6           0       -3.809963   -1.342875    0.454349
     16          6           0       -2.956953   -0.956942    1.493554
     17          6           0       -2.103308    0.139709    1.341256
     18          6           0       -2.128771    0.830896    0.130925
     19          6           0       -2.967185    0.470943   -0.923013
     20          6           0       -3.812353   -0.628959   -0.748498
     21          1           0       -4.469802   -2.196042    0.581287
     22          1           0       -2.952961   -1.509519    2.428802
     23          1           0       -1.432821    0.460156    2.129406
     24          1           0       -2.948668    1.041372   -1.843712
     25          1           0       -4.473752   -0.926408   -1.557275
     26          7           0       -1.229543    1.993592   -0.042066
     27          8           0       -1.270968    2.585987   -1.118166
     28          8           0       -0.500329    2.290504    0.901718
 ---------------------------------------------------------------------

 SCF Done:  E(RHF) =  -868.338562477     A.U. after   16 cycles
 E2 =    -0.2601743496D+01 EUMP2 =    -0.87094030597335D+03

 The electronic state is 1-A.
 Alpha  occ. eigenvalues --  -20.60670 -20.60661 -20.60243 -20.60228 -15.85679
 Alpha  occ. eigenvalues --  -15.85273 -11.30786 -11.30238 -11.27390 -11.27312
 Alpha  occ. eigenvalues --  -11.27036 -11.26848 -11.26795 -11.26488 -11.26317
 Alpha  occ. eigenvalues --  -11.26272 -11.25734 -11.25721  -1.59735  -1.59323
 Alpha  occ. eigenvalues --   -1.39299  -1.38885  -1.18931  -1.18384  -1.08386
 Alpha  occ. eigenvalues --   -1.07868  -1.04308  -1.03750  -0.95271  -0.94771
 Alpha  occ. eigenvalues --   -0.85734  -0.85198  -0.82124  -0.81631  -0.77203
 Alpha  occ. eigenvalues --   -0.76718  -0.71936  -0.71511  -0.71168  -0.70544
 Alpha  occ. eigenvalues --   -0.70077  -0.69562  -0.64610  -0.64339  -0.64076
 Alpha  occ. eigenvalues --   -0.63809  -0.61691  -0.61156  -0.54842  -0.54314
 Alpha  occ. eigenvalues --   -0.52638  -0.52430  -0.52023  -0.51899  -0.48702
 Alpha  occ. eigenvalues --   -0.48641  -0.48281  -0.48229  -0.44772  -0.44357
 Alpha  occ. eigenvalues --   -0.36881  -0.36327  -0.35864  -0.35207
 Alpha virt. eigenvalues --    0.05129   0.05989   0.11741   0.12388   0.16845
 Alpha virt. eigenvalues --    0.17436   0.21714   0.22334   0.27390   0.28129
 Alpha virt. eigenvalues --    0.28665   0.29292   0.31251   0.31850   0.32633

 Mulliken charges:
               1
     1  C   -0.167818
     2  C   -0.216013
     3  C   -0.167023
     4  C    0.157968
     5  C   -0.166507
     6  C   -0.215046
     7  H    0.225349
     8  H    0.223638
     9  H    0.275410
    10  H    0.268426
    11  H    0.221624
    12  N    0.486517
    13  O   -0.464818
    14  O   -0.460657
    15  C   -0.165281
    16  C   -0.207177
    17  C   -0.161627
    18  C    0.152343
    19  C   -0.164675
    20  C   -0.214950
    21  H    0.223219
    22  H    0.219062
    23  H    0.266640
    24  H    0.273042
    25  H    0.221105
    26  N    0.486428
    27  O   -0.462007
    28  O   -0.467170
 Sum of Mulliken charges =  -0.00000

 Dipole moment (field-independent basis, Debye):
    X=              1.0769    Y=             -1.5310    Z=              2.1157  Tot=              2.8249
 Quadrupole moment (field-independent basis, Debye-Ang):
   XX=            -73.6979   YY=           -117.1395   ZZ=            -96.8938
   XY=              9.5189   XZ=              1.5224   YZ=             -4.0649

 Normal termination of Gaussian 16 at Thu May  6 19:35:14 2021.
