 Gaussian 16, Revision A.03,
 Gaussian 16:  EM64L-G16RevA.03 25-Dec-2016

 -------------
 #p 6-31g* mp2
 -------------

 ------------------------------------------------------
 Input file generated by CHIRIPA (05-May-2021 14:57:25)
 ------------------------------------------------------
 Symbolic Z-matrix:
 Charge =  0 Multiplicity = 1

                         Standard orientation:
 ---------------------------------------------------------------------
 Center     Atomic      Atomic             Coordinates (Angstroms)
 Number     Number       Type             X           Y           Z
 ---------------------------------------------------------------------
      1          6           0        1.946376   -1.607348    0.693020
      2          6           0        2.797870   -1.101203    1.680591
      3          6           0        3.848792   -0.244077    1.340815
      4          6           0        4.020007    0.087606   -0.002301
      5          6           0        3.188505   -0.400317   -1.009191
      6          6           0        2.144062   -1.255910   -0.646357
      7          1           0        1.132511   -2.272589    0.965922
      8          1           0        2.646725   -1.372427    2.721570
      9          1           0        4.522870    0.162201    2.085110
     10          1           0        3.364264   -0.111952   -2.038449
     11          1           0        1.484340   -1.647475   -1.415440
     12          7           0        5.129141    0.994195   -0.374212
     13          8           0        5.258800    1.271215   -1.564625
     14          8           0        5.847821    1.410592    0.531741
     15          6           0       -5.478885    1.949196    0.270550
     16          6           0       -4.105367    2.188433    0.383392
     17          6           0       -3.186640    1.150220    0.202820
     18          6           0       -3.678497   -0.120654   -0.090853
     19          6           0       -5.040942   -0.390640   -0.209768
     20          6           0       -5.941474    0.662691   -0.025148
     21          1           0       -6.185506    2.761577    0.412395
     22          1           0       -3.743250    3.186541    0.612949
     23          1           0       -2.117992    1.307522    0.284453
     24          1           0       -5.371738   -1.396228   -0.439516
     25          1           0       -7.007609    0.473972   -0.113383
     26          7           0       -2.715514   -1.227766   -0.284159
     27          8           0       -3.174320   -2.338438   -0.542114
     28          8           0       -1.520156   -0.963884   -0.174057
 ---------------------------------------------------------------------

 SCF Done:  E(RHF) =  -868.340553699     A.U. after   16 cycles
 E2 =    -0.2598516419D+01 EUMP2 =    -0.87093907011851D+03

 The electronic state is 1-A.
 Alpha  occ. eigenvalues --  -20.61783 -20.61750 -20.60080 -20.60072 -15.86786
 Alpha  occ. eigenvalues --  -15.85124 -11.31841 -11.30227 -11.28373 -11.28362
 Alpha  occ. eigenvalues --  -11.28054 -11.27317 -11.27300 -11.26818 -11.26728
 Alpha  occ. eigenvalues --  -11.26257 -11.25723 -11.25525  -1.60837  -1.59162
 Alpha  occ. eigenvalues --   -1.40396  -1.38723  -1.19985  -1.18354  -1.09440
 Alpha  occ. eigenvalues --   -1.07747  -1.05338  -1.03723  -0.96328  -0.94636
 Alpha  occ. eigenvalues --   -0.86750  -0.85098  -0.83167  -0.81494  -0.78246
 Alpha  occ. eigenvalues --   -0.76615  -0.73039  -0.72134  -0.71344  -0.71084
 Alpha  occ. eigenvalues --   -0.70486  -0.69341  -0.65640  -0.65334  -0.63976
 Alpha  occ. eigenvalues --   -0.63675  -0.62684  -0.61080  -0.55849  -0.54075
 Alpha  occ. eigenvalues --   -0.53686  -0.53421  -0.52064  -0.51782  -0.49795
 Alpha  occ. eigenvalues --   -0.49755  -0.48117  -0.48075  -0.45865  -0.44189
 Alpha  occ. eigenvalues --   -0.37948  -0.36928  -0.36234  -0.35346
 Alpha virt. eigenvalues --    0.04244   0.05917   0.10731   0.12324   0.15799
 Alpha virt. eigenvalues --    0.17521   0.20919   0.22641   0.26857   0.27776
 Alpha virt. eigenvalues --    0.28422   0.29576   0.30531   0.31999   0.32318

 Mulliken charges:
               1
     1  C   -0.165577
     2  C   -0.222133
     3  C   -0.173364
     4  C    0.156506
     5  C   -0.175083
     6  C   -0.215932
     7  H    0.237841
     8  H    0.219295
     9  H    0.271124
    10  H    0.271831
    11  H    0.232502
    12  N    0.488222
    13  O   -0.463297
    14  O   -0.464050
    15  C   -0.169677
    16  C   -0.218640
    17  C   -0.171121
    18  C    0.156981
    19  C   -0.170496
    20  C   -0.218646
    21  H    0.228129
    22  H    0.226345
    23  H    0.276941
    24  H    0.276016
    25  H    0.225382
    26  N    0.490668
    27  O   -0.458625
    28  O   -0.471143
 Sum of Mulliken charges =  -0.00000

 Dipole moment (field-independent basis, Debye):
    X=             -7.9182    Y=              0.6185    Z=              1.9533  Tot=              8.1790
 Quadrupole moment (field-independent basis, Debye-Ang):
   XX=           -109.7705   YY=           -105.0050   ZZ=           -101.3169
   XY=            -25.2211   XZ=              5.1103   YZ=              0.7722

 Normal termination of Gaussian 16 at Fri May  7 03:27:29 2021.
