 Gaussian 16, Revision A.03,
 Gaussian 16:  EM64L-G16RevA.03 25-Dec-2016

 -------------
 #p 6-31g* mp2
 -------------

 ------------------------------------------------------
 Input file generated by CHIRIPA (05-May-2021 14:57:23)
 ------------------------------------------------------
 Symbolic Z-matrix:
 Charge =  0 Multiplicity = 1

                         Standard orientation:
 ---------------------------------------------------------------------
 Center     Atomic      Atomic             Coordinates (Angstroms)
 Number     Number       Type             X           Y           Z
 ---------------------------------------------------------------------
      1          6           0        5.228949    0.927173    0.584485
      2          6           0        5.169012   -0.453288    0.367105
      3          6           0        3.964670   -1.063175    0.003584
      4          6           0        2.834544   -0.258758   -0.134320
      5          6           0        2.862247    1.119124    0.075358
      6          6           0        4.077405    1.707598    0.438175
      7          1           0        6.168712    1.392631    0.866603
      8          1           0        6.061726   -1.061860    0.480003
      9          1           0        3.890021   -2.129682   -0.170794
     10          1           0        1.955597    1.699600   -0.044852
     11          1           0        4.120992    2.779913    0.606357
     12          7           0        1.553836   -0.893083   -0.518791
     13          8           0        0.572333   -0.162290   -0.633812
     14          8           0        1.555770   -2.109050   -0.697839
     15          6           0       -3.233576   -2.309020    0.583862
     16          6           0       -2.914848   -1.885896   -0.710702
     17          6           0       -2.808062   -0.523634   -1.006315
     18          6           0       -3.027450    0.392350    0.021368
     19          6           0       -3.346510    0.002069    1.321049
     20          6           0       -3.448012   -1.365352    1.593827
     21          1           0       -3.314478   -3.369262    0.804631
     22          1           0       -2.747783   -2.616522   -1.497035
     23          1           0       -2.562641   -0.168456   -1.999812
     24          1           0       -3.507454    0.753995    2.084019
     25          1           0       -3.695680   -1.691061    2.600116
     26          7           0       -2.917197    1.837246   -0.279495
     27          8           0       -3.115199    2.624302    0.643529
     28          8           0       -2.634867    2.155340   -1.432640
 ---------------------------------------------------------------------

 SCF Done:  E(RHF) =  -868.339046358     A.U. after   16 cycles
 E2 =    -0.2599715289D+01 EUMP2 =    -0.87093876164699D+03

 The electronic state is 1-A.
 Alpha  occ. eigenvalues --  -20.61012 -20.60982 -20.59718 -20.59686 -15.86035
 Alpha  occ. eigenvalues --  -15.84747 -11.31234 -11.29789 -11.27819 -11.27734
 Alpha  occ. eigenvalues --  -11.27516 -11.26797 -11.26734 -11.26478 -11.26321
 Alpha  occ. eigenvalues --  -11.26162 -11.25454 -11.25275  -1.60070  -1.58779
 Alpha  occ. eigenvalues --   -1.39627  -1.38343  -1.19397  -1.17975  -1.08828
 Alpha  occ. eigenvalues --   -1.07450  -1.04771  -1.03360  -0.95689  -0.94334
 Alpha  occ. eigenvalues --   -0.86179  -0.84795  -0.82524  -0.81192  -0.77583
 Alpha  occ. eigenvalues --   -0.76253  -0.72286  -0.71378  -0.70996  -0.70505
 Alpha  occ. eigenvalues --   -0.70065  -0.69170  -0.65053  -0.64773  -0.63672
 Alpha  occ. eigenvalues --   -0.63420  -0.62112  -0.60748  -0.55292  -0.53951
 Alpha  occ. eigenvalues --   -0.53118  -0.52860  -0.51704  -0.51502  -0.49026
 Alpha  occ. eigenvalues --   -0.48967  -0.47752  -0.47720  -0.45064  -0.43823
 Alpha  occ. eigenvalues --   -0.37379  -0.36368  -0.35949  -0.34864
 Alpha virt. eigenvalues --    0.04932   0.06301   0.11286   0.12752   0.16451
 Alpha virt. eigenvalues --    0.17827   0.21452   0.22650   0.27383   0.28337
 Alpha virt. eigenvalues --    0.28564   0.29515   0.31013   0.32124   0.32608

 Mulliken charges:
               1
     1  C   -0.170394
     2  C   -0.218865
     3  C   -0.171188
     4  C    0.157188
     5  C   -0.170991
     6  C   -0.218966
     7  H    0.226113
     8  H    0.223004
     9  H    0.273915
    10  H    0.281185
    11  H    0.226156
    12  N    0.490149
    13  O   -0.461016
    14  O   -0.464847
    15  C   -0.169549
    16  C   -0.212694
    17  C   -0.147640
    18  C    0.159995
    19  C   -0.172874
    20  C   -0.220346
    21  H    0.221231
    22  H    0.222420
    23  H    0.274146
    24  H    0.269312
    25  H    0.216833
    26  N    0.488328
    27  O   -0.468713
    28  O   -0.461889
 Sum of Mulliken charges =  -0.00000

 Dipole moment (field-independent basis, Debye):
    X=              4.4134    Y=             -2.8646    Z=              2.2081  Tot=              5.7061
 Quadrupole moment (field-independent basis, Debye-Ang):
   XX=            -77.8289   YY=           -106.8642   ZZ=           -101.7863
   XY=             18.6429   XZ=             -0.4690   YZ=              1.1293

 Normal termination of Gaussian 16 at Thu May  6 12:59:03 2021.
