 Gaussian 16, Revision A.03,
 Gaussian 16:  EM64L-G16RevA.03 25-Dec-2016

 -------------
 #p 6-31g* mp2
 -------------

 ------------------------------------------------------
 Input file generated by CHIRIPA (05-May-2021 14:57:21)
 ------------------------------------------------------
 Symbolic Z-matrix:
 Charge =  0 Multiplicity = 1

                         Standard orientation:
 ---------------------------------------------------------------------
 Center     Atomic      Atomic             Coordinates (Angstroms)
 Number     Number       Type             X           Y           Z
 ---------------------------------------------------------------------
      1          6           0        1.738539    2.694408    0.013002
      2          6           0        0.942045    2.018188   -0.916969
      3          6           0        1.156430    0.662469   -1.182701
      4          6           0        2.180676    0.011042   -0.497243
      5          6           0        2.991123    0.657173    0.434948
      6          6           0        2.758737    2.012944    0.684808
      7          1           0        1.565007    3.747583    0.213265
      8          1           0        0.149025    2.544876   -1.440193
      9          1           0        0.554707    0.114606   -1.897679
     10          1           0        3.774047    0.105312    0.940812
     11          1           0        3.378865    2.535552    1.407557
     12          7           0        2.417164   -1.424224   -0.770161
     13          8           0        3.325941   -1.975479   -0.153006
     14          8           0        1.689268   -1.970754   -1.596060
     15          6           0       -4.048562    0.573767   -0.981323
     16          6           0       -3.234077    1.489991   -0.307773
     17          6           0       -2.174684    1.046226    0.489289
     18          6           0       -1.957351   -0.326998    0.590857
     19          6           0       -2.751236   -1.264650   -0.067813
     20          6           0       -3.804971   -0.798210   -0.859408
     21          1           0       -4.869326    0.927302   -1.598376
     22          1           0       -3.420906    2.556068   -0.400614
     23          1           0       -1.528601    1.733656    1.021674
     24          1           0       -2.540278   -2.321240    0.044128
     25          1           0       -4.435883   -1.512054   -1.381348
     26          7           0       -0.838814   -0.808794    1.431777
     27          8           0       -0.668211   -2.023778    1.504886
     28          8           0       -0.153887    0.037681    2.001858
 ---------------------------------------------------------------------

 SCF Done:  E(RHF) =  -868.335900795     A.U. after   16 cycles
 E2 =    -0.2606059008D+01 EUMP2 =    -0.87094195980297D+03

 The electronic state is 1-A.
 Alpha  occ. eigenvalues --  -20.60843 -20.60796 -20.60019 -20.59977 -15.85840
 Alpha  occ. eigenvalues --  -15.85061 -11.31322 -11.30473 -11.27983 -11.27893
 Alpha  occ. eigenvalues --  -11.27740 -11.27149 -11.27035 -11.27005 -11.26941
 Alpha  occ. eigenvalues --  -11.26913 -11.26267 -11.26108  -1.59894  -1.59059
 Alpha  occ. eigenvalues --   -1.39436  -1.38621  -1.19554  -1.18683  -1.08919
 Alpha  occ. eigenvalues --   -1.08099  -1.04980  -1.04128  -0.95729  -0.94920
 Alpha  occ. eigenvalues --   -0.86353  -0.85560  -0.82562  -0.81767  -0.77584
 Alpha  occ. eigenvalues --   -0.76781  -0.72080  -0.71398  -0.71297  -0.70647
 Alpha  occ. eigenvalues --   -0.70227  -0.69878  -0.65197  -0.64973  -0.64385
 Alpha  occ. eigenvalues --   -0.64201  -0.62308  -0.61508  -0.55472  -0.54709
 Alpha  occ. eigenvalues --   -0.53342  -0.53076  -0.52368  -0.52275  -0.48872
 Alpha  occ. eigenvalues --   -0.48817  -0.48060  -0.48031  -0.44737  -0.44002
 Alpha  occ. eigenvalues --   -0.37683  -0.36865  -0.36552  -0.35352
 Alpha virt. eigenvalues --    0.04864   0.05756   0.10985   0.11992   0.16344
 Alpha virt. eigenvalues --    0.17270   0.21043   0.21951   0.26805   0.27860
 Alpha virt. eigenvalues --    0.28150   0.28883   0.30435   0.31564   0.32394

 Mulliken charges:
               1
     1  C   -0.171160
     2  C   -0.219301
     3  C   -0.181257
     4  C    0.166757
     5  C   -0.157687
     6  C   -0.211396
     7  H    0.219939
     8  H    0.215202
     9  H    0.272185
    10  H    0.276518
    11  H    0.222093
    12  N    0.490521
    13  O   -0.456993
    14  O   -0.465862
    15  C   -0.170693
    16  C   -0.224811
    17  C   -0.169821
    18  C    0.155052
    19  C   -0.168147
    20  C   -0.219851
    21  H    0.225808
    22  H    0.219777
    23  H    0.273598
    24  H    0.281608
    25  H    0.225770
    26  N    0.486151
    27  O   -0.452443
    28  O   -0.461560
 Sum of Mulliken charges =  -0.00000

 Dipole moment (field-independent basis, Debye):
    X=             -4.6119    Y=              6.4047    Z=             -1.7386  Tot=              8.0816
 Quadrupole moment (field-independent basis, Debye-Ang):
   XX=            -90.3290   YY=           -102.3677   ZZ=           -108.2728
   XY=             10.6479   XZ=              9.7632   YZ=              0.8184

 Normal termination of Gaussian 16 at Thu May  6 22:37:44 2021.
