 Gaussian 16, Revision A.03,
 Gaussian 16:  EM64L-G16RevA.03 25-Dec-2016

 -------------
 #p 6-31g* mp2
 -------------

 ------------------------------------------------------
 Input file generated by CHIRIPA (05-May-2021 14:51:10)
 ------------------------------------------------------
 Symbolic Z-matrix:
 Charge =  0 Multiplicity = 1

                         Standard orientation:
 ---------------------------------------------------------------------
 Center     Atomic      Atomic             Coordinates (Angstroms)
 Number     Number       Type             X           Y           Z
 ---------------------------------------------------------------------
      1          6           0       -3.047289   -0.082818    0.025449
      2          6           0       -2.655563   -1.178120    1.017845
      3          6           0       -3.482825   -2.452764    0.848397
      4          1           0       -4.113515    0.151165    0.149382
      5          1           0       -2.928058   -0.465111   -0.997796
      6          1           0       -2.774177   -0.793416    2.038899
      7          1           0       -1.590100   -1.409387    0.891667
      8          1           0       -3.356588   -2.862903   -0.158803
      9          1           0       -4.547393   -2.243432    0.994948
     10          1           0       -3.186247   -3.222451    1.567760
     11          6           0       -2.229117    1.197689    0.182368
     12          6           0       -2.620843    2.292991   -0.810028
     13          6           0       -1.793581    3.567635   -0.640579
     14          1           0       -2.348348    1.579982    1.205614
     15          1           0       -1.162891    0.963706    0.058435
     16          1           0       -3.686306    2.524258   -0.683849
     17          1           0       -2.502229    1.908287   -1.831081
     18          1           0       -0.729014    3.358303   -0.787130
     19          1           0       -1.919818    3.977775    0.366621
     20          1           0       -2.090159    4.337322   -1.359942
     21          6           0        2.605533   -1.318078   -0.165452
     22          6           0        1.334777   -1.816664   -0.854348
     23          6           0        1.284021   -3.340422   -0.970007
     24          1           0        3.481785   -1.674199   -0.724295
     25          1           0        2.670770   -1.765130    0.836189
     26          1           0        1.271247   -1.367722   -1.853864
     27          1           0        0.461445   -1.459154   -0.293908
     28          1           0        1.322460   -3.803504    0.021295
     29          1           0        2.136863   -3.711552   -1.547524
     30          1           0        0.367328   -3.675120   -1.465497
     31          6           0        2.670874    0.203207   -0.042366
     32          6           0        3.941629    0.701793    0.646530
     33          6           0        3.992385    2.225551    0.762189
     34          1           0        2.605636    0.650259   -1.044006
     35          1           0        1.794622    0.559327    0.516477
     36          1           0        4.814962    0.344283    0.086090
     37          1           0        4.005160    0.252850    1.646045
     38          1           0        3.139543    2.596680    1.339706
     39          1           0        3.953947    2.688632   -0.229113
     40          1           0        4.909078    2.560249    1.257680
 ---------------------------------------------------------------------

 SCF Done:  E(RHF) =  -470.733366851     A.U. after   11 cycles
 E2 =    -0.1583634332D+01 EUMP2 =    -0.47231700118268D+03

 The electronic state is 1-A.
 Alpha  occ. eigenvalues --  -11.21656 -11.21632 -11.21607 -11.21587 -11.21456
 Alpha  occ. eigenvalues --  -11.21401 -11.21397 -11.21341 -11.21123 -11.21085
 Alpha  occ. eigenvalues --  -11.21077 -11.21048  -1.08489  -1.08420  -1.03581
 Alpha  occ. eigenvalues --   -1.03518  -0.96019  -0.95971  -0.87037  -0.86986
 Alpha  occ. eigenvalues --   -0.79677  -0.79559  -0.78375  -0.78170  -0.65254
 Alpha  occ. eigenvalues --   -0.64933  -0.61105  -0.60804  -0.59398  -0.59325
 Alpha  occ. eigenvalues --   -0.57638  -0.57575  -0.55325  -0.55235  -0.52715
 Alpha  occ. eigenvalues --   -0.52665  -0.52447  -0.52393  -0.50011  -0.49872
 Alpha  occ. eigenvalues --   -0.48056  -0.47849  -0.46895  -0.46461  -0.46215
 Alpha  occ. eigenvalues --   -0.45785  -0.45744  -0.45203  -0.43826  -0.43778
 Alpha virt. eigenvalues --    0.19968   0.22988   0.23516   0.24616   0.25208
 Alpha virt. eigenvalues --    0.26804   0.27074   0.27613   0.28212   0.29759
 Alpha virt. eigenvalues --    0.30933   0.31304   0.31663   0.31828   0.32290

 Mulliken charges:
               1
     1  C   -0.297575
     2  C   -0.307337
     3  C   -0.475103
     4  H    0.149790
     5  H    0.149840
     6  H    0.151875
     7  H    0.158239
     8  H    0.155187
     9  H    0.155259
    10  H    0.160197
    11  C   -0.303205
    12  C   -0.299378
    13  C   -0.476092
    14  H    0.149139
    15  H    0.153718
    16  H    0.151878
    17  H    0.152097
    18  H    0.155974
    19  H    0.154920
    20  H    0.160162
    21  C   -0.297507
    22  C   -0.310315
    23  C   -0.475256
    24  H    0.150015
    25  H    0.149702
    26  H    0.151837
    27  H    0.160815
    28  H    0.155404
    29  H    0.155593
    30  H    0.160209
    31  C   -0.301274
    32  C   -0.299628
    33  C   -0.475934
    34  H    0.149282
    35  H    0.151958
    36  H    0.152139
    37  H    0.152164
    38  H    0.155657
    39  H    0.155132
    40  H    0.160423
 Sum of Mulliken charges =  -0.00000

 Dipole moment (field-independent basis, Debye):
    X=              0.0199    Y=             -0.0073    Z=              0.0002  Tot=              0.0212
 Quadrupole moment (field-independent basis, Debye-Ang):
   XX=            -84.3532   YY=            -86.7975   ZZ=            -83.5322
   XY=             -0.9241   XZ=             -0.8911   YZ=              0.0231

 Normal termination of Gaussian 16 at Wed May  5 16:41:19 2021.
