 Gaussian 16, Revision A.03,
 Gaussian 16:  EM64L-G16RevA.03 25-Dec-2016

 -------------
 #p 6-31g* mp2
 -------------

 ------------------------------------------------------
 Input file generated by CHIRIPA (05-May-2021 14:57:21)
 ------------------------------------------------------
 Symbolic Z-matrix:
 Charge =  0 Multiplicity = 1

                         Standard orientation:
 ---------------------------------------------------------------------
 Center     Atomic      Atomic             Coordinates (Angstroms)
 Number     Number       Type             X           Y           Z
 ---------------------------------------------------------------------
      1          6           0        1.627023    1.346149    0.019944
      2          6           0        2.521722    1.608507    1.062635
      3          6           0        3.793140    1.027143    1.070424
      4          6           0        4.138398    0.184573    0.014884
      5          6           0        3.269266   -0.096309   -1.038208
      6          6           0        2.002988    0.496078   -1.025307
      7          1           0        0.641352    1.802048    0.021930
      8          1           0        2.232455    2.268279    1.875697
      9          1           0        4.505442    1.213054    1.865080
     10          1           0        3.586200   -0.758269   -1.834939
     11          1           0        1.310214    0.290525   -1.836391
     12          7           0        5.481670   -0.436725    0.012178
     13          8           0        5.761716   -1.175428   -0.929379
     14          8           0        6.229047   -0.173232    0.951665
     15          6           0       -6.188884    0.806836    0.074656
     16          6           0       -5.256997    1.206965   -0.888673
     17          6           0       -3.995198    0.607875   -0.947832
     18          6           0       -3.697374   -0.392716   -0.024030
     19          6           0       -4.604336   -0.813256    0.947492
     20          6           0       -5.860160   -0.200222    0.988054
     21          1           0       -7.166760    1.277639    0.113390
     22          1           0       -5.509544    1.988804   -1.599302
     23          1           0       -3.254790    0.898334   -1.683256
     24          1           0       -4.323648   -1.595327    1.642471
     25          1           0       -6.581887   -0.512991    1.737273
     26          7           0       -2.364727   -1.034327   -0.076815
     27          8           0       -2.126776   -1.913572    0.748377
     28          8           0       -1.583382   -0.645826   -0.942381
 ---------------------------------------------------------------------

 SCF Done:  E(RHF) =  -868.339277163     A.U. after   16 cycles
 E2 =    -0.2598834105D+01 EUMP2 =    -0.87093811126845D+03

 The electronic state is 1-A.
 Alpha  occ. eigenvalues --  -20.61768 -20.61694 -20.59949 -20.59939 -15.86773
 Alpha  occ. eigenvalues --  -15.84991 -11.31968 -11.30175 -11.28544 -11.28480
 Alpha  occ. eigenvalues --  -11.28197 -11.27490 -11.27453 -11.26755 -11.26642
 Alpha  occ. eigenvalues --  -11.26376 -11.25765 -11.25529  -1.60792  -1.59025
 Alpha  occ. eigenvalues --   -1.40356  -1.38584  -1.20118  -1.18308  -1.09538
 Alpha  occ. eigenvalues --   -1.07729  -1.05494  -1.03679  -0.96404  -0.94606
 Alpha  occ. eigenvalues --   -0.86898  -0.85077  -0.83245  -0.81445  -0.78319
 Alpha  occ. eigenvalues --   -0.76522  -0.73003  -0.72110  -0.71220  -0.71212
 Alpha  occ. eigenvalues --   -0.70343  -0.69418  -0.65772  -0.65486  -0.63957
 Alpha  occ. eigenvalues --   -0.63656  -0.62844  -0.61030  -0.55984  -0.54182
 Alpha  occ. eigenvalues --   -0.53833  -0.53578  -0.52019  -0.51761  -0.49758
 Alpha  occ. eigenvalues --   -0.49711  -0.47981  -0.47954  -0.45796  -0.44031
 Alpha  occ. eigenvalues --   -0.38081  -0.37091  -0.36254  -0.35262
 Alpha virt. eigenvalues --    0.04191   0.05995   0.10564   0.12393   0.15722
 Alpha virt. eigenvalues --    0.17554   0.20706   0.22473   0.26648   0.27472
 Alpha virt. eigenvalues --    0.28468   0.29172   0.30459   0.31809   0.32066

 Mulliken charges:
               1
     1  C   -0.167696
     2  C   -0.218889
     3  C   -0.172666
     4  C    0.158315
     5  C   -0.172980
     6  C   -0.210716
     7  H    0.222660
     8  H    0.218175
     9  H    0.271754
    10  H    0.273587
    11  H    0.233970
    12  N    0.488233
    13  O   -0.462017
    14  O   -0.463691
    15  C   -0.170148
    16  C   -0.218265
    17  C   -0.172232
    18  C    0.157546
    19  C   -0.170502
    20  C   -0.218355
    21  H    0.228142
    22  H    0.225000
    23  H    0.271980
    24  H    0.277529
    25  H    0.226124
    26  N    0.490383
    27  O   -0.453260
    28  O   -0.471980
 Sum of Mulliken charges =  -0.00000

 Dipole moment (field-independent basis, Debye):
    X=             -9.9593    Y=              4.3302    Z=              0.1700  Tot=             10.8613
 Quadrupole moment (field-independent basis, Debye-Ang):
   XX=           -110.0853   YY=           -104.2570   ZZ=            -98.6722
   XY=              2.7775   XZ=             -1.2370   YZ=             -0.6472

 Normal termination of Gaussian 16 at Wed May  5 17:44:43 2021.
