 Gaussian 16, Revision A.03,
 Gaussian 16:  EM64L-G16RevA.03 25-Dec-2016

 -------------
 #p 6-31g* mp2
 -------------

 ------------------------------------------------------
 Input file generated by CHIRIPA (05-May-2021 14:57:27)
 ------------------------------------------------------
 Symbolic Z-matrix:
 Charge =  0 Multiplicity = 1

                         Standard orientation:
 ---------------------------------------------------------------------
 Center     Atomic      Atomic             Coordinates (Angstroms)
 Number     Number       Type             X           Y           Z
 ---------------------------------------------------------------------
      1          6           0        3.875280   -2.339078   -0.197296
      2          6           0        4.423398   -1.381786   -1.057342
      3          6           0        4.076261   -0.033297   -0.932357
      4          6           0        3.173976    0.324367    0.068267
      5          6           0        2.610811   -0.605894    0.940477
      6          6           0        2.972328   -1.948765    0.797116
      7          1           0        4.150530   -3.384434   -0.301525
      8          1           0        5.124888   -1.682021   -1.830527
      9          1           0        4.485542    0.728553   -1.584654
     10          1           0        1.914115   -0.276184    1.701610
     11          1           0        2.545074   -2.690036    1.466456
     12          7           0        2.798866    1.748978    0.210310
     13          8           0        2.001770    2.038397    1.099980
     14          8           0        3.309052    2.549193   -0.570716
     15          6           0       -5.746660   -0.146784   -0.286158
     16          6           0       -5.065929    1.073982   -0.339639
     17          6           0       -3.674856    1.117620   -0.207132
     18          6           0       -2.993058   -0.084043   -0.021529
     19          6           0       -3.642781   -1.316044    0.036111
     20          6           0       -5.034170   -1.335804   -0.098784
     21          1           0       -6.827401   -0.171408   -0.390020
     22          1           0       -5.616662    1.998964   -0.485056
     23          1           0       -3.122704    2.048820   -0.244693
     24          1           0       -3.066424   -2.221533    0.182125
     25          1           0       -5.560197   -2.285319   -0.056847
     26          7           0       -1.520224   -0.050485    0.120015
     27          8           0       -0.942659   -1.123149    0.282640
     28          8           0       -0.971271    1.047846    0.065651
 ---------------------------------------------------------------------

 SCF Done:  E(RHF) =  -868.338037616     A.U. after   16 cycles
 E2 =    -0.2600640461D+01 EUMP2 =    -0.87093867807692D+03

 The electronic state is 1-A.
 Alpha  occ. eigenvalues --  -20.60824 -20.60713 -20.59225 -20.59096 -15.85783
 Alpha  occ. eigenvalues --  -15.84205 -11.31145 -11.29601 -11.27751 -11.27668
 Alpha  occ. eigenvalues --  -11.27464 -11.26752 -11.26700 -11.26315 -11.26127
 Alpha  occ. eigenvalues --  -11.26091 -11.25365 -11.25221  -1.59837  -1.58218
 Alpha  occ. eigenvalues --   -1.39384  -1.37771  -1.19320  -1.17822  -1.08721
 Alpha  occ. eigenvalues --   -1.07233  -1.04719  -1.03239  -0.95554  -0.94053
 Alpha  occ. eigenvalues --   -0.86118  -0.84653  -0.82381  -0.80894  -0.77432
 Alpha  occ. eigenvalues --   -0.75903  -0.72007  -0.71154  -0.70457  -0.70426
 Alpha  occ. eigenvalues --   -0.69501  -0.68993  -0.64970  -0.64724  -0.63498
 Alpha  occ. eigenvalues --   -0.63293  -0.62063  -0.60598  -0.55229  -0.53830
 Alpha  occ. eigenvalues --   -0.53052  -0.52811  -0.51572  -0.51372  -0.48790
 Alpha  occ. eigenvalues --   -0.48770  -0.47227  -0.47176  -0.44787  -0.43118
 Alpha  occ. eigenvalues --   -0.37304  -0.36322  -0.35849  -0.34791
 Alpha virt. eigenvalues --    0.05090   0.06673   0.11332   0.12834   0.16585
 Alpha virt. eigenvalues --    0.18093   0.21469   0.22743   0.27379   0.28359
 Alpha virt. eigenvalues --    0.28656   0.29660   0.31021   0.32204   0.32628

 Mulliken charges:
               1
     1  C   -0.172107
     2  C   -0.220215
     3  C   -0.172615
     4  C    0.157173
     5  C   -0.150102
     6  C   -0.216828
     7  H    0.219021
     8  H    0.216719
     9  H    0.270666
    10  H    0.278858
    11  H    0.219808
    12  N    0.489855
    13  O   -0.451317
    14  O   -0.470879
    15  C   -0.170738
    16  C   -0.218728
    17  C   -0.170581
    18  C    0.158262
    19  C   -0.171347
    20  C   -0.218641
    21  H    0.225495
    22  H    0.224571
    23  H    0.280211
    24  H    0.272800
    25  H    0.222399
    26  N    0.487400
    27  O   -0.471933
    28  O   -0.447205
 Sum of Mulliken charges =  -0.00000

 Dipole moment (field-independent basis, Debye):
    X=             -4.3058    Y=             -4.8912    Z=             -0.8364  Tot=              6.5699
 Quadrupole moment (field-independent basis, Debye-Ang):
   XX=            -66.6665   YY=           -103.9346   ZZ=           -103.2516
   XY=            -14.2616   XZ=             -1.9643   YZ=             -2.0320

 Normal termination of Gaussian 16 at Thu May  6 03:39:35 2021.
