 Gaussian 16, Revision A.03,
 Gaussian 16:  EM64L-G16RevA.03 25-Dec-2016

 -------------
 #p 6-31g* mp2
 -------------

 ------------------------------------------------------
 Input file generated by CHIRIPA (05-May-2021 14:53:18)
 ------------------------------------------------------
 Symbolic Z-matrix:
 Charge =  0 Multiplicity = 1

                         Standard orientation:
 ---------------------------------------------------------------------
 Center     Atomic      Atomic             Coordinates (Angstroms)
 Number     Number       Type             X           Y           Z
 ---------------------------------------------------------------------
      1          6           0       -4.080548    0.583816    0.637308
      2          6           0       -2.654020    0.910224    0.194066
      3          6           0       -1.943726    1.870882    1.148221
      4          1           0       -4.655670    1.516528    0.716218
      5          1           0       -4.053041    0.147332    1.645336
      6          1           0       -2.684092    1.344687   -0.813383
      7          1           0       -2.082280   -0.023391    0.116017
      8          1           0       -1.884214    1.441498    2.153551
      9          1           0       -2.489446    2.817349    1.218870
     10          1           0       -0.925510    2.090611    0.812340
     11          6           0       -4.803654   -0.375424   -0.306463
     12          6           0       -6.230181   -0.701831    0.136779
     13          6           0       -6.940476   -1.662489   -0.817376
     14          1           0       -4.831161    0.061061   -1.314490
     15          1           0       -4.228531   -1.308136   -0.385373
     16          1           0       -6.801922    0.231784    0.214828
     17          1           0       -6.200110   -1.136294    1.144228
     18          1           0       -6.394756   -2.608957   -0.888025
     19          1           0       -6.999987   -1.233105   -1.822706
     20          1           0       -7.958692   -1.882218   -0.481495
     21          6           0        1.773152    1.719138   -0.622543
     22          6           0        1.348062    0.438355   -0.254553
     23          6           0        2.279599   -0.567039    0.021071
     24          6           0        3.634475   -0.255473   -0.081545
     25          6           0        4.089296    1.010928   -0.445765
     26          6           0        3.140002    2.000840   -0.716808
     27          1           0        1.042615    2.494139   -0.834876
     28          1           0        0.287192    0.216725   -0.180541
     29          1           0        1.978122   -1.567114    0.308090
     30          1           0        5.153599    1.201747   -0.511066
     31          1           0        3.473027    2.994618   -1.002370
     32          7           0        4.630050   -1.311643    0.207821
     33          8           0        5.817976   -1.011731    0.110259
     34          8           0        4.203603   -2.419386    0.526709
 ---------------------------------------------------------------------

 SCF Done:  E(RHF) =  -669.534585529     A.U. after   15 cycles
 E2 =    -0.2092490183D+01 EUMP2 =    -0.67162707571217D+03

 The electronic state is 1-A.
 Alpha  occ. eigenvalues --  -20.60729 -20.60724 -15.85781 -11.31142 -11.27701
 Alpha  occ. eigenvalues --  -11.27683 -11.27433 -11.26727 -11.26641 -11.22823
 Alpha  occ. eigenvalues --  -11.22254 -11.22231 -11.22138 -11.22047 -11.21499
 Alpha  occ. eigenvalues --   -1.59804  -1.39358  -1.19306  -1.09263  -1.08707
 Alpha  occ. eigenvalues --   -1.04717  -1.04367  -0.96804  -0.95543  -0.87815
 Alpha  occ. eigenvalues --   -0.86108  -0.82377  -0.80474  -0.79024  -0.77423
 Alpha  occ. eigenvalues --   -0.72001  -0.71127  -0.70440  -0.65914  -0.64970
 Alpha  occ. eigenvalues --   -0.64785  -0.62201  -0.61691  -0.60121  -0.58374
 Alpha  occ. eigenvalues --   -0.56057  -0.55220  -0.53554  -0.53274  -0.52973
 Alpha  occ. eigenvalues --   -0.52716  -0.50718  -0.48794  -0.48755  -0.48736
 Alpha  occ. eigenvalues --   -0.47493  -0.46562  -0.46450  -0.44765  -0.44613
 Alpha  occ. eigenvalues --   -0.37276  -0.36296
 Alpha virt. eigenvalues --    0.05090   0.11268   0.16563   0.19807   0.22475
 Alpha virt. eigenvalues --    0.24045   0.25150   0.26230   0.26459   0.27428
 Alpha virt. eigenvalues --    0.29042   0.29757   0.30756   0.31636   0.31848

 Mulliken charges:
               1
     1  C   -0.297725
     2  C   -0.306725
     3  C   -0.482092
     4  H    0.152534
     5  H    0.152669
     6  H    0.152896
     7  H    0.146781
     8  H    0.161987
     9  H    0.160513
    10  H    0.154243
    11  C   -0.299238
    12  C   -0.300412
    13  C   -0.476221
    14  H    0.150173
    15  H    0.150313
    16  H    0.152800
    17  H    0.153321
    18  H    0.156202
    19  H    0.155647
    20  H    0.162150
    21  C   -0.175978
    22  C   -0.224239
    23  C   -0.174401
    24  C    0.158945
    25  C   -0.171447
    26  C   -0.218515
    27  H    0.226475
    28  H    0.238179
    29  H    0.275558
    30  H    0.275379
    31  H    0.223269
    32  N    0.488065
    33  O   -0.460588
    34  O   -0.460518
 Sum of Mulliken charges =  -0.00000

 Dipole moment (field-independent basis, Debye):
    X=             -3.7676    Y=              3.7201    Z=             -0.9721  Tot=              5.3832
 Quadrupole moment (field-independent basis, Debye-Ang):
   XX=           -117.0398   YY=            -94.7543   ZZ=            -95.2140
   XY=             16.5596   XZ=             -4.6113   YZ=             -1.5747

 Normal termination of Gaussian 16 at Thu May  6 17:18:58 2021.
