 Gaussian 16, Revision A.03,
 Gaussian 16:  EM64L-G16RevA.03 25-Dec-2016

 -------------
 #p 6-31g* mp2
 -------------

 ------------------------------------------------------
 Input file generated by CHIRIPA (05-May-2021 14:51:09)
 ------------------------------------------------------
 Symbolic Z-matrix:
 Charge =  0 Multiplicity = 1

                         Standard orientation:
 ---------------------------------------------------------------------
 Center     Atomic      Atomic             Coordinates (Angstroms)
 Number     Number       Type             X           Y           Z
 ---------------------------------------------------------------------
      1          6           0        1.936230   -0.269871    0.697699
      2          6           0        1.985137   -1.590442    1.466911
      3          6           0        0.612429   -2.027203    1.979460
      4          1           0        1.520857    0.511316    1.348973
      5          1           0        1.243233   -0.372141   -0.148876
      6          1           0        2.678891   -1.486143    2.310974
      7          1           0        2.400620   -2.368533    0.813793
      8          1           0       -0.085751   -2.158955    1.146521
      9          1           0        0.194100   -1.271551    2.652209
     10          1           0        0.670534   -2.973456    2.526351
     11          6           0        3.300885    0.179955    0.178948
     12          6           0        3.251979    1.500525   -0.590263
     13          6           0        4.624687    1.937287   -1.102812
     14          1           0        3.993883    0.282225    1.025524
     15          1           0        3.716258   -0.601232   -0.472325
     16          1           0        2.836495    2.278617    0.062855
     17          1           0        2.558225    1.396226   -1.434327
     18          1           0        5.043015    1.181635   -1.775562
     19          1           0        5.322867    2.069039   -0.269873
     20          1           0        4.566581    2.883540   -1.649703
     21          6           0       -3.186723    0.388152   -0.060385
     22          6           0       -2.931922    1.873234    0.199596
     23          6           0       -4.077476    2.545920    0.956559
     24          1           0       -4.119622    0.276905   -0.629831
     25          1           0       -3.343497   -0.123344    0.899402
     26          1           0       -2.774304    2.381524   -0.760307
     27          1           0       -1.999421    1.980970    0.768324
     28          1           0       -4.232117    2.065140    1.927919
     29          1           0       -5.011402    2.467970    0.390603
     30          1           0       -3.874478    3.607039    1.131707
     31          6           0       -2.050392   -0.298235   -0.816263
     32          6           0       -2.305194   -1.783318   -1.076243
     33          6           0       -1.159639   -2.456003   -1.833207
     34          1           0       -1.893618    0.213260   -1.776049
     35          1           0       -1.117493   -0.186989   -0.246817
     36          1           0       -3.237695   -1.891054   -1.644971
     37          1           0       -2.462812   -2.291608   -0.116340
     38          1           0       -0.225713   -2.378055   -1.267250
     39          1           0       -1.004999   -1.975224   -2.804566
     40          1           0       -1.362637   -3.517123   -2.008355
 ---------------------------------------------------------------------

 SCF Done:  E(RHF) =  -470.732096519     A.U. after   11 cycles
 E2 =    -0.1585123469D+01 EUMP2 =    -0.47231721998821D+03

 The electronic state is 1-A.
 Alpha  occ. eigenvalues --  -11.21660 -11.21611 -11.21606 -11.21567 -11.21433
 Alpha  occ. eigenvalues --  -11.21373 -11.21350 -11.21278 -11.21127 -11.21112
 Alpha  occ. eigenvalues --  -11.21073 -11.21048  -1.08503  -1.08384  -1.03613
 Alpha  occ. eigenvalues --   -1.03495  -0.96035  -0.95964  -0.87039  -0.86999
 Alpha  occ. eigenvalues --   -0.79664  -0.79574  -0.78444  -0.78075  -0.65341
 Alpha  occ. eigenvalues --   -0.64876  -0.61290  -0.60657  -0.59425  -0.59289
 Alpha  occ. eigenvalues --   -0.57645  -0.57568  -0.55490  -0.55096  -0.52712
 Alpha  occ. eigenvalues --   -0.52675  -0.52486  -0.52364  -0.49989  -0.49907
 Alpha  occ. eigenvalues --   -0.48138  -0.47816  -0.46835  -0.46569  -0.46264
 Alpha  occ. eigenvalues --   -0.45779  -0.45707  -0.44954  -0.43817  -0.43767
 Alpha virt. eigenvalues --    0.20314   0.22862   0.23619   0.24633   0.26001
 Alpha virt. eigenvalues --    0.26301   0.26724   0.27924   0.28484   0.29857
 Alpha virt. eigenvalues --    0.30542   0.31163   0.31425   0.31691   0.32095

 Mulliken charges:
               1
     1  C   -0.307260
     2  C   -0.299419
     3  C   -0.484638
     4  H    0.149004
     5  H    0.157705
     6  H    0.152437
     7  H    0.151969
     8  H    0.164227
     9  H    0.154668
    10  H    0.160839
    11  C   -0.297362
    12  C   -0.299828
    13  C   -0.475763
    14  H    0.149561
    15  H    0.149804
    16  H    0.151891
    17  H    0.152522
    18  H    0.155259
    19  H    0.155135
    20  H    0.160336
    21  C   -0.297560
    22  C   -0.299734
    23  C   -0.475715
    24  H    0.149290
    25  H    0.149791
    26  H    0.151784
    27  H    0.152165
    28  H    0.155132
    29  H    0.155122
    30  H    0.160065
    31  C   -0.308245
    32  C   -0.302022
    33  C   -0.481183
    34  H    0.148534
    35  H    0.160807
    36  H    0.153042
    37  H    0.152855
    38  H    0.158324
    39  H    0.155486
    40  H    0.160972
 Sum of Mulliken charges =  -0.00000

 Dipole moment (field-independent basis, Debye):
    X=              0.0185    Y=             -0.0041    Z=             -0.0031  Tot=              0.0193
 Quadrupole moment (field-independent basis, Debye-Ang):
   XX=            -86.0216   YY=            -85.0716   ZZ=            -83.7592
   XY=              0.0535   XZ=              1.3080   YZ=              0.0944

 Normal termination of Gaussian 16 at Wed May  5 15:08:32 2021.
