 Gaussian 16, Revision A.03,
 Gaussian 16:  EM64L-G16RevA.03 25-Dec-2016

 -------------
 #p 6-31g* mp2
 -------------

 ------------------------------------------------------
 Input file generated by CHIRIPA (05-May-2021 14:51:08)
 ------------------------------------------------------
 Symbolic Z-matrix:
 Charge =  0 Multiplicity = 1

                         Standard orientation:
 ---------------------------------------------------------------------
 Center     Atomic      Atomic             Coordinates (Angstroms)
 Number     Number       Type             X           Y           Z
 ---------------------------------------------------------------------
      1          6           0       -2.988217   -0.539025   -0.162373
      2          6           0       -2.895170   -1.569557   -1.288132
      3          6           0       -3.060124   -3.005692   -0.790036
      4          1           0       -2.219169   -0.757949    0.591008
      5          1           0       -3.958752   -0.643955    0.342052
      6          1           0       -1.925658   -1.461792   -1.791173
      7          1           0       -3.664403   -1.348040   -2.039015
      8          1           0       -4.033460   -3.136196   -0.306108
      9          1           0       -2.284836   -3.250595   -0.056857
     10          1           0       -2.990202   -3.725931   -1.611149
     11          6           0       -2.825249    0.901335   -0.644588
     12          6           0       -2.918296    1.931867    0.481170
     13          6           0       -2.753342    3.368002   -0.016925
     14          1           0       -1.854714    1.006265   -1.149014
     15          1           0       -3.594296    1.120259   -1.397970
     16          1           0       -2.149063    1.710350    1.232054
     17          1           0       -3.887808    1.824102    0.984211
     18          1           0       -3.528630    3.612905   -0.750104
     19          1           0       -1.780006    3.498506   -0.500854
     20          1           0       -2.823264    4.088241    0.804188
     21          6           0        2.314814   -0.601595    0.640744
     22          6           0        1.829418   -0.229056    2.042026
     23          6           0        0.644800   -1.078924    2.502675
     24          1           0        1.484098   -0.490930   -0.069615
     25          1           0        2.597314   -1.663402    0.628368
     26          1           0        1.549223    0.832078    2.052115
     27          1           0        2.661437   -0.340437    2.749100
     28          1           0        0.915624   -2.139545    2.521028
     29          1           0       -0.202910   -0.960369    1.820082
     30          1           0        0.313995   -0.795825    3.506808
     31          6           0        3.498652    0.239285    0.166217
     32          6           0        3.984048   -0.133254   -1.235065
     33          6           0        5.168666    0.716614   -1.695714
     34          1           0        3.216152    1.301092    0.178593
     35          1           0        4.329368    0.128619    0.876576
     36          1           0        3.152029   -0.021874   -1.942140
     37          1           0        4.264243   -1.194388   -1.245154
     38          1           0        6.016375    0.598059   -1.013121
     39          1           0        4.897842    1.777236   -1.714067
     40          1           0        5.499471    0.433514   -2.699847
 ---------------------------------------------------------------------

 SCF Done:  E(RHF) =  -470.733401491     A.U. after   11 cycles
 E2 =    -0.1583070197D+01 EUMP2 =    -0.47231647168781D+03

 The electronic state is 1-A.
 Alpha  occ. eigenvalues --  -11.21668 -11.21641 -11.21630 -11.21611 -11.21465
 Alpha  occ. eigenvalues --  -11.21431 -11.21402 -11.21367 -11.21135 -11.21101
 Alpha  occ. eigenvalues --  -11.21100 -11.21057  -1.08490  -1.08452  -1.03584
 Alpha  occ. eigenvalues --   -1.03544  -0.96040  -0.95990  -0.87058  -0.87004
 Alpha  occ. eigenvalues --   -0.79658  -0.79598  -0.78316  -0.78253  -0.65223
 Alpha  occ. eigenvalues --   -0.65003  -0.60995  -0.60931  -0.59401  -0.59360
 Alpha  occ. eigenvalues --   -0.57668  -0.57586  -0.55422  -0.55200  -0.52725
 Alpha  occ. eigenvalues --   -0.52687  -0.52500  -0.52386  -0.50078  -0.49861
 Alpha  occ. eigenvalues --   -0.48013  -0.47899  -0.46771  -0.46604  -0.45947
 Alpha  occ. eigenvalues --   -0.45791  -0.45750  -0.45516  -0.43838  -0.43803
 Alpha virt. eigenvalues --    0.19831   0.23251   0.24118   0.24418   0.25719
 Alpha virt. eigenvalues --    0.26265   0.27052   0.27699   0.28433   0.29262
 Alpha virt. eigenvalues --    0.30936   0.31648   0.31719   0.31814   0.32201

 Mulliken charges:
               1
     1  C   -0.308075
     2  C   -0.299097
     3  C   -0.476096
     4  H    0.158364
     5  H    0.150080
     6  H    0.151563
     7  H    0.152024
     8  H    0.155204
     9  H    0.155966
    10  H    0.160238
    11  C   -0.297785
    12  C   -0.300412
    13  C   -0.475667
    14  H    0.148598
    15  H    0.149993
    16  H    0.152299
    17  H    0.152300
    18  H    0.155359
    19  H    0.154804
    20  H    0.160414
    21  C   -0.298395
    22  C   -0.299294
    23  C   -0.484422
    24  H    0.148755
    25  H    0.149865
    26  H    0.151860
    27  H    0.152439
    28  H    0.155630
    29  H    0.161958
    30  H    0.161014
    31  C   -0.298375
    32  C   -0.299682
    33  C   -0.475747
    34  H    0.149567
    35  H    0.149932
    36  H    0.151793
    37  H    0.152079
    38  H    0.155282
    39  H    0.155249
    40  H    0.160416
 Sum of Mulliken charges =  -0.00000

 Dipole moment (field-independent basis, Debye):
    X=              0.0047    Y=             -0.0085    Z=              0.0132  Tot=              0.0163
 Quadrupole moment (field-independent basis, Debye-Ang):
   XX=            -83.9515   YY=            -85.7735   ZZ=            -84.8618
   XY=             -1.0892   XZ=              0.8375   YZ=              0.1748

 Normal termination of Gaussian 16 at Thu May  6 08:27:11 2021.
