 Gaussian 16, Revision A.03,
 Gaussian 16:  EM64L-G16RevA.03 25-Dec-2016

 -------------
 #p 6-31g* mp2
 -------------

 ------------------------------------------------------
 Input file generated by CHIRIPA (05-May-2021 14:53:17)
 ------------------------------------------------------
 Symbolic Z-matrix:
 Charge =  0 Multiplicity = 1

                         Standard orientation:
 ---------------------------------------------------------------------
 Center     Atomic      Atomic             Coordinates (Angstroms)
 Number     Number       Type             X           Y           Z
 ---------------------------------------------------------------------
      1          6           0       -4.654716   -0.445310    0.156408
      2          6           0       -3.320977    0.042123   -0.410632
      3          6           0       -2.162457   -0.903708   -0.092781
      4          1           0       -4.562516   -0.561603    1.244948
      5          1           0       -4.873856   -1.443570   -0.247139
      6          1           0       -3.105092    1.039751   -0.007212
      7          1           0       -3.416420    0.157453   -1.497925
      8          1           0       -2.351678   -1.898269   -0.509488
      9          1           0       -2.038580   -1.010957    0.989695
     10          1           0       -1.218681   -0.536056   -0.507484
     11          6           0       -5.822521    0.489665   -0.153079
     12          6           0       -7.156259    0.002231    0.413961
     13          6           0       -8.314779    0.948062    0.096109
     14          1           0       -5.603381    1.487925    0.250467
     15          1           0       -5.914721    0.605958   -1.241620
     16          1           0       -7.060817   -0.113098    1.501254
     17          1           0       -7.372145   -0.995397    0.010541
     18          1           0       -8.438657    1.055311   -0.986366
     19          1           0       -8.125559    1.942623    0.512816
     20          1           0       -9.258556    0.580411    0.510813
     21          6           0        6.079848    1.527917    0.169801
     22          6           0        4.801832    2.052689   -0.048860
     23          6           0        3.693566    1.205942   -0.145361
     24          6           0        3.900557   -0.166715   -0.017842
     25          6           0        5.161358   -0.719921    0.200413
     26          6           0        6.255222    0.145723    0.293520
     27          1           0        6.935181    2.193031    0.243446
     28          1           0        4.662650    3.125706   -0.145336
     29          1           0        2.693124    1.585412   -0.314289
     30          1           0        5.268661   -1.793901    0.292440
     31          1           0        7.246588   -0.264629    0.463371
     32          7           0        2.734909   -1.073131   -0.118207
     33          8           0        2.943814   -2.278774   -0.002363
     34          8           0        1.634442   -0.560773   -0.310816
 ---------------------------------------------------------------------

 SCF Done:  E(RHF) =  -669.535904105     A.U. after   15 cycles
 E2 =    -0.2090585686D+01 EUMP2 =    -0.67162648979059D+03

 The electronic state is 1-A.
 Alpha  occ. eigenvalues --  -20.60890 -20.60885 -15.85938 -11.31271 -11.27837
 Alpha  occ. eigenvalues --  -11.27833 -11.27577 -11.26848 -11.26838 -11.21099
 Alpha  occ. eigenvalues --  -11.20766 -11.20668 -11.20589 -11.20529 -11.19477
 Alpha  occ. eigenvalues --   -1.59955  -1.39512  -1.19441  -1.08842  -1.07686
 Alpha  occ. eigenvalues --   -1.04840  -1.02691  -0.95684  -0.95102  -0.86241
 Alpha  occ. eigenvalues --   -0.86108  -0.82517  -0.78781  -0.77568  -0.77475
 Alpha  occ. eigenvalues --   -0.72163  -0.71273  -0.70551  -0.65098  -0.64844
 Alpha  occ. eigenvalues --   -0.64331  -0.62188  -0.60105  -0.58517  -0.56701
 Alpha  occ. eigenvalues --   -0.55344  -0.54413  -0.53171  -0.52934  -0.51732
 Alpha  occ. eigenvalues --   -0.51532  -0.49074  -0.48907  -0.48887  -0.47072
 Alpha  occ. eigenvalues --   -0.45856  -0.45009  -0.44952  -0.44914  -0.42896
 Alpha  occ. eigenvalues --   -0.37421  -0.36443
 Alpha virt. eigenvalues --    0.04970   0.11212   0.16467   0.21334   0.23546
 Alpha virt. eigenvalues --    0.25196   0.27260   0.27337   0.28108   0.28212
 Alpha virt. eigenvalues --    0.28989   0.30884   0.32200   0.32323   0.32461

 Mulliken charges:
               1
     1  C   -0.297174
     2  C   -0.300099
     3  C   -0.480985
     4  H    0.148248
     5  H    0.148852
     6  H    0.147070
     7  H    0.148558
     8  H    0.152126
     9  H    0.151412
    10  H    0.184602
    11  C   -0.297331
    12  C   -0.299042
    13  C   -0.475237
    14  H    0.147517
    15  H    0.148367
    16  H    0.151214
    17  H    0.151630
    18  H    0.154472
    19  H    0.154069
    20  H    0.158826
    21  C   -0.170673
    22  C   -0.218527
    23  C   -0.170753
    24  C    0.157452
    25  C   -0.170495
    26  C   -0.218594
    27  H    0.225892
    28  H    0.223733
    29  H    0.275494
    30  H    0.275881
    31  H    0.223734
    32  N    0.494255
    33  O   -0.458968
    34  O   -0.465525
 Sum of Mulliken charges =  -0.00000

 Dipole moment (field-independent basis, Debye):
    X=              4.4528    Y=              3.1517    Z=              0.3347  Tot=              5.4656
 Quadrupole moment (field-independent basis, Debye-Ang):
   XX=            -63.4348   YY=            -93.0526   ZZ=            -94.9174
   XY=             10.0251   XZ=              1.9080   YZ=             -0.2014

 Normal termination of Gaussian 16 at Thu May  6 09:08:41 2021.
