 Gaussian 16, Revision A.03,
 Gaussian 16:  EM64L-G16RevA.03 25-Dec-2016

 -------------
 #p 6-31g* mp2
 -------------

 ------------------------------------------------------
 Input file generated by CHIRIPA (05-May-2021 14:55:19)
 ------------------------------------------------------
 Symbolic Z-matrix:
 Charge =  0 Multiplicity = 1

                         Standard orientation:
 ---------------------------------------------------------------------
 Center     Atomic      Atomic             Coordinates (Angstroms)
 Number     Number       Type             X           Y           Z
 ---------------------------------------------------------------------
      1          6           0       -2.798764    1.152498    2.134798
      2          6           0       -3.874892    0.692252    1.368871
      3          6           0       -3.653403   -0.084927    0.228046
      4          6           0       -2.336983   -0.384337   -0.119351
      5          6           0       -1.243861    0.059400    0.623260
      6          6           0       -1.488992    0.835163    1.760208
      7          1           0       -2.980005    1.755679    3.019513
      8          1           0       -4.893138    0.937149    1.657395
      9          1           0       -4.468019   -0.454310   -0.382998
     10          1           0       -0.239993   -0.201059    0.310486
     11          1           0       -0.651320    1.191226    2.353141
     12          7           0       -2.089988   -1.206352   -1.325039
     13          8           0       -0.920791   -1.456342   -1.609854
     14          8           0       -3.070268   -1.585092   -1.962413
     15          6           0        2.730851    0.643859   -0.717930
     16          6           0        2.489648    2.144920   -0.554766
     17          6           0        1.863871    2.781474   -1.796134
     18          1           0        3.382832    0.475944   -1.586072
     19          1           0        1.776281    0.148557   -0.943470
     20          1           0        3.444163    2.637057   -0.328233
     21          1           0        1.838321    2.309293    0.313204
     22          1           0        0.898444    2.317220   -2.022015
     23          1           0        2.513410    2.646847   -2.667096
     24          1           0        1.700103    3.854730   -1.657711
     25          6           0        3.356038   -0.006781    0.514765
     26          6           0        3.597242   -1.507842    0.351600
     27          6           0        4.223018   -2.144396    1.592970
     28          1           0        4.310608    0.488521    0.740306
     29          1           0        2.704057    0.161134    1.382908
     30          1           0        4.248568   -1.672215   -0.516369
     31          1           0        2.642726   -1.999979    0.125068
     32          1           0        3.573479   -2.009769    2.463931
     33          1           0        5.188445   -1.680143    1.818850
     34          1           0        4.386787   -3.217652    1.454547
 ---------------------------------------------------------------------

 SCF Done:  E(RHF) =  -669.535804156     A.U. after   15 cycles
 E2 =    -0.2092492559D+01 EUMP2 =    -0.67162829671484D+03

 The electronic state is 1-A.
 Alpha  occ. eigenvalues --  -20.60880 -20.60874 -15.85920 -11.31254 -11.27820
 Alpha  occ. eigenvalues --  -11.27808 -11.27558 -11.26835 -11.26825 -11.21809
 Alpha  occ. eigenvalues --  -11.21613 -11.21542 -11.21407 -11.21094 -11.21083
 Alpha  occ. eigenvalues --   -1.59945  -1.39501  -1.19427  -1.08827  -1.08552
 Alpha  occ. eigenvalues --   -1.04826  -1.03599  -0.96049  -0.95666  -0.87058
 Alpha  occ. eigenvalues --   -0.86228  -0.82499  -0.79656  -0.78348  -0.77551
 Alpha  occ. eigenvalues --   -0.72141  -0.71263  -0.70548  -0.65316  -0.65079
 Alpha  occ. eigenvalues --   -0.64763  -0.62159  -0.60995  -0.59406  -0.57644
 Alpha  occ. eigenvalues --   -0.55426  -0.55251  -0.53153  -0.52926  -0.52725
 Alpha  occ. eigenvalues --   -0.52443  -0.49991  -0.48908  -0.48892  -0.47963
 Alpha  occ. eigenvalues --   -0.46702  -0.45901  -0.45777  -0.44897  -0.43868
 Alpha  occ. eigenvalues --   -0.37405  -0.36423
 Alpha virt. eigenvalues --    0.04951   0.11189   0.16442   0.18784   0.23019
 Alpha virt. eigenvalues --    0.24214   0.25335   0.25900   0.27650   0.28237
 Alpha virt. eigenvalues --    0.30368   0.31156   0.31495   0.31853   0.32095

 Mulliken charges:
               1
     1  C   -0.170315
     2  C   -0.218832
     3  C   -0.169912
     4  C    0.156248
     5  C   -0.176313
     6  C   -0.222347
     7  H    0.226025
     8  H    0.223779
     9  H    0.275801
    10  H    0.287231
    11  H    0.224573
    12  N    0.488275
    13  O   -0.463640
    14  O   -0.459188
    15  C   -0.311636
    16  C   -0.298748
    17  C   -0.475797
    18  H    0.155648
    19  H    0.162815
    20  H    0.152720
    21  H    0.141263
    22  H    0.159093
    23  H    0.158240
    24  H    0.158567
    25  C   -0.297981
    26  C   -0.301998
    27  C   -0.475449
    28  H    0.150745
    29  H    0.137825
    30  H    0.155291
    31  H    0.159048
    32  H    0.151769
    33  H    0.154516
    34  H    0.162683
 Sum of Mulliken charges =  -0.00000

 Dipole moment (field-independent basis, Debye):
    X=             -0.8716    Y=              2.8127    Z=              4.0853  Tot=              5.0359
 Quadrupole moment (field-independent basis, Debye-Ang):
   XX=            -84.7089   YY=            -98.1315   ZZ=            -96.7736
   XY=             -5.9812   XZ=            -10.2661   YZ=             -1.4492

 Normal termination of Gaussian 16 at Wed May  5 18:53:20 2021.
