 Gaussian 16, Revision A.03,
 Gaussian 16:  EM64L-G16RevA.03 25-Dec-2016

 -------------
 #p 6-31g* mp2
 -------------

 ------------------------------------------------------
 Input file generated by CHIRIPA (05-May-2021 14:57:22)
 ------------------------------------------------------
 Symbolic Z-matrix:
 Charge =  0 Multiplicity = 1

                         Standard orientation:
 ---------------------------------------------------------------------
 Center     Atomic      Atomic             Coordinates (Angstroms)
 Number     Number       Type             X           Y           Z
 ---------------------------------------------------------------------
      1          6           0        1.885402   -1.531713    0.617986
      2          6           0        3.187100   -1.919004    0.952811
      3          6           0        4.275001   -1.099541    0.637374
      4          6           0        4.023716    0.105936   -0.016056
      5          6           0        2.738435    0.519517   -0.362892
      6          6           0        1.665611   -0.315832   -0.037641
      7          1           0        1.046150   -2.174462    0.866836
      8          1           0        3.360780   -2.862724    1.461999
      9          1           0        5.292998   -1.374915    0.884901
     10          1           0        2.596784    1.466049   -0.870268
     11          1           0        0.655771   -0.012493   -0.298895
     12          7           0        5.167447    0.981873   -0.355190
     13          8           0        4.919486    2.039016   -0.931038
     14          8           0        6.290208    0.594705   -0.038732
     15          6           0       -4.722928    2.329208    0.534813
     16          6           0       -3.355919    2.058006    0.654224
     17          6           0       -2.852946    0.792330    0.338581
     18          6           0       -3.749394   -0.183035   -0.095392
     19          6           0       -5.116601    0.056411   -0.224626
     20          6           0       -5.597364    1.329308    0.096542
     21          1           0       -5.105022    3.315220    0.782158
     22          1           0       -2.674487    2.832613    0.994342
     23          1           0       -1.799261    0.555234    0.421970
     24          1           0       -5.771302   -0.736085   -0.566290
     25          1           0       -6.659484    1.537082    0.002857
     26          7           0       -3.228676   -1.526771   -0.432473
     27          8           0       -4.039203   -2.368904   -0.812594
     28          8           0       -2.019867   -1.712414   -0.310174
 ---------------------------------------------------------------------

 SCF Done:  E(RHF) =  -868.339500274     A.U. after   16 cycles
 E2 =    -0.2599270813D+01 EUMP2 =    -0.87093877108697D+03

 The electronic state is 1-A.
 Alpha  occ. eigenvalues --  -20.61898 -20.61826 -20.60472 -20.60464 -15.86902
 Alpha  occ. eigenvalues --  -15.85522 -11.32055 -11.30751 -11.28671 -11.28536
 Alpha  occ. eigenvalues --  -11.28234 -11.27553 -11.27503 -11.27348 -11.27321
 Alpha  occ. eigenvalues --  -11.26857 -11.26248 -11.26229  -1.60916  -1.59550
 Alpha  occ. eigenvalues --   -1.40486  -1.39108  -1.20190  -1.18903  -1.09611
 Alpha  occ. eigenvalues --   -1.08279  -1.05566  -1.04304  -0.96493  -0.95141
 Alpha  occ. eigenvalues --   -0.86973  -0.85679  -0.83341  -0.82001  -0.78435
 Alpha  occ. eigenvalues --   -0.77100  -0.73141  -0.72218  -0.71739  -0.71299
 Alpha  occ. eigenvalues --   -0.70874  -0.69895  -0.65848  -0.65573  -0.64535
 Alpha  occ. eigenvalues --   -0.64291  -0.62931  -0.61653  -0.56045  -0.54649
 Alpha  occ. eigenvalues --   -0.53892  -0.53663  -0.52622  -0.52372  -0.49900
 Alpha  occ. eigenvalues --   -0.49837  -0.48506  -0.48483  -0.45931  -0.44545
 Alpha  occ. eigenvalues --   -0.38130  -0.37154  -0.36811  -0.35931
 Alpha virt. eigenvalues --    0.04094   0.05454   0.10489   0.11705   0.15660
 Alpha virt. eigenvalues --    0.16983   0.19262   0.22069   0.25133   0.27044
 Alpha virt. eigenvalues --    0.28658   0.29041   0.30536   0.30958   0.32375

 Mulliken charges:
               1
     1  C   -0.173695
     2  C   -0.219787
     3  C   -0.171208
     4  C    0.157920
     5  C   -0.172999
     6  C   -0.226773
     7  H    0.242012
     8  H    0.223345
     9  H    0.274073
    10  H    0.271770
    11  H    0.229732
    12  N    0.488232
    13  O   -0.463029
    14  O   -0.461427
    15  C   -0.169549
    16  C   -0.220130
    17  C   -0.173617
    18  C    0.157485
    19  C   -0.169459
    20  C   -0.218193
    21  H    0.229238
    22  H    0.226647
    23  H    0.273242
    24  H    0.277522
    25  H    0.226653
    26  N    0.491407
    27  O   -0.453396
    28  O   -0.476016
 Sum of Mulliken charges =  -0.00000

 Dipole moment (field-independent basis, Debye):
    X=             -6.3817    Y=              1.5670    Z=              2.4139  Tot=              7.0006
 Quadrupole moment (field-independent basis, Debye-Ang):
   XX=           -116.7022   YY=           -104.9814   ZZ=           -105.5281
   XY=            -31.9427   XZ=              3.3673   YZ=             -1.5527

 Normal termination of Gaussian 16 at Thu May  6 14:32:24 2021.
