 Gaussian 16, Revision A.03,
 Gaussian 16:  EM64L-G16RevA.03 25-Dec-2016

 -------------
 #p 6-31g* mp2
 -------------

 ------------------------------------------------------
 Input file generated by CHIRIPA (05-May-2021 14:53:15)
 ------------------------------------------------------
 Symbolic Z-matrix:
 Charge =  0 Multiplicity = 1

                         Standard orientation:
 ---------------------------------------------------------------------
 Center     Atomic      Atomic             Coordinates (Angstroms)
 Number     Number       Type             X           Y           Z
 ---------------------------------------------------------------------
      1          6           0        5.041862   -0.422453    0.144176
      2          6           0        5.969498    0.791634    0.085284
      3          6           0        7.437447    0.425243    0.305913
      4          1           0        5.155571   -0.915846    1.119152
      5          1           0        5.356469   -1.152664   -0.614250
      6          1           0        5.652384    1.519941    0.842663
      7          1           0        5.853426    1.282306   -0.889593
      8          1           0        7.776467   -0.283326   -0.456712
      9          1           0        7.574283   -0.044340    1.285386
     10          1           0        8.082864    1.307946    0.259727
     11          6           0        3.571064   -0.072258   -0.074562
     12          6           0        2.643428   -1.286345   -0.015670
     13          6           0        1.175479   -0.919953   -0.236299
     14          1           0        3.256457    0.657953    0.683863
     15          1           0        3.457355    0.421136   -1.049538
     16          1           0        2.759500   -1.777016    0.959207
     17          1           0        2.960541   -2.014652   -0.773050
     18          1           0        1.038643   -0.450370   -1.215773
     19          1           0        0.836459   -0.211385    0.526326
     20          1           0        0.530062   -1.802656   -0.190114
     21          6           0       -3.915851   -2.265570    0.099589
     22          6           0       -2.727520   -1.845036   -0.506664
     23          6           0       -2.411723   -0.485235   -0.582570
     24          6           0       -3.311115    0.430955   -0.039450
     25          6           0       -4.502929    0.043224    0.570904
     26          6           0       -4.798206   -1.321762    0.635493
     27          1           0       -4.153199   -3.323911    0.154159
     28          1           0       -2.040395   -2.575776   -0.923704
     29          1           0       -1.498685   -0.132091   -1.046325
     30          1           0       -5.168128    0.795198    0.977677
     31          1           0       -5.721807   -1.645463    1.106902
     32          7           0       -2.987656    1.873261   -0.113818
     33          8           0       -3.796705    2.660556    0.372231
     34          8           0       -1.931205    2.189134   -0.656748
 ---------------------------------------------------------------------

 SCF Done:  E(RHF) =  -669.535204811     A.U. after   15 cycles
 E2 =    -0.2091837419D+01 EUMP2 =    -0.67162704222993D+03

 The electronic state is 1-A.
 Alpha  occ. eigenvalues --  -20.60702 -20.60697 -15.85752 -11.31077 -11.27681
 Alpha  occ. eigenvalues --  -11.27594 -11.27427 -11.26687 -11.26658 -11.21886
 Alpha  occ. eigenvalues --  -11.21569 -11.21564 -11.21455 -11.21391 -11.21039
 Alpha  occ. eigenvalues --   -1.59777  -1.39331  -1.19268  -1.08674  -1.08527
 Alpha  occ. eigenvalues --   -1.04672  -1.03685  -0.96167  -0.95503  -0.87207
 Alpha  occ. eigenvalues --   -0.86064  -0.82342  -0.79777  -0.78310  -0.77372
 Alpha  occ. eigenvalues --   -0.71972  -0.71100  -0.70380  -0.65152  -0.64924
 Alpha  occ. eigenvalues --   -0.64683  -0.62047  -0.61075  -0.59528  -0.57749
 Alpha  occ. eigenvalues --   -0.55435  -0.55188  -0.53145  -0.52928  -0.52733
 Alpha  occ. eigenvalues --   -0.52395  -0.50085  -0.48730  -0.48726  -0.48054
 Alpha  occ. eigenvalues --   -0.46763  -0.45856  -0.45761  -0.44742  -0.43937
 Alpha  occ. eigenvalues --   -0.37263  -0.36242
 Alpha virt. eigenvalues --    0.05122   0.11339   0.16561   0.20823   0.22825
 Alpha virt. eigenvalues --    0.24079   0.25941   0.26576   0.26938   0.27961
 Alpha virt. eigenvalues --    0.29075   0.29454   0.31315   0.31686   0.32457

 Mulliken charges:
               1
     1  C   -0.298603
     2  C   -0.299993
     3  C   -0.475814
     4  H    0.149247
     5  H    0.148654
     6  H    0.153587
     7  H    0.153083
     8  H    0.154640
     9  H    0.154864
    10  H    0.161016
    11  C   -0.299335
    12  C   -0.300126
    13  C   -0.484502
    14  H    0.153558
    15  H    0.152208
    16  H    0.152752
    17  H    0.150840
    18  H    0.155901
    19  H    0.165877
    20  H    0.151825
    21  C   -0.170775
    22  C   -0.222578
    23  C   -0.171831
    24  C    0.156786
    25  C   -0.170599
    26  C   -0.219113
    27  H    0.225139
    28  H    0.223405
    29  H    0.285597
    30  H    0.275187
    31  H    0.222961
    32  N    0.487728
    33  O   -0.460879
    34  O   -0.460707
 Sum of Mulliken charges =  -0.00000

 Dipole moment (field-independent basis, Debye):
    X=             -1.0080    Y=             -4.9996    Z=              0.2892  Tot=              5.1083
 Quadrupole moment (field-independent basis, Debye-Ang):
   XX=            -84.8477   YY=            -99.7417   ZZ=            -93.3699
   XY=             15.7678   XZ=             -3.4193   YZ=              1.0307

 Normal termination of Gaussian 16 at Wed May  5 17:09:48 2021.
