 Gaussian 16, Revision A.03,
 Gaussian 16:  EM64L-G16RevA.03 25-Dec-2016

 -------------
 #p 6-31g* mp2
 -------------

 ------------------------------------------------------
 Input file generated by CHIRIPA (05-May-2021 14:51:08)
 ------------------------------------------------------
 Symbolic Z-matrix:
 Charge =  0 Multiplicity = 1

                         Standard orientation:
 ---------------------------------------------------------------------
 Center     Atomic      Atomic             Coordinates (Angstroms)
 Number     Number       Type             X           Y           Z
 ---------------------------------------------------------------------
      1          6           0        3.153709   -0.704469   -0.532565
      2          6           0        1.803183   -1.320790   -0.898917
      3          6           0        1.909205   -2.801084   -1.266726
      4          1           0        3.845883   -0.825248   -1.377109
      5          1           0        3.587207   -1.262228    0.309088
      6          1           0        1.371726   -0.761172   -1.738732
      7          1           0        1.114086   -1.198360   -0.053476
      8          1           0        2.316233   -3.377777   -0.429854
      9          1           0        2.575336   -2.938105   -2.124685
     10          1           0        0.932311   -3.221514   -1.525139
     11          6           0        3.064060    0.774965   -0.162477
     12          6           0        4.414586    1.391286    0.203875
     13          6           0        4.308565    2.871580    0.571683
     14          1           0        2.630562    1.332724   -1.004130
     15          1           0        2.371886    0.895744    0.682066
     16          1           0        5.103683    1.268856   -0.641567
     17          1           0        4.846043    0.831668    1.043689
     18          1           0        3.642433    3.008601    1.429642
     19          1           0        3.901536    3.448273   -0.265189
     20          1           0        5.285459    3.292009    0.830096
     21          6           0       -2.633194   -0.185306    0.925996
     22          6           0       -1.871308   -1.500456    0.758982
     23          6           0       -0.923671   -1.786753    1.924235
     24          1           0       -1.912921    0.638247    1.025568
     25          1           0       -3.203712   -0.216778    1.864567
     26          1           0       -1.303489   -1.467057   -0.179678
     27          1           0       -2.593478   -2.320950    0.659604
     28          1           0       -1.478479   -1.846933    2.866131
     29          1           0       -0.181161   -0.988188    2.022080
     30          1           0       -0.389294   -2.731590    1.784296
     31          6           0       -3.584575    0.114810   -0.230953
     32          6           0       -4.346461    1.429961   -0.063940
     33          6           0       -5.294098    1.716256   -1.229192
     34          1           0       -3.014059    0.146282   -1.169524
     35          1           0       -4.304848   -0.708742   -0.330525
     36          1           0       -3.624291    2.250454    0.035439
     37          1           0       -4.914280    1.396562    0.874720
     38          1           0       -6.036609    0.917692   -1.327038
     39          1           0       -4.739290    1.776436   -2.171088
     40          1           0       -5.828475    2.661094   -1.089254
 ---------------------------------------------------------------------

 SCF Done:  E(RHF) =  -470.732638901     A.U. after   11 cycles
 E2 =    -0.1583850695D+01 EUMP2 =    -0.47231648959580D+03

 The electronic state is 1-A.
 Alpha  occ. eigenvalues --  -11.21616 -11.21598 -11.21584 -11.21524 -11.21418
 Alpha  occ. eigenvalues --  -11.21404 -11.21347 -11.21344 -11.21126 -11.21087
 Alpha  occ. eigenvalues --  -11.21069 -11.21068  -1.08469  -1.08401  -1.03613
 Alpha  occ. eigenvalues --   -1.03466  -0.96035  -0.95952  -0.87025  -0.86990
 Alpha  occ. eigenvalues --   -0.79636  -0.79574  -0.78296  -0.78207  -0.65243
 Alpha  occ. eigenvalues --   -0.64930  -0.61261  -0.60686  -0.59445  -0.59245
 Alpha  occ. eigenvalues --   -0.57703  -0.57481  -0.55382  -0.55183  -0.52697
 Alpha  occ. eigenvalues --   -0.52663  -0.52429  -0.52399  -0.50015  -0.49864
 Alpha  occ. eigenvalues --   -0.48010  -0.47832  -0.46641  -0.46597  -0.45910
 Alpha  occ. eigenvalues --   -0.45763  -0.45693  -0.45552  -0.43795  -0.43780
 Alpha virt. eigenvalues --    0.20730   0.23135   0.23466   0.24646   0.25975
 Alpha virt. eigenvalues --    0.26202   0.26882   0.27734   0.28230   0.29293
 Alpha virt. eigenvalues --    0.30598   0.31467   0.31669   0.31741   0.32436

 Mulliken charges:
               1
     1  C   -0.297350
     2  C   -0.310229
     3  C   -0.476586
     4  H    0.149420
     5  H    0.149556
     6  H    0.150269
     7  H    0.165807
     8  H    0.155043
     9  H    0.155245
    10  H    0.160687
    11  C   -0.298590
    12  C   -0.299628
    13  C   -0.475739
    14  H    0.149346
    15  H    0.148699
    16  H    0.152127
    17  H    0.152136
    18  H    0.155117
    19  H    0.155090
    20  H    0.160381
    21  C   -0.297878
    22  C   -0.305674
    23  C   -0.479807
    24  H    0.149609
    25  H    0.149457
    26  H    0.158319
    27  H    0.152196
    28  H    0.156998
    29  H    0.154179
    30  H    0.161696
    31  C   -0.298373
    32  C   -0.299696
    33  C   -0.475708
    34  H    0.149766
    35  H    0.149581
    36  H    0.152075
    37  H    0.151883
    38  H    0.155150
    39  H    0.155170
    40  H    0.160255
 Sum of Mulliken charges =  -0.00000

 Dipole moment (field-independent basis, Debye):
    X=             -0.0122    Y=             -0.0114    Z=              0.0101  Tot=              0.0196
 Quadrupole moment (field-independent basis, Debye-Ang):
   XX=            -84.7878   YY=            -85.7512   ZZ=            -84.2967
   XY=              0.5906   XZ=             -1.0635   YZ=             -0.5743

 Normal termination of Gaussian 16 at Wed May  5 22:54:23 2021.
