 Gaussian 16, Revision A.03,
 Gaussian 16:  EM64L-G16RevA.03 25-Dec-2016

 -------------
 #p 6-31g* mp2
 -------------

 ------------------------------------------------------
 Input file generated by CHIRIPA (05-May-2021 14:55:24)
 ------------------------------------------------------
 Symbolic Z-matrix:
 Charge =  0 Multiplicity = 1

                         Standard orientation:
 ---------------------------------------------------------------------
 Center     Atomic      Atomic             Coordinates (Angstroms)
 Number     Number       Type             X           Y           Z
 ---------------------------------------------------------------------
      1          6           0        3.301332   -2.287719   -0.783042
      2          6           0        3.666840   -1.276325   -1.677474
      3          6           0        3.457170    0.067516   -1.353935
      4          6           0        2.877068    0.365415   -0.121853
      5          6           0        2.502121   -0.619625    0.790508
      6          6           0        2.721162   -1.956724    0.445928
      7          1           0        3.467849   -3.329028   -1.042547
      8          1           0        4.117599   -1.530432   -2.632613
      9          1           0        3.730620    0.870476   -2.027655
     10          1           0        2.054794   -0.335251    1.735203
     11          1           0        2.436307   -2.740091    1.142518
     12          7           0        2.650139    1.784511    0.231801
     13          8           0        2.137369    2.020730    1.323545
     14          8           0        2.989338    2.633707   -0.589445
     15          6           0       -2.974470   -0.119795    0.327857
     16          6           0       -2.492137   -0.729320    1.644602
     17          6           0       -0.977424   -0.624491    1.824742
     18          1           0       -2.468728   -0.621891   -0.508247
     19          1           0       -2.671706    0.935727    0.287836
     20          1           0       -2.796923   -1.783013    1.682738
     21          1           0       -2.999229   -0.225846    2.477661
     22          1           0       -0.659652    0.423116    1.812901
     23          1           0       -0.456198   -1.142899    1.013461
     24          1           0       -0.654310   -1.066334    2.772494
     25          6           0       -4.486569   -0.216924    0.133299
     26          6           0       -4.968901    0.392602   -1.183446
     27          6           0       -6.483614    0.287773   -1.363586
     28          1           0       -4.789332   -1.272446    0.173320
     29          1           0       -4.992310    0.285172    0.969403
     30          1           0       -4.461810   -0.110874   -2.016505
     31          1           0       -4.664115    1.446294   -1.221582
     32          1           0       -7.004841    0.806180   -0.552304
     33          1           0       -6.801387   -0.759835   -1.351745
     34          1           0       -6.806728    0.729615   -2.311338
 ---------------------------------------------------------------------

 SCF Done:  E(RHF) =  -669.535580782     A.U. after   15 cycles
 E2 =    -0.2092066362D+01 EUMP2 =    -0.67162764714337D+03

 The electronic state is 1-A.
 Alpha  occ. eigenvalues --  -20.60792 -20.60787 -15.85832 -11.31142 -11.27746
 Alpha  occ. eigenvalues --  -11.27688 -11.27489 -11.26739 -11.26718 -11.21600
 Alpha  occ. eigenvalues --  -11.21512 -11.21328 -11.21268 -11.21097 -11.20998
 Alpha  occ. eigenvalues --   -1.59857  -1.39412  -1.19337  -1.08739  -1.08370
 Alpha  occ. eigenvalues --   -1.04738  -1.03495  -0.95971  -0.95570  -0.87003
 Alpha  occ. eigenvalues --   -0.86122  -0.82412  -0.79583  -0.78181  -0.77443
 Alpha  occ. eigenvalues --   -0.72053  -0.71173  -0.70446  -0.65023  -0.64964
 Alpha  occ. eigenvalues --   -0.64734  -0.62086  -0.60886  -0.59333  -0.57567
 Alpha  occ. eigenvalues --   -0.55255  -0.55239  -0.53160  -0.52899  -0.52612
 Alpha  occ. eigenvalues --   -0.52265  -0.49884  -0.48809  -0.48802  -0.47872
 Alpha  occ. eigenvalues --   -0.46577  -0.45727  -0.45632  -0.44803  -0.43759
 Alpha  occ. eigenvalues --   -0.37325  -0.36284
 Alpha virt. eigenvalues --    0.05042   0.11302   0.16475   0.21231   0.22944
 Alpha virt. eigenvalues --    0.24311   0.26371   0.26736   0.27608   0.27951
 Alpha virt. eigenvalues --    0.28954   0.30363   0.31558   0.31801   0.31919

 Mulliken charges:
               1
     1  C   -0.170601
     2  C   -0.219102
     3  C   -0.170763
     4  C    0.156406
     5  C   -0.167919
     6  C   -0.221458
     7  H    0.225442
     8  H    0.223185
     9  H    0.275412
    10  H    0.282110
    11  H    0.223981
    12  N    0.488499
    13  O   -0.461149
    14  O   -0.460119
    15  C   -0.299264
    16  C   -0.299243
    17  C   -0.489390
    18  H    0.147897
    19  H    0.154745
    20  H    0.148980
    21  H    0.154063
    22  H    0.172169
    23  H    0.152823
    24  H    0.153541
    25  C   -0.298347
    26  C   -0.299804
    27  C   -0.475696
    28  H    0.147906
    29  H    0.150519
    30  H    0.150931
    31  H    0.154092
    32  H    0.155653
    33  H    0.154176
    34  H    0.160326
 Sum of Mulliken charges =  -0.00000

 Dipole moment (field-independent basis, Debye):
    X=              0.8085    Y=             -4.8903    Z=             -1.2504  Tot=              5.1120
 Quadrupole moment (field-independent basis, Debye-Ang):
   XX=            -91.2900   YY=            -97.8948   ZZ=            -90.7628
   XY=            -13.9807   XZ=             -6.0780   YZ=             -0.6603

 Normal termination of Gaussian 16 at Thu May  6 17:42:06 2021.
