 Gaussian 16, Revision A.03,
 Gaussian 16:  EM64L-G16RevA.03 25-Dec-2016

 -------------
 #p 6-31g* mp2
 -------------

 ------------------------------------------------------
 Input file generated by CHIRIPA (05-May-2021 14:57:24)
 ------------------------------------------------------
 Symbolic Z-matrix:
 Charge =  0 Multiplicity = 1

                         Standard orientation:
 ---------------------------------------------------------------------
 Center     Atomic      Atomic             Coordinates (Angstroms)
 Number     Number       Type             X           Y           Z
 ---------------------------------------------------------------------
      1          6           0       -6.224657   -0.336156   -0.623237
      2          6           0       -5.915523    0.533870    0.427483
      3          6           0       -4.598451    0.663002    0.878252
      4          6           0       -3.610928   -0.096444    0.252689
      5          6           0       -3.887290   -0.971805   -0.796434
      6          6           0       -5.211341   -1.084896   -1.230771
      7          1           0       -7.250501   -0.430238   -0.967022
      8          1           0       -6.700437    1.116597    0.901176
      9          1           0       -4.331215    1.329018    1.689686
     10          1           0       -3.083340   -1.539580   -1.248887
     11          1           0       -5.448492   -1.761359   -2.046983
     12          7           0       -2.212908    0.031771    0.721200
     13          8           0       -1.361058   -0.648375    0.153406
     14          8           0       -1.995462    0.809985    1.647341
     15          6           0        5.648121   -1.515614    0.483429
     16          6           0        4.329922   -1.956102    0.325806
     17          6           0        3.320716   -1.060031   -0.039031
     18          6           0        3.666666    0.275467   -0.239173
     19          6           0        4.970759    0.744876   -0.089895
     20          6           0        5.963775   -0.168906    0.275443
     21          1           0        6.425807   -2.218582    0.767038
     22          1           0        4.081872   -3.001395    0.486677
     23          1           0        2.292041   -1.374093   -0.167910
     24          1           0        5.187374    1.792978   -0.257160
     25          1           0        6.986649    0.176008    0.397136
     26          7           0        2.606834    1.233472   -0.625675
     27          8           0        2.937496    2.404894   -0.796172
     28          8           0        1.465544    0.794794   -0.750799
 ---------------------------------------------------------------------

 SCF Done:  E(RHF) =  -868.336482371     A.U. after   16 cycles
 E2 =    -0.2600034242D+01 EUMP2 =    -0.87093651661309D+03

 The electronic state is 1-A.
 Alpha  occ. eigenvalues --  -20.60029 -20.59978 -20.59581 -20.59459 -15.85064
 Alpha  occ. eigenvalues --  -15.84567 -11.30644 -11.30186 -11.27244 -11.27235
 Alpha  occ. eigenvalues --  -11.27034 -11.26847 -11.26716 -11.26645 -11.26316
 Alpha  occ. eigenvalues --  -11.26303 -11.25920 -11.25864  -1.59055  -1.58604
 Alpha  occ. eigenvalues --   -1.38612  -1.38140  -1.18836  -1.18402  -1.08192
 Alpha  occ. eigenvalues --   -1.07764  -1.04277  -1.03840  -0.94993  -0.94545
 Alpha  occ. eigenvalues --   -0.85665  -0.85228  -0.81834  -0.81363  -0.76840
 Alpha  occ. eigenvalues --   -0.76357  -0.71324  -0.70770  -0.70345  -0.69955
 Alpha  occ. eigenvalues --   -0.69934  -0.69514  -0.64492  -0.64289  -0.64046
 Alpha  occ. eigenvalues --   -0.63858  -0.61625  -0.61170  -0.54778  -0.54365
 Alpha  occ. eigenvalues --   -0.52589  -0.52378  -0.52167  -0.51937  -0.48073
 Alpha  occ. eigenvalues --   -0.48024  -0.47594  -0.47490  -0.43962  -0.43475
 Alpha  occ. eigenvalues --   -0.36830  -0.36420  -0.35889  -0.35457
 Alpha virt. eigenvalues --    0.05713   0.06175   0.11763   0.12193   0.17160
 Alpha virt. eigenvalues --    0.17599   0.21842   0.22264   0.27736   0.28147
 Alpha virt. eigenvalues --    0.28740   0.29216   0.31370   0.31763   0.32985

 Mulliken charges:
               1
     1  C   -0.171548
     2  C   -0.218517
     3  C   -0.170874
     4  C    0.160052
     5  C   -0.170424
     6  C   -0.218522
     7  H    0.223671
     8  H    0.221937
     9  H    0.275488
    10  H    0.274571
    11  H    0.221472
    12  N    0.489810
    13  O   -0.455921
    14  O   -0.460246
    15  C   -0.171720
    16  C   -0.219462
    17  C   -0.171646
    18  C    0.157816
    19  C   -0.171701
    20  C   -0.219157
    21  H    0.221898
    22  H    0.221022
    23  H    0.286474
    24  H    0.273391
    25  H    0.219867
    26  N    0.487259
    27  O   -0.468666
    28  O   -0.446326
 Sum of Mulliken charges =  -0.00000

 Dipole moment (field-independent basis, Debye):
    X=             -1.3943    Y=             -3.8400    Z=             -0.2928  Tot=              4.0958
 Quadrupole moment (field-independent basis, Debye-Ang):
   XX=            -42.8596   YY=           -102.8183   ZZ=           -105.4269
   XY=             -7.8609   XZ=              7.7894   YZ=              3.9288

 Normal termination of Gaussian 16 at Thu May  6 19:37:41 2021.
