 Gaussian 16, Revision A.03,
 Gaussian 16:  EM64L-G16RevA.03 25-Dec-2016

 -------------
 #p 6-31g* mp2
 -------------

 ------------------------------------------------------
 Input file generated by CHIRIPA (05-May-2021 14:57:23)
 ------------------------------------------------------
 Symbolic Z-matrix:
 Charge =  0 Multiplicity = 1

                         Standard orientation:
 ---------------------------------------------------------------------
 Center     Atomic      Atomic             Coordinates (Angstroms)
 Number     Number       Type             X           Y           Z
 ---------------------------------------------------------------------
      1          6           0        5.092735    1.162028   -0.994684
      2          6           0        4.934895   -0.147255   -1.460930
      3          6           0        3.929959   -0.969297   -0.942376
      4          6           0        3.096903   -0.447311    0.045975
      5          6           0        3.228944    0.852882    0.531109
      6          6           0        4.240758    1.657045   -0.001903
      7          1           0        5.876065    1.793666   -1.403125
      8          1           0        5.595091   -0.534354   -2.231865
      9          1           0        3.785511   -1.986676   -1.285150
     10          1           0        2.555440    1.210705    1.300376
     11          1           0        4.361007    2.673456    0.362095
     12          7           0        2.029382   -1.308106    0.602598
     13          8           0        1.308450   -0.824548    1.472694
     14          8           0        1.933804   -2.450057    0.158244
     15          6           0       -1.461851    1.199603    1.557948
     16          6           0       -2.010544   -0.065035    1.794901
     17          6           0       -3.014447   -0.570550    0.963527
     18          6           0       -3.447923    0.218997   -0.100429
     19          6           0       -2.921022    1.482722   -0.362467
     20          6           0       -1.918037    1.968090    0.481917
     21          1           0       -0.682351    1.584473    2.208832
     22          1           0       -1.658210   -0.664062    2.629809
     23          1           0       -3.456677   -1.546295    1.124065
     24          1           0       -3.292745    2.056585   -1.202659
     25          1           0       -1.493742    2.950570    0.295496
     26          7           0       -4.510225   -0.305505   -0.987454
     27          8           0       -4.874813    0.409738   -1.918121
     28          8           0       -4.958154   -1.421922   -0.735242
 ---------------------------------------------------------------------

 SCF Done:  E(RHF) =  -868.338631700     A.U. after   16 cycles
 E2 =    -0.2600278413D+01 EUMP2 =    -0.87093891011289D+03

 The electronic state is 1-A.
 Alpha  occ. eigenvalues --  -20.61556 -20.61535 -20.60035 -20.60015 -15.86574
 Alpha  occ. eigenvalues --  -15.85073 -11.31824 -11.30260 -11.28439 -11.28327
 Alpha  occ. eigenvalues --  -11.28068 -11.27385 -11.27316 -11.26873 -11.26698
 Alpha  occ. eigenvalues --  -11.26487 -11.25901 -11.25606  -1.60597  -1.59106
 Alpha  occ. eigenvalues --   -1.40164  -1.38665  -1.19976  -1.18403  -1.09388
 Alpha  occ. eigenvalues --   -1.07825  -1.05367  -1.03774  -0.96254  -0.94697
 Alpha  occ. eigenvalues --   -0.86769  -0.85180  -0.83099  -0.81537  -0.78168
 Alpha  occ. eigenvalues --   -0.76612  -0.72841  -0.71899  -0.71298  -0.71086
 Alpha  occ. eigenvalues --   -0.70426  -0.69513  -0.65638  -0.65369  -0.64053
 Alpha  occ. eigenvalues --   -0.63764  -0.62728  -0.61128  -0.55857  -0.54295
 Alpha  occ. eigenvalues --   -0.53692  -0.53459  -0.52118  -0.51867  -0.49588
 Alpha  occ. eigenvalues --   -0.49530  -0.48062  -0.48037  -0.45593  -0.44112
 Alpha  occ. eigenvalues --   -0.37936  -0.36963  -0.36314  -0.35333
 Alpha virt. eigenvalues --    0.04353   0.05923   0.10693   0.12310   0.15911
 Alpha virt. eigenvalues --    0.17447   0.20433   0.22222   0.26130   0.27245
 Alpha virt. eigenvalues --    0.28296   0.29040   0.30731   0.31358   0.33373

 Mulliken charges:
               1
     1  C   -0.170120
     2  C   -0.218136
     3  C   -0.169868
     4  C    0.159668
     5  C   -0.170023
     6  C   -0.218328
     7  H    0.227688
     8  H    0.226116
     9  H    0.277865
    10  H    0.267782
    11  H    0.223292
    12  N    0.491657
    13  O   -0.470583
    14  O   -0.455109
    15  C   -0.163806
    16  C   -0.202909
    17  C   -0.173648
    18  C    0.157551
    19  C   -0.173312
    20  C   -0.222252
    21  H    0.221135
    22  H    0.231553
    23  H    0.274846
    24  H    0.271000
    25  H    0.215258
    26  N    0.488215
    27  O   -0.464539
    28  O   -0.460991
 Sum of Mulliken charges =  -0.00000

 Dipole moment (field-independent basis, Debye):
    X=              7.8940    Y=              4.6000    Z=              1.2345  Tot=              9.2195
 Quadrupole moment (field-independent basis, Debye-Ang):
   XX=           -108.4653   YY=           -101.1494   ZZ=           -103.2077
   XY=              1.5891   XZ=            -19.2318   YZ=              1.4129

 Normal termination of Gaussian 16 at Thu May  6 05:00:46 2021.
