 Gaussian 16, Revision A.03,
 Gaussian 16:  EM64L-G16RevA.03 25-Dec-2016

 -------------
 #p 6-31g* mp2
 -------------

 ------------------------------------------------------
 Input file generated by CHIRIPA (05-May-2021 14:57:23)
 ------------------------------------------------------
 Symbolic Z-matrix:
 Charge =  0 Multiplicity = 1

                         Standard orientation:
 ---------------------------------------------------------------------
 Center     Atomic      Atomic             Coordinates (Angstroms)
 Number     Number       Type             X           Y           Z
 ---------------------------------------------------------------------
      1          6           0        1.196004    3.020837   -0.183376
      2          6           0        1.443703    2.477079    1.081335
      3          6           0        1.894651    1.160229    1.212104
      4          6           0        2.088113    0.412175    0.051812
      5          6           0        1.850190    0.925555   -1.222206
      6          6           0        1.399679    2.244707   -1.329091
      7          1           0        0.845867    4.044692   -0.275684
      8          1           0        1.286402    3.077499    1.972849
      9          1           0        2.094234    0.714230    2.178887
     10          1           0        2.016219    0.302446   -2.092602
     11          1           0        1.208133    2.664372   -2.312572
     12          7           0        2.565279   -0.983134    0.177609
     13          8           0        2.727932   -1.621419   -0.860068
     14          8           0        2.767594   -1.412073    1.311504
     15          6           0       -3.607541    1.289961    0.250137
     16          6           0       -3.168617    0.575902    1.369952
     17          6           0       -2.283193   -0.496409    1.226004
     18          6           0       -1.854974   -0.828926   -0.058266
     19          6           0       -2.274220   -0.136843   -1.193406
     20          6           0       -3.159732    0.931941   -1.025719
     21          1           0       -4.295395    2.121587    0.371180
     22          1           0       -3.514732    0.851708    2.362011
     23          1           0       -1.927452   -1.066284    2.075774
     24          1           0       -1.911707   -0.435352   -2.169569
     25          1           0       -3.498936    1.484697   -1.897180
     26          7           0       -0.917569   -1.962267   -0.223224
     27          8           0       -0.555072   -2.235314   -1.365450
     28          8           0       -0.563077   -2.556072    0.792831
 ---------------------------------------------------------------------

 SCF Done:  E(RHF) =  -868.334848271     A.U. after   16 cycles
 E2 =    -0.2604886646D+01 EUMP2 =    -0.87093973491707D+03

 The electronic state is 1-A.
 Alpha  occ. eigenvalues --  -20.60487 -20.60468 -20.59855 -20.59781 -15.85516
 Alpha  occ. eigenvalues --  -15.84887 -11.31171 -11.30787 -11.27801 -11.27760
 Alpha  occ. eigenvalues --  -11.27587 -11.27444 -11.27396 -11.27294 -11.26874
 Alpha  occ. eigenvalues --  -11.26845 -11.26566 -11.26553  -1.59558  -1.58872
 Alpha  occ. eigenvalues --   -1.39096  -1.38413  -1.19375  -1.19021  -1.08723
 Alpha  occ. eigenvalues --   -1.08321  -1.04823  -1.04494  -0.95506  -0.95059
 Alpha  occ. eigenvalues --   -0.86212  -0.85867  -0.82335  -0.81892  -0.77341
 Alpha  occ. eigenvalues --   -0.76830  -0.71713  -0.71283  -0.71105  -0.70493
 Alpha  occ. eigenvalues --   -0.70116  -0.69864  -0.65025  -0.64837  -0.64654
 Alpha  occ. eigenvalues --   -0.64504  -0.62172  -0.61824  -0.55325  -0.54993
 Alpha  occ. eigenvalues --   -0.53340  -0.52927  -0.52596  -0.52590  -0.48492
 Alpha  occ. eigenvalues --   -0.48472  -0.47900  -0.47826  -0.44659  -0.43416
 Alpha  occ. eigenvalues --   -0.37492  -0.36942  -0.36611  -0.35921
 Alpha virt. eigenvalues --    0.05015   0.05868   0.11022   0.11697   0.16564
 Alpha virt. eigenvalues --    0.17160   0.21229   0.21645   0.27063   0.27547
 Alpha virt. eigenvalues --    0.28110   0.28656   0.30699   0.31206   0.32273

 Mulliken charges:
               1
     1  C   -0.171098
     2  C   -0.218258
     3  C   -0.171584
     4  C    0.152304
     5  C   -0.171329
     6  C   -0.219451
     7  H    0.221383
     8  H    0.219857
     9  H    0.275840
    10  H    0.280602
    11  H    0.219747
    12  N    0.488873
    13  O   -0.448810
    14  O   -0.458180
    15  C   -0.172161
    16  C   -0.219037
    17  C   -0.171367
    18  C    0.159806
    19  C   -0.170076
    20  C   -0.219009
    21  H    0.223387
    22  H    0.222027
    23  H    0.277492
    24  H    0.273735
    25  H    0.220577
    26  N    0.481113
    27  O   -0.454432
    28  O   -0.451950
 Sum of Mulliken charges =  -0.00000

 Dipole moment (field-independent basis, Debye):
    X=             -4.8321    Y=              8.4938    Z=              0.1147  Tot=              9.7728
 Quadrupole moment (field-independent basis, Debye-Ang):
   XX=           -101.3878   YY=           -108.6529   ZZ=            -95.0657
   XY=              4.5114   XZ=             -2.0427   YZ=             -0.8805

 Normal termination of Gaussian 16 at Thu May  6 00:17:26 2021.
