 Gaussian 16, Revision A.03,
 Gaussian 16:  EM64L-G16RevA.03 25-Dec-2016

 -------------
 #p 6-31g* mp2
 -------------

 ------------------------------------------------------
 Input file generated by CHIRIPA (05-May-2021 14:57:21)
 ------------------------------------------------------
 Symbolic Z-matrix:
 Charge =  0 Multiplicity = 1

                         Standard orientation:
 ---------------------------------------------------------------------
 Center     Atomic      Atomic             Coordinates (Angstroms)
 Number     Number       Type             X           Y           Z
 ---------------------------------------------------------------------
      1          6           0        1.823391   -1.847913    0.461991
      2          6           0        2.112279   -0.861375    1.410573
      3          6           0        3.127865    0.070992    1.178570
      4          6           0        3.837825   -0.012764   -0.018189
      5          6           0        3.573693   -0.983918   -0.982754
      6          6           0        2.553733   -1.905934   -0.729544
      7          1           0        1.032760   -2.568177    0.650454
      8          1           0        1.546723   -0.813915    2.336822
      9          1           0        3.372419    0.845113    1.895750
     10          1           0        4.154715   -1.005940   -1.896727
     11          1           0        2.331570   -2.671005   -1.468025
     12          7           0        4.915296    0.968811   -0.275026
     13          8           0        5.526211    0.873672   -1.337273
     14          8           0        5.128502    1.814724    0.590776
     15          6           0       -3.412722   -2.335274    0.049959
     16          6           0       -2.375477   -1.515779    0.507205
     17          6           0       -2.501667   -0.123908    0.470881
     18          6           0       -3.684175    0.417180   -0.031304
     19          6           0       -4.735420   -0.372699   -0.494195
     20          6           0       -4.587312   -1.762129   -0.448402
     21          1           0       -3.306181   -3.415564    0.081854
     22          1           0       -1.462143   -1.958121    0.894761
     23          1           0       -1.714384    0.533992    0.818401
     24          1           0       -5.633952    0.097439   -0.875019
     25          1           0       -5.394497   -2.396098   -0.804183
     26          7           0       -3.829368    1.889398   -0.074770
     27          8           0       -4.881225    2.341454   -0.521850
     28          8           0       -2.888565    2.563393    0.339064
 ---------------------------------------------------------------------

 SCF Done:  E(RHF) =  -868.336346482     A.U. after   16 cycles
 E2 =    -0.2600034299D+01 EUMP2 =    -0.87093638078086D+03

 The electronic state is 1-A.
 Alpha  occ. eigenvalues --  -20.61175 -20.61170 -20.61046 -20.61040 -15.86237
 Alpha  occ. eigenvalues --  -15.86105 -11.31743 -11.31655 -11.28382 -11.28318
 Alpha  occ. eigenvalues --  -11.28239 -11.28227 -11.28168 -11.28160 -11.27508
 Alpha  occ. eigenvalues --  -11.27380 -11.27351 -11.27328  -1.60248  -1.60115
 Alpha  occ. eigenvalues --   -1.39798  -1.39664  -1.19950  -1.19861  -1.09327
 Alpha  occ. eigenvalues --   -1.09254  -1.05386  -1.05282  -0.96127  -0.96052
 Alpha  occ. eigenvalues --   -0.86788  -0.86691  -0.82977  -0.82858  -0.77987
 Alpha  occ. eigenvalues --   -0.77851  -0.72452  -0.72323  -0.71574  -0.71437
 Alpha  occ. eigenvalues --   -0.71087  -0.71044  -0.65611  -0.65539  -0.65450
 Alpha  occ. eigenvalues --   -0.65272  -0.62747  -0.62607  -0.55999  -0.55810
 Alpha  occ. eigenvalues --   -0.53703  -0.53617  -0.53455  -0.53387  -0.49223
 Alpha  occ. eigenvalues --   -0.49197  -0.49097  -0.49063  -0.45172  -0.45027
 Alpha  occ. eigenvalues --   -0.37963  -0.37889  -0.36977  -0.36870
 Alpha virt. eigenvalues --    0.04545   0.04680   0.10642   0.10719   0.15874
 Alpha virt. eigenvalues --    0.16135   0.18335   0.21976   0.24973   0.26538
 Alpha virt. eigenvalues --    0.27800   0.28773   0.29913   0.31363   0.32168

 Mulliken charges:
               1
     1  C   -0.173538
     2  C   -0.221475
     3  C   -0.168577
     4  C    0.160006
     5  C   -0.169643
     6  C   -0.217052
     7  H    0.217337
     8  H    0.221962
     9  H    0.279005
    10  H    0.277873
    11  H    0.224210
    12  N    0.488032
    13  O   -0.458782
    14  O   -0.457791
    15  C   -0.171429
    16  C   -0.219202
    17  C   -0.170345
    18  C    0.159051
    19  C   -0.169709
    20  C   -0.218370
    21  H    0.224658
    22  H    0.213761
    23  H    0.276353
    24  H    0.277789
    25  H    0.225291
    26  N    0.488040
    27  O   -0.458634
    28  O   -0.458819
 Sum of Mulliken charges =  -0.00000

 Dipole moment (field-independent basis, Debye):
    X=             -3.2176    Y=             -8.4463    Z=              0.9450  Tot=              9.0877
 Quadrupole moment (field-independent basis, Debye-Ang):
   XX=           -132.5686   YY=           -109.4922   ZZ=           -101.0480
   XY=              6.3520   XZ=              4.2098   YZ=              2.9816

 Normal termination of Gaussian 16 at Thu May  6 08:05:56 2021.
