 Gaussian 16, Revision A.03,
 Gaussian 16:  EM64L-G16RevA.03 25-Dec-2016

 -------------
 #p 6-31g* mp2
 -------------

 ------------------------------------------------------
 Input file generated by CHIRIPA (05-May-2021 14:57:22)
 ------------------------------------------------------
 Symbolic Z-matrix:
 Charge =  0 Multiplicity = 1

                         Standard orientation:
 ---------------------------------------------------------------------
 Center     Atomic      Atomic             Coordinates (Angstroms)
 Number     Number       Type             X           Y           Z
 ---------------------------------------------------------------------
      1          6           0       -3.469691   -0.779942    0.612497
      2          6           0       -3.397111   -0.104147   -0.610023
      3          6           0       -2.384801    0.830937   -0.845384
      4          6           0       -1.457510    1.066737    0.168430
      5          6           0       -1.503222    0.409565    1.396976
      6          6           0       -2.524182   -0.521384    1.610336
      7          1           0       -4.259437   -1.504731    0.786786
      8          1           0       -4.130042   -0.302930   -1.386774
      9          1           0       -2.305139    1.368354   -1.782537
     10          1           0       -0.758232    0.628973    2.152137
     11          1           0       -2.578088   -1.044722    2.560734
     12          7           0       -0.381245    2.054481   -0.069090
     13          8           0        0.423569    2.244279    0.840244
     14          8           0       -0.362860    2.620171   -1.160096
     15          6           0        3.595546    0.479512    0.572043
     16          6           0        3.169880    0.555772   -0.758187
     17          6           0        2.084682   -0.206222   -1.201201
     18          6           0        1.445344   -1.037694   -0.282947
     19          6           0        1.845747   -1.135511    1.048743
     20          6           0        2.933289   -0.364398    1.469680
     21          1           0        4.439463    1.074988    0.907612
     22          1           0        3.682302    1.210300   -1.457517
     23          1           0        1.734236   -0.166452   -2.225420
     24          1           0        1.314977   -1.797077    1.722561
     25          1           0        3.261675   -0.425643    2.503342
     26          7           0        0.295253   -1.849208   -0.740260
     27          8           0       -0.251152   -2.574053    0.088401
     28          8           0       -0.038005   -1.745063   -1.918704
 ---------------------------------------------------------------------

 SCF Done:  E(RHF) =  -868.337800877     A.U. after   16 cycles
 E2 =    -0.2608511811D+01 EUMP2 =    -0.87094631268810D+03

 The electronic state is 1-A.
 Alpha  occ. eigenvalues --  -20.60596 -20.60559 -20.60549 -20.60525 -15.85592
 Alpha  occ. eigenvalues --  -15.85548 -11.30629 -11.30544 -11.27220 -11.27102
 Alpha  occ. eigenvalues --  -11.27076 -11.27053 -11.26779 -11.26701 -11.26155
 Alpha  occ. eigenvalues --  -11.26008 -11.26002 -11.25950  -1.59652  -1.59608
 Alpha  occ. eigenvalues --   -1.39216  -1.39174  -1.18778  -1.18682  -1.08264
 Alpha  occ. eigenvalues --   -1.08081  -1.04131  -1.04019  -0.95113  -0.95048
 Alpha  occ. eigenvalues --   -0.85574  -0.85433  -0.81977  -0.81900  -0.77083
 Alpha  occ. eigenvalues --   -0.76991  -0.71860  -0.71808  -0.71429  -0.70574
 Alpha  occ. eigenvalues --   -0.69899  -0.69773  -0.64425  -0.64344  -0.64141
 Alpha  occ. eigenvalues --   -0.64045  -0.61534  -0.61392  -0.54628  -0.54540
 Alpha  occ. eigenvalues --   -0.52457  -0.52307  -0.52219  -0.52117  -0.48627
 Alpha  occ. eigenvalues --   -0.48579  -0.48558  -0.48525  -0.44828  -0.44567
 Alpha  occ. eigenvalues --   -0.37258  -0.36081  -0.35737  -0.35274
 Alpha virt. eigenvalues --    0.05016   0.05850   0.11454   0.12625   0.16864
 Alpha virt. eigenvalues --    0.17280   0.21751   0.22344   0.27413   0.28263
 Alpha virt. eigenvalues --    0.28690   0.29312   0.31531   0.31616   0.32779

 Mulliken charges:
               1
     1  C   -0.162042
     2  C   -0.212567
     3  C   -0.162601
     4  C    0.142612
     5  C   -0.176576
     6  C   -0.203171
     7  H    0.225747
     8  H    0.223677
     9  H    0.273701
    10  H    0.267839
    11  H    0.220176
    12  N    0.490538
    13  O   -0.463557
    14  O   -0.465000
    15  C   -0.160067
    16  C   -0.205294
    17  C   -0.174953
    18  C    0.149748
    19  C   -0.174365
    20  C   -0.211931
    21  H    0.225620
    22  H    0.225978
    23  H    0.276002
    24  H    0.266871
    25  H    0.219695
    26  N    0.491502
    27  O   -0.464508
    28  O   -0.463073
 Sum of Mulliken charges =  -0.00000

 Dipole moment (field-independent basis, Debye):
    X=              0.2713    Y=             -0.5957    Z=              2.3486  Tot=              2.4381
 Quadrupole moment (field-independent basis, Debye-Ang):
   XX=            -80.9271   YY=           -119.2437   ZZ=            -97.4210
   XY=              2.0304   XZ=              0.7724   YZ=             -5.2077

 Normal termination of Gaussian 16 at Fri May  7 06:23:38 2021.
