 Gaussian 16, Revision A.03,
 Gaussian 16:  EM64L-G16RevA.03 25-Dec-2016

 -------------
 #p 6-31g* mp2
 -------------

 ------------------------------------------------------
 Input file generated by CHIRIPA (05-May-2021 14:53:16)
 ------------------------------------------------------
 Symbolic Z-matrix:
 Charge =  0 Multiplicity = 1

                         Standard orientation:
 ---------------------------------------------------------------------
 Center     Atomic      Atomic             Coordinates (Angstroms)
 Number     Number       Type             X           Y           Z
 ---------------------------------------------------------------------
      1          6           0        5.331927    0.148746   -0.135628
      2          6           0        5.705195   -1.176648   -0.800447
      3          6           0        7.215237   -1.413188   -0.840668
      4          1           0        5.819273    0.972339   -0.675195
      5          1           0        5.733751    0.163973    0.886967
      6          1           0        5.301601   -1.189940   -1.821011
      7          1           0        5.216749   -1.997167   -0.259350
      8          1           0        7.630193   -1.426564    0.172364
      9          1           0        7.715527   -0.614751   -1.398170
     10          1           0        7.459679   -2.366248   -1.320026
     11          6           0        3.825750    0.399498   -0.087851
     12          6           0        3.452482    1.724893    0.576968
     13          6           0        1.942440    1.961432    0.617189
     14          1           0        3.423926    0.384272   -1.110446
     15          1           0        3.338403   -0.424095    0.451716
     16          1           0        3.940928    2.545411    0.035871
     17          1           0        3.856076    1.738184    1.597532
     18          1           0        1.442150    1.162995    1.174691
     19          1           0        1.527484    1.974809   -0.395843
     20          1           0        1.697998    2.914493    1.096547
     21          6           0       -1.634514   -0.646199    1.638156
     22          6           0       -1.719822    0.564927    0.943593
     23          6           0       -2.791750    0.815128    0.081666
     24          6           0       -3.765031   -0.172390   -0.062635
     25          6           0       -3.708087   -1.389021    0.615492
     26          6           0       -2.627168   -1.617595    1.472181
     27          1           0       -0.798321   -0.832161    2.305687
     28          1           0       -0.950368    1.321147    1.070543
     29          1           0       -2.882544    1.743956   -0.468292
     30          1           0       -4.490442   -2.123667    0.468413
     31          1           0       -2.563511   -2.559093    2.010303
     32          7           0       -4.904592    0.081039   -0.972346
     33          8           0       -5.749115   -0.805167   -1.082144
     34          8           0       -4.931680    1.161085   -1.558354
 ---------------------------------------------------------------------

 SCF Done:  E(RHF) =  -669.535320305     A.U. after   15 cycles
 E2 =    -0.2091143781D+01 EUMP2 =    -0.67162646408581D+03

 The electronic state is 1-A.
 Alpha  occ. eigenvalues --  -20.60705 -20.60700 -15.85756 -11.31107 -11.27671
 Alpha  occ. eigenvalues --  -11.27645 -11.27410 -11.26699 -11.26599 -11.22453
 Alpha  occ. eigenvalues --  -11.22243 -11.22085 -11.22064 -11.21922 -11.21454
 Alpha  occ. eigenvalues --   -1.59781  -1.39335  -1.19271  -1.09090  -1.08673
 Alpha  occ. eigenvalues --   -1.04670  -1.04227  -0.96707  -0.95512  -0.87747
 Alpha  occ. eigenvalues --   -0.86064  -0.82341  -0.80313  -0.78867  -0.77386
 Alpha  occ. eigenvalues --   -0.71976  -0.71103  -0.70393  -0.65724  -0.64923
 Alpha  occ. eigenvalues --   -0.64688  -0.62054  -0.61600  -0.60080  -0.58280
 Alpha  occ. eigenvalues --   -0.56000  -0.55186  -0.53470  -0.53225  -0.52984
 Alpha  occ. eigenvalues --   -0.52607  -0.50643  -0.48758  -0.48732  -0.48569
 Alpha  occ. eigenvalues --   -0.47316  -0.46417  -0.46316  -0.44743  -0.44465
 Alpha  occ. eigenvalues --   -0.37256  -0.36264
 Alpha virt. eigenvalues --    0.05133   0.11345   0.16624   0.20449   0.22308
 Alpha virt. eigenvalues --    0.23755   0.25614   0.25908   0.26859   0.27642
 Alpha virt. eigenvalues --    0.28731   0.29871   0.30855   0.31515   0.31855

 Mulliken charges:
               1
     1  C   -0.298913
     2  C   -0.300001
     3  C   -0.476062
     4  H    0.151401
     5  H    0.149783
     6  H    0.153355
     7  H    0.151341
     8  H    0.155332
     9  H    0.156205
    10  H    0.161626
    11  C   -0.298504
    12  C   -0.300380
    13  C   -0.480877
    14  H    0.152119
    15  H    0.147168
    16  H    0.156183
    17  H    0.153347
    18  H    0.145529
    19  H    0.159706
    20  H    0.162069
    21  C   -0.173661
    22  C   -0.223508
    23  C   -0.173293
    24  C    0.158929
    25  C   -0.171581
    26  C   -0.218295
    27  H    0.224512
    28  H    0.236169
    29  H    0.275480
    30  H    0.275206
    31  H    0.222899
    32  N    0.488024
    33  O   -0.460717
    34  O   -0.460588
 Sum of Mulliken charges =  -0.00000

 Dipole moment (field-independent basis, Debye):
    X=              4.2494    Y=             -0.8536    Z=              3.1463  Tot=              5.3559
 Quadrupole moment (field-independent basis, Debye-Ang):
   XX=           -125.4425   YY=            -90.2966   ZZ=            -94.9089
   XY=              5.0913   XZ=            -12.9348   YZ=             -2.1764

 Normal termination of Gaussian 16 at Thu May  6 07:30:12 2021.
