 Gaussian 16, Revision A.03,
 Gaussian 16:  EM64L-G16RevA.03 25-Dec-2016

 -------------
 #p 6-31g* mp2
 -------------

 ------------------------------------------------------
 Input file generated by CHIRIPA (05-May-2021 14:57:27)
 ------------------------------------------------------
 Symbolic Z-matrix:
 Charge =  0 Multiplicity = 1

                         Standard orientation:
 ---------------------------------------------------------------------
 Center     Atomic      Atomic             Coordinates (Angstroms)
 Number     Number       Type             X           Y           Z
 ---------------------------------------------------------------------
      1          6           0        5.289445    1.579151    0.015088
      2          6           0        4.466929    1.530052    1.145388
      3          6           0        3.417442    0.609450    1.220334
      4          6           0        3.218096   -0.251075    0.141887
      5          6           0        4.020364   -0.226583   -0.997874
      6          6           0        5.063935    0.702223   -1.051056
      7          1           0        6.102414    2.297483   -0.034678
      8          1           0        4.639719    2.209867    1.974870
      9          1           0        2.765478    0.549886    2.083360
     10          1           0        3.823427   -0.917101   -1.808934
     11          1           0        5.701119    0.738094   -1.930121
     12          7           0        2.110183   -1.230018    0.209709
     13          8           0        1.955405   -1.977296   -0.753751
     14          8           0        1.417557   -1.231498    1.225043
     15          6           0       -2.475369   -2.257438   -0.108722
     16          6           0       -3.553979   -1.922467    0.716455
     17          6           0       -4.074832   -0.625068    0.712509
     18          6           0       -3.490151    0.316650   -0.132836
     19          6           0       -2.414766    0.013652   -0.966519
     20          6           0       -1.910201   -1.290015   -0.946099
     21          1           0       -2.077084   -3.267722   -0.099258
     22          1           0       -3.994892   -2.671731    1.367794
     23          1           0       -4.909204   -0.338620    1.341151
     24          1           0       -1.996282    0.782142   -1.605042
     25          1           0       -1.072469   -1.547314   -1.588009
     26          7           0       -4.032933    1.693465   -0.145732
     27          8           0       -3.500063    2.504894   -0.899569
     28          8           0       -4.980957    1.935114    0.598239
 ---------------------------------------------------------------------

 SCF Done:  E(RHF) =  -868.340207958     A.U. after   15 cycles
 E2 =    -0.2598662572D+01 EUMP2 =    -0.87093887053031D+03

 The electronic state is 1-A.
 Alpha  occ. eigenvalues --  -20.61599 -20.61540 -20.60029 -20.60023 -15.86584
 Alpha  occ. eigenvalues --  -15.85071 -11.31679 -11.30156 -11.28232 -11.28193
 Alpha  occ. eigenvalues --  -11.27900 -11.27173 -11.27144 -11.26714 -11.26654
 Alpha  occ. eigenvalues --  -11.26261 -11.25657 -11.25467  -1.60634  -1.59110
 Alpha  occ. eigenvalues --   -1.40193  -1.38672  -1.19825  -1.18272  -1.09271
 Alpha  occ. eigenvalues --   -1.07693  -1.05185  -1.03639  -0.96152  -0.94592
 Alpha  occ. eigenvalues --   -0.86596  -0.85031  -0.82992  -0.81446  -0.78071
 Alpha  occ. eigenvalues --   -0.76550  -0.72817  -0.71937  -0.71298  -0.70927
 Alpha  occ. eigenvalues --   -0.70429  -0.69351  -0.65480  -0.65184  -0.63917
 Alpha  occ. eigenvalues --   -0.63608  -0.62535  -0.61002  -0.55693  -0.54080
 Alpha  occ. eigenvalues --   -0.53530  -0.53272  -0.51970  -0.51720  -0.49589
 Alpha  occ. eigenvalues --   -0.49548  -0.48069  -0.48023  -0.45648  -0.44143
 Alpha  occ. eigenvalues --   -0.37788  -0.36774  -0.36169  -0.35230
 Alpha virt. eigenvalues --    0.04419   0.05972   0.10884   0.12437   0.15971
 Alpha virt. eigenvalues --    0.17570   0.21058   0.22652   0.26986   0.27899
 Alpha virt. eigenvalues --    0.28533   0.29473   0.30650   0.32063   0.32328

 Mulliken charges:
               1
     1  C   -0.169587
     2  C   -0.218230
     3  C   -0.169853
     4  C    0.157533
     5  C   -0.171229
     6  C   -0.218358
     7  H    0.227897
     8  H    0.226065
     9  H    0.277129
    10  H    0.274219
    11  H    0.224871
    12  N    0.488564
    13  O   -0.470024
    14  O   -0.456433
    15  C   -0.164442
    16  C   -0.218928
    17  C   -0.172843
    18  C    0.157959
    19  C   -0.174804
    20  C   -0.215667
    21  H    0.229698
    22  H    0.220029
    23  H    0.271396
    24  H    0.270068
    25  H    0.234903
    26  N    0.488197
    27  O   -0.464554
    28  O   -0.463579
 Sum of Mulliken charges =  -0.00000

 Dipole moment (field-independent basis, Debye):
    X=              6.2631    Y=             -1.5189    Z=             -0.1152  Tot=              6.4457
 Quadrupole moment (field-independent basis, Debye-Ang):
   XX=            -91.9792   YY=           -109.8509   ZZ=            -98.9888
   XY=             29.4661   XZ=             -4.4714   YZ=              2.0854

 Normal termination of Gaussian 16 at Thu May  6 00:28:48 2021.
