 Gaussian 16, Revision A.03,
 Gaussian 16:  EM64L-G16RevA.03 25-Dec-2016

 -------------
 #p 6-31g* mp2
 -------------

 ------------------------------------------------------
 Input file generated by CHIRIPA (05-May-2021 14:51:08)
 ------------------------------------------------------
 Symbolic Z-matrix:
 Charge =  0 Multiplicity = 1

                         Standard orientation:
 ---------------------------------------------------------------------
 Center     Atomic      Atomic             Coordinates (Angstroms)
 Number     Number       Type             X           Y           Z
 ---------------------------------------------------------------------
      1          6           0        2.209970   -0.288705   -0.247652
      2          6           0        3.022569   -1.459445   -0.801761
      3          6           0        2.199392   -2.741346   -0.931770
      4          1           0        1.802497   -0.565669    0.734285
      5          1           0        1.347622   -0.106831   -0.903909
      6          1           0        3.883894   -1.638165   -0.145411
      7          1           0        3.428315   -1.179591   -1.782408
      8          1           0        1.348539   -2.586376   -1.603062
      9          1           0        1.806707   -3.047555    0.043235
     10          1           0        2.799790   -3.565382   -1.329700
     11          6           0        3.019157    0.999902   -0.111871
     12          6           0        2.206558    2.170641    0.442237
     13          6           0        3.029735    3.452543    0.572246
     14          1           0        3.881506    0.818028    0.544385
     15          1           0        3.426631    1.276866   -1.093809
     16          1           0        1.800813    1.890788    1.422884
     17          1           0        1.345233    2.349362   -0.214112
     18          1           0        3.422421    3.758752   -0.402759
     19          1           0        3.880589    3.297572    1.243538
     20          1           0        2.429338    4.276579    0.970176
     21          6           0       -3.049696   -0.019535   -0.350477
     22          6           0       -3.597416    1.339422    0.086812
     23          6           0       -4.466010    1.999250   -0.984619
     24          1           0       -2.464869    0.107216   -1.271810
     25          1           0       -3.889606   -0.681857   -0.602027
     26          1           0       -2.756768    1.998539    0.338788
     27          1           0       -4.180849    1.209450    1.007318
     28          1           0       -5.323307    1.364253   -1.230427
     29          1           0       -3.891135    2.157826   -1.902755
     30          1           0       -4.847063    2.969517   -0.651089
     31          6           0       -2.179431   -0.691661    0.710001
     32          6           0       -1.631711   -2.050618    0.272711
     33          6           0       -0.763118   -2.710447    1.344142
     34          1           0       -1.339522   -0.029340    0.961551
     35          1           0       -2.764258   -0.818414    1.631334
     36          1           0       -1.048279   -1.920647   -0.647794
     37          1           0       -2.472360   -2.709736    0.020737
     38          1           0       -1.337992   -2.869023    2.262278
     39          1           0        0.094180   -2.075451    1.589950
     40          1           0       -0.382064   -3.680713    1.010612
 ---------------------------------------------------------------------

 SCF Done:  E(RHF) =  -470.731793469     A.U. after   11 cycles
 E2 =    -0.1585092156D+01 EUMP2 =    -0.47231688562468D+03

 The electronic state is 1-A.
 Alpha  occ. eigenvalues --  -11.21675 -11.21617 -11.21578 -11.21520 -11.21471
 Alpha  occ. eigenvalues --  -11.21411 -11.21363 -11.21291 -11.21121 -11.21059
 Alpha  occ. eigenvalues --  -11.20988 -11.20963  -1.08505  -1.08368  -1.03613
 Alpha  occ. eigenvalues --   -1.03441  -0.96061  -0.95898  -0.87078  -0.86921
 Alpha  occ. eigenvalues --   -0.79650  -0.79545  -0.78330  -0.78189  -0.65138
 Alpha  occ. eigenvalues --   -0.65012  -0.61064  -0.60861  -0.59405  -0.59299
 Alpha  occ. eigenvalues --   -0.57762  -0.57418  -0.55352  -0.55202  -0.52781
 Alpha  occ. eigenvalues --   -0.52683  -0.52444  -0.52211  -0.50059  -0.49840
 Alpha  occ. eigenvalues --   -0.47954  -0.47815  -0.46917  -0.46436  -0.46013
 Alpha  occ. eigenvalues --   -0.45835  -0.45549  -0.45351  -0.43822  -0.43728
 Alpha virt. eigenvalues --    0.20362   0.22994   0.23421   0.24397   0.25295
 Alpha virt. eigenvalues --    0.25737   0.26708   0.28141   0.29091   0.29640
 Alpha virt. eigenvalues --    0.30374   0.30804   0.31262   0.31931   0.32385

 Mulliken charges:
               1
     1  C   -0.303982
     2  C   -0.299668
     3  C   -0.482407
     4  H    0.153558
     5  H    0.149971
     6  H    0.151764
     7  H    0.151665
     8  H    0.155728
     9  H    0.164026
    10  H    0.159432
    11  C   -0.297822
    12  C   -0.300148
    13  C   -0.475702
    14  H    0.149888
    15  H    0.149990
    16  H    0.151897
    17  H    0.151496
    18  H    0.155393
    19  H    0.155463
    20  H    0.160476
    21  C   -0.298112
    22  C   -0.299752
    23  C   -0.475639
    24  H    0.148733
    25  H    0.149446
    26  H    0.152157
    27  H    0.151932
    28  H    0.155162
    29  H    0.154885
    30  H    0.160187
    31  C   -0.300241
    32  C   -0.301897
    33  C   -0.480851
    34  H    0.151844
    35  H    0.149205
    36  H    0.155666
    37  H    0.151507
    38  H    0.154717
    39  H    0.158457
    40  H    0.161579
 Sum of Mulliken charges =  -0.00000

 Dipole moment (field-independent basis, Debye):
    X=              0.0324    Y=             -0.0079    Z=              0.0151  Tot=              0.0366
 Quadrupole moment (field-independent basis, Debye-Ang):
   XX=            -84.7420   YY=            -85.8423   ZZ=            -84.2610
   XY=              0.2540   XZ=             -0.4995   YZ=             -0.2013

 Normal termination of Gaussian 16 at Thu May  6 16:31:46 2021.
