 Gaussian 16, Revision A.03,
 Gaussian 16:  EM64L-G16RevA.03 25-Dec-2016

 -------------
 #p 6-31g* mp2
 -------------

 ------------------------------------------------------
 Input file generated by CHIRIPA (05-May-2021 14:55:19)
 ------------------------------------------------------
 Symbolic Z-matrix:
 Charge =  0 Multiplicity = 1

                         Standard orientation:
 ---------------------------------------------------------------------
 Center     Atomic      Atomic             Coordinates (Angstroms)
 Number     Number       Type             X           Y           Z
 ---------------------------------------------------------------------
      1          6           0       -3.083938   -2.126121    1.283660
      2          6           0       -3.577006   -2.005251   -0.019719
      3          6           0       -3.267536   -0.883593   -0.794741
      4          6           0       -2.458644    0.102615   -0.232267
      5          6           0       -1.952117    0.011104    1.063243
      6          6           0       -2.274494   -1.119333    1.820035
      7          1           0       -3.329355   -3.000861    1.878635
      8          1           0       -4.205855   -2.785575   -0.438871
      9          1           0       -3.635778   -0.764506   -1.806489
     10          1           0       -1.327610    0.805420    1.453719
     11          1           0       -1.890158   -1.210527    2.831971
     12          7           0       -2.124189    1.294711   -1.043098
     13          8           0       -1.409561    2.149672   -0.524462
     14          8           0       -2.583005    1.351541   -2.181911
     15          6           0        3.216479   -0.637135    0.026400
     16          6           0        4.452835   -1.153468   -0.710356
     17          6           0        4.436003   -2.670240   -0.902483
     18          1           0        3.147666   -1.131399    1.005132
     19          1           0        2.316738   -0.926721   -0.533955
     20          1           0        5.350046   -0.861800   -0.149500
     21          1           0        4.518820   -0.657777   -1.687368
     22          1           0        3.558389   -2.975501   -1.481456
     23          1           0        4.394337   -3.180684    0.065149
     24          1           0        5.328980   -3.017869   -1.431260
     25          6           0        3.218761    0.877409    0.226097
     26          6           0        1.982405    1.393742    0.962853
     27          6           0        1.999238    2.910514    1.154980
     28          1           0        4.118504    1.166995    0.786453
     29          1           0        3.287575    1.371673   -0.752634
     30          1           0        1.916421    0.898050    1.939865
     31          1           0        1.085195    1.102073    0.401997
     32          1           0        2.040903    3.420958    0.187348
     33          1           0        2.876852    3.215775    1.733954
     34          1           0        1.106260    3.258142    1.683757
 ---------------------------------------------------------------------

 SCF Done:  E(RHF) =  -669.536000240     A.U. after   15 cycles
 E2 =    -0.2092182006D+01 EUMP2 =    -0.67162818224545D+03

 The electronic state is 1-A.
 Alpha  occ. eigenvalues --  -20.60928 -20.60923 -15.85948 -11.31248 -11.27816
 Alpha  occ. eigenvalues --  -11.27787 -11.27548 -11.26818 -11.26800 -11.21437
 Alpha  occ. eigenvalues --  -11.21189 -11.21126 -11.21002 -11.20993 -11.20401
 Alpha  occ. eigenvalues --   -1.59987  -1.39543  -1.19418  -1.08828  -1.08132
 Alpha  occ. eigenvalues --   -1.04808  -1.03192  -0.95692  -0.95613  -0.86651
 Alpha  occ. eigenvalues --   -0.86212  -0.82504  -0.79294  -0.77993  -0.77530
 Alpha  occ. eigenvalues --   -0.72175  -0.71302  -0.70526  -0.65082  -0.64838
 Alpha  occ. eigenvalues --   -0.64721  -0.62167  -0.60562  -0.59024  -0.57255
 Alpha  occ. eigenvalues --   -0.55317  -0.54908  -0.53144  -0.52901  -0.52318
 Alpha  occ. eigenvalues --   -0.52068  -0.49574  -0.48948  -0.48926  -0.47603
 Alpha  occ. eigenvalues --   -0.46332  -0.45553  -0.45467  -0.44755  -0.43454
 Alpha  occ. eigenvalues --   -0.37399  -0.36399
 Alpha virt. eigenvalues --    0.04935   0.11178   0.16425   0.21017   0.23185
 Alpha virt. eigenvalues --    0.24187   0.26520   0.26906   0.27658   0.27961
 Alpha virt. eigenvalues --    0.29099   0.30649   0.31610   0.31770   0.32170

 Mulliken charges:
               1
     1  C   -0.170402
     2  C   -0.218652
     3  C   -0.170844
     4  C    0.157235
     5  C   -0.171781
     6  C   -0.219403
     7  H    0.225886
     8  H    0.223628
     9  H    0.275535
    10  H    0.280193
    11  H    0.224075
    12  N    0.488278
    13  O   -0.460102
    14  O   -0.459051
    15  C   -0.297753
    16  C   -0.299495
    17  C   -0.475444
    18  H    0.145529
    19  H    0.149094
    20  H    0.151536
    21  H    0.153740
    22  H    0.154689
    23  H    0.153151
    24  H    0.160077
    25  C   -0.298064
    26  C   -0.307904
    27  C   -0.471478
    28  H    0.147674
    29  H    0.153766
    30  H    0.140219
    31  H    0.162837
    32  H    0.163376
    33  H    0.149224
    34  H    0.160630
 Sum of Mulliken charges =  -0.00000

 Dipole moment (field-independent basis, Debye):
    X=             -1.3161    Y=             -4.1099    Z=              2.7340  Tot=              5.1086
 Quadrupole moment (field-independent basis, Debye-Ang):
   XX=            -88.1809   YY=            -96.5243   ZZ=            -92.9183
   XY=             11.8094   XZ=             -4.3519   YZ=              2.2406

 Normal termination of Gaussian 16 at Thu May  6 01:21:02 2021.
