 Gaussian 16, Revision A.03,
 Gaussian 16:  EM64L-G16RevA.03 25-Dec-2016

 -------------
 #p 6-31g* mp2
 -------------

 ------------------------------------------------------
 Input file generated by CHIRIPA (05-May-2021 14:51:12)
 ------------------------------------------------------
 Symbolic Z-matrix:
 Charge =  0 Multiplicity = 1

                         Standard orientation:
 ---------------------------------------------------------------------
 Center     Atomic      Atomic             Coordinates (Angstroms)
 Number     Number       Type             X           Y           Z
 ---------------------------------------------------------------------
      1          6           0       -3.214000   -0.213896    0.097882
      2          6           0       -2.431593   -0.181992    1.411201
      3          6           0       -0.920833   -0.084332    1.197051
      4          1           0       -2.871797   -1.066317   -0.504795
      5          1           0       -2.982505    0.691036   -0.480826
      6          1           0       -2.665560   -1.086050    1.987876
      7          1           0       -2.775833    0.670341    2.010904
      8          1           0       -0.668290    0.825605    0.643122
      9          1           0       -0.557390   -0.940766    0.619963
     10          1           0       -0.380989   -0.062918    2.148876
     11          6           0       -4.725677   -0.311396    0.295505
     12          6           0       -5.508084   -0.343300   -1.017814
     13          6           0       -7.018845   -0.440960   -0.803665
     14          1           0       -4.957173   -1.216328    0.874212
     15          1           0       -5.067881    0.541025    0.898182
     16          1           0       -5.163844   -1.195633   -1.617517
     17          1           0       -5.274118    0.560758   -1.594489
     18          1           0       -7.382288    0.415474   -0.226576
     19          1           0       -7.271388   -1.350897   -0.249735
     20          1           0       -7.558689   -0.462374   -1.755489
     21          6           0        4.523126   -0.158894   -0.512303
     22          6           0        4.780065   -1.473066    0.225883
     23          6           0        5.889682   -2.305311   -0.417476
     24          1           0        4.260941   -0.377469   -1.556539
     25          1           0        5.452809    0.426216   -0.539354
     26          1           0        3.849823   -2.054913    0.252741
     27          1           0        5.041481   -1.251346    1.268532
     28          1           0        6.831526   -1.747313   -0.430418
     29          1           0        5.633097   -2.555445   -1.451981
     30          1           0        6.056777   -3.240378    0.126206
     31          6           0        3.416552    0.684186    0.118917
     32          6           0        3.159613    1.998358   -0.619269
     33          6           0        2.049996    2.830604    0.024090
     34          1           0        2.486869    0.099076    0.145968
     35          1           0        3.678736    0.902761    1.163152
     36          1           0        2.898196    1.776637   -1.661919
     37          1           0        4.089855    2.580204   -0.646128
     38          1           0        2.306580    3.080738    1.058594
     39          1           0        1.108152    2.272605    0.037031
     40          1           0        1.882900    3.765670   -0.519593
 ---------------------------------------------------------------------

 SCF Done:  E(RHF) =  -470.733254393     A.U. after   11 cycles
 E2 =    -0.1582644988D+01 EUMP2 =    -0.47231589938096D+03

 The electronic state is 1-A.
 Alpha  occ. eigenvalues --  -11.21628 -11.21615 -11.21561 -11.21543 -11.21427
 Alpha  occ. eigenvalues --  -11.21367 -11.21341 -11.21272 -11.21107 -11.21081
 Alpha  occ. eigenvalues --  -11.21042 -11.20999  -1.08453  -1.08371  -1.03558
 Alpha  occ. eigenvalues --   -1.03475  -0.96013  -0.95923  -0.87037  -0.86936
 Alpha  occ. eigenvalues --   -0.79655  -0.79510  -0.78274  -0.78168  -0.65090
 Alpha  occ. eigenvalues --   -0.64998  -0.61022  -0.60828  -0.59371  -0.59295
 Alpha  occ. eigenvalues --   -0.57645  -0.57520  -0.55438  -0.55094  -0.52702
 Alpha  occ. eigenvalues --   -0.52624  -0.52495  -0.52306  -0.50107  -0.49717
 Alpha  occ. eigenvalues --   -0.48032  -0.47780  -0.46719  -0.46476  -0.45866
 Alpha  occ. eigenvalues --   -0.45739  -0.45697  -0.45547  -0.43800  -0.43730
 Alpha virt. eigenvalues --    0.21760   0.22962   0.23587   0.24697   0.25793
 Alpha virt. eigenvalues --    0.26298   0.27147   0.27509   0.27781   0.29177
 Alpha virt. eigenvalues --    0.30129   0.31425   0.31757   0.31810   0.32041

 Mulliken charges:
               1
     1  C   -0.298486
     2  C   -0.300028
     3  C   -0.481049
     4  H    0.149490
     5  H    0.149553
     6  H    0.152059
     7  H    0.152375
     8  H    0.160192
     9  H    0.154528
    10  H    0.161600
    11  C   -0.298303
    12  C   -0.299682
    13  C   -0.475724
    14  H    0.149586
    15  H    0.149806
    16  H    0.151891
    17  H    0.151992
    18  H    0.155248
    19  H    0.155199
    20  H    0.160293
    21  C   -0.298261
    22  C   -0.299537
    23  C   -0.475662
    24  H    0.149414
    25  H    0.149302
    26  H    0.151899
    27  H    0.151852
    28  H    0.155114
    29  H    0.155064
    30  H    0.160075
    31  C   -0.301041
    32  C   -0.299067
    33  C   -0.482008
    34  H    0.153843
    35  H    0.149228
    36  H    0.151536
    37  H    0.151592
    38  H    0.155031
    39  H    0.161502
    40  H    0.159585
 Sum of Mulliken charges =  -0.00000

 Dipole moment (field-independent basis, Debye):
    X=             -0.0333    Y=             -0.0081    Z=              0.0164  Tot=              0.0380
 Quadrupole moment (field-independent basis, Debye-Ang):
   XX=            -86.2548   YY=            -84.1119   ZZ=            -84.5536
   XY=              0.6983   XZ=              0.6917   YZ=              0.0641

 Normal termination of Gaussian 16 at Wed May  5 21:32:37 2021.
