 Gaussian 16, Revision A.03,
 Gaussian 16:  EM64L-G16RevA.03 25-Dec-2016

 -------------
 #p 6-31g* mp2
 -------------

 ------------------------------------------------------
 Input file generated by CHIRIPA (05-May-2021 14:55:22)
 ------------------------------------------------------
 Symbolic Z-matrix:
 Charge =  0 Multiplicity = 1

                         Standard orientation:
 ---------------------------------------------------------------------
 Center     Atomic      Atomic             Coordinates (Angstroms)
 Number     Number       Type             X           Y           Z
 ---------------------------------------------------------------------
      1          6           0        1.333806   -1.511822    0.583695
      2          6           0        1.304863   -0.173140    0.179201
      3          6           0        2.486928    0.491717   -0.160263
      4          6           0        3.685651   -0.215722   -0.083568
      5          6           0        3.747125   -1.549899    0.315785
      6          6           0        2.552695   -2.194725    0.650578
      7          1           0        0.410747   -2.020519    0.845584
      8          1           0        0.359709    0.359712    0.126329
      9          1           0        2.493320    1.527713   -0.476632
     10          1           0        4.704589   -2.054714    0.358690
     11          1           0        2.578191   -3.234401    0.964375
     12          7           0        4.943594    0.477529   -0.440471
     13          8           0        5.986764   -0.167980   -0.364628
     14          8           0        4.862582    1.653283   -0.789296
     15          6           0       -3.945824    0.677452    0.543428
     16          6           0       -3.018315    1.760235   -0.009106
     17          6           0       -2.010802    2.260458    1.026506
     18          1           0       -4.481679    1.073379    1.416953
     19          1           0       -3.340068   -0.165443    0.903958
     20          1           0       -3.625708    2.600248   -0.369751
     21          1           0       -2.484746    1.361747   -0.881532
     22          1           0       -1.380346    1.437846    1.379260
     23          1           0       -2.527791    2.683385    1.893948
     24          1           0       -1.357833    3.033964    0.610359
     25          6           0       -4.958692    0.167293   -0.480077
     26          6           0       -5.886201   -0.915490    0.072456
     27          6           0       -6.893713   -1.415713   -0.963155
     28          1           0       -5.564448    1.010188   -0.840607
     29          1           0       -4.422837   -0.228634   -1.353602
     30          1           0       -6.419769   -0.517002    0.944883
     31          1           0       -5.278807   -1.755504    0.433102
     32          1           0       -6.376724   -1.838640   -1.830598
     33          1           0       -7.524170   -0.593101   -1.315910
     34          1           0       -7.546683   -2.189219   -0.547009
 ---------------------------------------------------------------------

 SCF Done:  E(RHF) =  -669.535441500     A.U. after   15 cycles
 E2 =    -0.2091032134D+01 EUMP2 =    -0.67162647363401D+03

 The electronic state is 1-A.
 Alpha  occ. eigenvalues --  -20.60740 -20.60735 -15.85793 -11.31158 -11.27730
 Alpha  occ. eigenvalues --  -11.27717 -11.27475 -11.26748 -11.26698 -11.22549
 Alpha  occ. eigenvalues --  -11.22252 -11.22221 -11.22128 -11.22071 -11.21584
 Alpha  occ. eigenvalues --   -1.59815  -1.39369  -1.19330  -1.09227  -1.08728
 Alpha  occ. eigenvalues --   -1.04733  -1.04323  -0.96775  -0.95562  -0.87789
 Alpha  occ. eigenvalues --   -0.86132  -0.82393  -0.80384  -0.79012  -0.77440
 Alpha  occ. eigenvalues --   -0.72012  -0.71138  -0.70445  -0.65901  -0.64982
 Alpha  occ. eigenvalues --   -0.64749  -0.62191  -0.61618  -0.60143  -0.58364
 Alpha  occ. eigenvalues --   -0.56102  -0.55226  -0.53460  -0.53206  -0.53058
 Alpha  occ. eigenvalues --   -0.52793  -0.50696  -0.48780  -0.48766  -0.48676
 Alpha  occ. eigenvalues --   -0.47428  -0.46553  -0.46478  -0.44774  -0.44565
 Alpha  occ. eigenvalues --   -0.37316  -0.36330
 Alpha virt. eigenvalues --    0.05094   0.11269   0.16570   0.19175   0.22654
 Alpha virt. eigenvalues --    0.23618   0.25654   0.26526   0.26750   0.28319
 Alpha virt. eigenvalues --    0.28965   0.30099   0.30905   0.31228   0.31668

 Mulliken charges:
               1
     1  C   -0.172671
     2  C   -0.225661
     3  C   -0.172649
     4  C    0.158843
     5  C   -0.171189
     6  C   -0.218368
     7  H    0.224983
     8  H    0.234781
     9  H    0.275871
    10  H    0.275502
    11  H    0.223225
    12  N    0.488065
    13  O   -0.460577
    14  O   -0.460402
    15  C   -0.296975
    16  C   -0.303008
    17  C   -0.480674
    18  H    0.152975
    19  H    0.143207
    20  H    0.157677
    21  H    0.149435
    22  H    0.147790
    23  H    0.162462
    24  H    0.162888
    25  C   -0.298894
    26  C   -0.299790
    27  C   -0.476115
    28  H    0.152200
    29  H    0.149559
    30  H    0.153401
    31  H    0.150154
    32  H    0.155535
    33  H    0.156711
    34  H    0.161709
 Sum of Mulliken charges =  -0.00000

 Dipole moment (field-independent basis, Debye):
    X=             -4.6532    Y=             -2.3663    Z=              1.2576  Tot=              5.3697
 Quadrupole moment (field-independent basis, Debye-Ang):
   XX=           -125.8285   YY=            -89.8164   ZZ=            -95.9364
   XY=            -11.6953   XZ=              4.9039   YZ=             -1.0365

 Normal termination of Gaussian 16 at Thu May  6 10:56:50 2021.
