 Gaussian 16, Revision A.03,
 Gaussian 16:  EM64L-G16RevA.03 25-Dec-2016

 -------------
 #p 6-31g* mp2
 -------------

 ------------------------------------------------------
 Input file generated by CHIRIPA (05-May-2021 14:57:26)
 ------------------------------------------------------
 Symbolic Z-matrix:
 Charge =  0 Multiplicity = 1

                         Standard orientation:
 ---------------------------------------------------------------------
 Center     Atomic      Atomic             Coordinates (Angstroms)
 Number     Number       Type             X           Y           Z
 ---------------------------------------------------------------------
      1          6           0        5.355172    1.573917   -0.357193
      2          6           0        5.606011    0.199694   -0.428692
      3          6           0        4.571240   -0.721605   -0.241599
      4          6           0        3.291937   -0.231576    0.016368
      5          6           0        3.010325    1.131511    0.093697
      6          6           0        4.060412    2.034627   -0.096686
      7          1           0        6.164956    2.282542   -0.503809
      8          1           0        6.610549   -0.160968   -0.630858
      9          1           0        4.737464   -1.790852   -0.291575
     10          1           0        1.998524    1.460813    0.296769
     11          1           0        3.862675    3.101304   -0.040596
     12          7           0        2.188364   -1.197289    0.216176
     13          8           0        1.070100   -0.740056    0.442143
     14          8           0        2.462543   -2.393163    0.143036
     15          6           0       -2.985354   -2.402288   -0.039782
     16          6           0       -2.328433   -1.579913    0.881455
     17          6           0       -2.591232   -0.207372    0.921648
     18          6           0       -3.521042    0.311659    0.022010
     19          6           0       -4.191818   -0.481654   -0.907507
     20          6           0       -3.913314   -1.851505   -0.929753
     21          1           0       -2.775105   -3.467465   -0.064033
     22          1           0       -1.607280   -2.004909    1.573815
     23          1           0       -2.097020    0.452258    1.624543
     24          1           0       -4.905571   -0.029027   -1.585079
     25          1           0       -4.424992   -2.487763   -1.646276
     26          7           0       -3.807569    1.763283    0.055061
     27          8           0       -4.631062    2.196091   -0.748166
     28          8           0       -3.203229    2.440770    0.883567
 ---------------------------------------------------------------------

 SCF Done:  E(RHF) =  -868.340052749     A.U. after   16 cycles
 E2 =    -0.2598884170D+01 EUMP2 =    -0.87093893691908D+03

 The electronic state is 1-A.
 Alpha  occ. eigenvalues --  -20.61392 -20.61384 -20.60027 -20.60019 -15.86416
 Alpha  occ. eigenvalues --  -15.85063 -11.31512 -11.30103 -11.28065 -11.28021
 Alpha  occ. eigenvalues --  -11.27747 -11.27022 -11.26976 -11.26662 -11.26520
 Alpha  occ. eigenvalues --  -11.26250 -11.25663 -11.25392  -1.60459  -1.59106
 Alpha  occ. eigenvalues --   -1.40019  -1.38669  -1.19662  -1.18219  -1.09110
 Alpha  occ. eigenvalues --   -1.07679  -1.05020  -1.03550  -0.95989  -0.94575
 Alpha  occ. eigenvalues --   -0.86432  -0.84976  -0.82832  -0.81407  -0.77904
 Alpha  occ. eigenvalues --   -0.76499  -0.72658  -0.71758  -0.71295  -0.70766
 Alpha  occ. eigenvalues --   -0.70422  -0.69340  -0.65318  -0.65019  -0.63865
 Alpha  occ. eigenvalues --   -0.63545  -0.62366  -0.60909  -0.55536  -0.54086
 Alpha  occ. eigenvalues --   -0.53369  -0.53106  -0.51918  -0.51648  -0.49410
 Alpha  occ. eigenvalues --   -0.49375  -0.48063  -0.48015  -0.45480  -0.44148
 Alpha  occ. eigenvalues --   -0.37631  -0.36612  -0.36189  -0.35086
 Alpha virt. eigenvalues --    0.04605   0.05990   0.11045   0.12536   0.16151
 Alpha virt. eigenvalues --    0.17581   0.21212   0.22630   0.27149   0.27953
 Alpha virt. eigenvalues --    0.28672   0.29405   0.30838   0.32182   0.32320

 Mulliken charges:
               1
     1  C   -0.169979
     2  C   -0.218710
     3  C   -0.170817
     4  C    0.157334
     5  C   -0.170849
     6  C   -0.218757
     7  H    0.227297
     8  H    0.224207
     9  H    0.274941
    10  H    0.278195
    11  H    0.227030
    12  N    0.490521
    13  O   -0.467076
    14  O   -0.461690
    15  C   -0.172899
    16  C   -0.202269
    17  C   -0.168416
    18  C    0.156058
    19  C   -0.174223
    20  C   -0.218937
    21  H    0.224810
    22  H    0.232910
    23  H    0.272593
    24  H    0.270662
    25  H    0.218877
    26  N    0.488197
    27  O   -0.464136
    28  O   -0.464872
 Sum of Mulliken charges =  -0.00000

 Dipole moment (field-independent basis, Debye):
    X=              5.3568    Y=             -1.7943    Z=             -0.7243  Tot=              5.6956
 Quadrupole moment (field-independent basis, Debye-Ang):
   XX=            -83.9009   YY=           -107.4815   ZZ=           -103.2784
   XY=             27.2469   XZ=              0.0222   YZ=              0.9442

 Normal termination of Gaussian 16 at Thu May  6 03:37:21 2021.
