 Gaussian 16, Revision A.03,
 Gaussian 16:  EM64L-G16RevA.03 25-Dec-2016

 -------------
 #p 6-31g* mp2
 -------------

 ------------------------------------------------------
 Input file generated by CHIRIPA (05-May-2021 14:55:23)
 ------------------------------------------------------
 Symbolic Z-matrix:
 Charge =  0 Multiplicity = 1

                         Standard orientation:
 ---------------------------------------------------------------------
 Center     Atomic      Atomic             Coordinates (Angstroms)
 Number     Number       Type             X           Y           Z
 ---------------------------------------------------------------------
      1          6           0       -0.675964    2.180888   -0.464540
      2          6           0       -1.560123    1.735276   -1.452575
      3          6           0       -2.558183    0.805734   -1.145372
      4          6           0       -2.643804    0.340695    0.166001
      5          6           0       -1.777863    0.765494    1.172472
      6          6           0       -0.787459    1.695431    0.842525
      7          1           0        0.096380    2.903132   -0.712017
      8          1           0       -1.475889    2.110565   -2.468502
      9          1           0       -3.255878    0.443835   -1.890804
     10          1           0       -1.886649    0.373226    2.176319
     11          1           0       -0.102194    2.039726    1.611887
     12          7           0       -3.696353   -0.643579    0.503262
     13          8           0       -3.750833   -1.037945    1.666080
     14          8           0       -4.446932   -1.002048   -0.401596
     15          6           0        2.402998   -0.576310   -0.193926
     16          6           0        1.718373   -1.833442   -0.731414
     17          6           0        0.200053   -1.683076   -0.830856
     18          1           0        1.991179   -0.337044    0.796075
     19          1           0        2.159729    0.273032   -0.847251
     20          1           0        1.963987   -2.680439   -0.078049
     21          1           0        2.132007   -2.069852   -1.720168
     22          1           0       -0.062257   -0.856233   -1.498782
     23          1           0       -0.231231   -1.470289    0.152666
     24          1           0       -0.269063   -2.593272   -1.217292
     25          6           0        3.921050   -0.711154   -0.088740
     26          6           0        4.605674    0.545979    0.448748
     27          6           0        6.123994    0.395613    0.548190
     28          1           0        4.164318   -1.560496    0.564585
     29          1           0        4.332869   -0.950419   -1.078741
     30          1           0        4.192042    0.782388    1.437501
     31          1           0        4.360060    1.392976   -0.204617
     32          1           0        6.555280    0.182826   -0.435332
     33          1           0        6.386306   -0.431230    1.216116
     34          1           0        6.593110    1.305809    0.934627
 ---------------------------------------------------------------------

 SCF Done:  E(RHF) =  -669.533509589     A.U. after   15 cycles
 E2 =    -0.2095553631D+01 EUMP2 =    -0.67162906321989D+03

 The electronic state is 1-A.
 Alpha  occ. eigenvalues --  -20.60774 -20.60769 -15.85827 -11.31183 -11.27785
 Alpha  occ. eigenvalues --  -11.27770 -11.27555 -11.26821 -11.26811 -11.22098
 Alpha  occ. eigenvalues --  -11.21764 -11.21716 -11.21671 -11.21473 -11.20867
 Alpha  occ. eigenvalues --   -1.59848  -1.39402  -1.19410  -1.08803  -1.08735
 Alpha  occ. eigenvalues --   -1.04822  -1.03775  -0.96219  -0.95617  -0.87239
 Alpha  occ. eigenvalues --   -0.86208  -0.82456  -0.79878  -0.78583  -0.77495
 Alpha  occ. eigenvalues --   -0.72050  -0.71170  -0.70514  -0.65391  -0.65058
 Alpha  occ. eigenvalues --   -0.64817  -0.62162  -0.61192  -0.59607  -0.57906
 Alpha  occ. eigenvalues --   -0.55523  -0.55313  -0.53702  -0.52907  -0.52886
 Alpha  occ. eigenvalues --   -0.52156  -0.50196  -0.48809  -0.48802  -0.48013
 Alpha  occ. eigenvalues --   -0.46949  -0.46074  -0.45997  -0.44802  -0.44049
 Alpha  occ. eigenvalues --   -0.37321  -0.36325
 Alpha virt. eigenvalues --    0.05005   0.11122   0.16413   0.20985   0.22724
 Alpha virt. eigenvalues --    0.24152   0.25822   0.26532   0.27673   0.27861
 Alpha virt. eigenvalues --    0.28768   0.30659   0.31239   0.31565   0.31798

 Mulliken charges:
               1
     1  C   -0.168843
     2  C   -0.220486
     3  C   -0.170250
     4  C    0.167506
     5  C   -0.176801
     6  C   -0.212134
     7  H    0.226091
     8  H    0.223610
     9  H    0.275915
    10  H    0.275362
    11  H    0.224048
    12  N    0.487790
    13  O   -0.460960
    14  O   -0.460373
    15  C   -0.295904
    16  C   -0.299899
    17  C   -0.481424
    18  H    0.145661
    19  H    0.143708
    20  H    0.152888
    21  H    0.150599
    22  H    0.156468
    23  H    0.156605
    24  H    0.161760
    25  C   -0.298390
    26  C   -0.298857
    27  C   -0.475632
    28  H    0.151519
    29  H    0.150436
    30  H    0.149199
    31  H    0.147680
    32  H    0.156194
    33  H    0.156936
    34  H    0.159980
 Sum of Mulliken charges =  -0.00000

 Dipole moment (field-independent basis, Debye):
    X=              3.6151    Y=              3.4935    Z=             -1.1885  Tot=              5.1659
 Quadrupole moment (field-independent basis, Debye-Ang):
   XX=           -115.7942   YY=            -93.0045   ZZ=            -89.8744
   XY=             -8.1137   XZ=              5.3768   YZ=             -0.3529

 Normal termination of Gaussian 16 at Thu May  6 06:16:32 2021.
