 Gaussian 16, Revision A.03,
 Gaussian 16:  EM64L-G16RevA.03 25-Dec-2016

 -------------
 #p 6-31g* mp2
 -------------

 ------------------------------------------------------
 Input file generated by CHIRIPA (05-May-2021 14:53:17)
 ------------------------------------------------------
 Symbolic Z-matrix:
 Charge =  0 Multiplicity = 1

                         Standard orientation:
 ---------------------------------------------------------------------
 Center     Atomic      Atomic             Coordinates (Angstroms)
 Number     Number       Type             X           Y           Z
 ---------------------------------------------------------------------
      1          6           0        3.453410    1.001503   -0.129841
      2          6           0        2.406248    1.766063   -0.940326
      3          6           0        2.406827    3.265612   -0.641752
      4          1           0        3.269153    1.163676    0.940997
      5          1           0        4.447614    1.418281   -0.342563
      6          1           0        1.414469    1.347060   -0.727190
      7          1           0        2.592905    1.601897   -2.009356
      8          1           0        3.383312    3.703874   -0.871980
      9          1           0        2.198181    3.447590    0.417470
     10          1           0        1.650725    3.792756   -1.231912
     11          6           0        3.465082   -0.498815   -0.417309
     12          6           0        4.512244   -1.263374    0.393176
     13          6           0        4.511665   -2.762923    0.094602
     14          1           0        2.470878   -0.915592   -0.204587
     15          1           0        3.649340   -0.660987   -1.488147
     16          1           0        4.325587   -1.099208    1.462206
     17          1           0        5.504023   -0.844371    0.180040
     18          1           0        4.720312   -2.944901   -0.964620
     19          1           0        3.535180   -3.201185    0.324830
     20          1           0        5.267767   -3.290067    0.684762
     21          6           0       -4.977927   -0.547372   -0.818409
     22          6           0       -3.930322   -1.424288   -1.118514
     23          6           0       -2.665436   -1.239454   -0.552433
     24          6           0       -2.482560   -0.162428    0.313514
     25          6           0       -3.506333    0.728455    0.632111
     26          6           0       -4.762968    0.524311    0.054408
     27          1           0       -5.957315   -0.698456   -1.262669
     28          1           0       -4.094368   -2.257430   -1.796017
     29          1           0       -1.836785   -1.903164   -0.767473
     30          1           0       -3.312309    1.549927    1.311049
     31          1           0       -5.574704    1.206926    0.289286
     32          7           0       -1.147849    0.043468    0.918951
     33          8           0       -1.012481    0.999965    1.678838
     34          8           0       -0.262344   -0.755545    0.622143
 ---------------------------------------------------------------------

 SCF Done:  E(RHF) =  -669.536596851     A.U. after   15 cycles
 E2 =    -0.2091950006D+01 EUMP2 =    -0.67162854685720D+03

 The electronic state is 1-A.
 Alpha  occ. eigenvalues --  -20.61121 -20.61113 -15.86136 -11.31385 -11.27939
 Alpha  occ. eigenvalues --  -11.27935 -11.27666 -11.26929 -11.26920 -11.20419
 Alpha  occ. eigenvalues --  -11.20280 -11.20106 -11.19993 -11.19963 -11.19837
 Alpha  occ. eigenvalues --   -1.60171  -1.39728  -1.19546  -1.08965  -1.07080
 Alpha  occ. eigenvalues --   -1.04931  -1.02330  -0.95818  -0.94782  -0.86335
 Alpha  occ. eigenvalues --   -0.85813  -0.82656  -0.78395  -0.77718  -0.76892
 Alpha  occ. eigenvalues --   -0.72359  -0.71481  -0.70655  -0.65205  -0.64935
 Alpha  occ. eigenvalues --   -0.63668  -0.62278  -0.59714  -0.58174  -0.56411
 Alpha  occ. eigenvalues --   -0.55439  -0.54050  -0.53267  -0.53021  -0.51546
 Alpha  occ. eigenvalues --   -0.51233  -0.49139  -0.49111  -0.48717  -0.46731
 Alpha  occ. eigenvalues --   -0.45422  -0.45214  -0.44455  -0.44135  -0.42537
 Alpha  occ. eigenvalues --   -0.37520  -0.36527
 Alpha virt. eigenvalues --    0.04772   0.11129   0.16267   0.21246   0.24278
 Alpha virt. eigenvalues --    0.25399   0.27193   0.27741   0.28260   0.28865
 Alpha virt. eigenvalues --    0.29260   0.30917   0.32382   0.32475   0.32864

 Mulliken charges:
               1
     1  C   -0.295239
     2  C   -0.301460
     3  C   -0.475410
     4  H    0.155780
     5  H    0.141974
     6  H    0.161597
     7  H    0.143883
     8  H    0.150220
     9  H    0.160361
    10  H    0.153619
    11  C   -0.309487
    12  C   -0.298246
    13  C   -0.475390
    14  H    0.176470
    15  H    0.140426
    16  H    0.153783
    17  H    0.146567
    18  H    0.151005
    19  H    0.157072
    20  H    0.155996
    21  C   -0.170281
    22  C   -0.218597
    23  C   -0.170386
    24  C    0.157686
    25  C   -0.170277
    26  C   -0.218659
    27  H    0.226394
    28  H    0.224256
    29  H    0.276009
    30  H    0.276120
    31  H    0.224179
    32  N    0.491825
    33  O   -0.458216
    34  O   -0.463575
 Sum of Mulliken charges =  -0.00000

 Dipole moment (field-independent basis, Debye):
    X=             -5.1339    Y=             -0.7950    Z=             -1.9540  Tot=              5.5504
 Quadrupole moment (field-independent basis, Debye-Ang):
   XX=            -72.2075   YY=            -93.4215   ZZ=            -95.2324
   XY=              1.2374   XZ=              3.0887   YZ=              2.5349

 Normal termination of Gaussian 16 at Thu May  6 10:41:50 2021.
