 Gaussian 16, Revision A.03,
 Gaussian 16:  EM64L-G16RevA.03 25-Dec-2016

 -------------
 #p 6-31g* mp2
 -------------

 ------------------------------------------------------
 Input file generated by CHIRIPA (05-May-2021 14:51:14)
 ------------------------------------------------------
 Symbolic Z-matrix:
 Charge =  0 Multiplicity = 1

                         Standard orientation:
 ---------------------------------------------------------------------
 Center     Atomic      Atomic             Coordinates (Angstroms)
 Number     Number       Type             X           Y           Z
 ---------------------------------------------------------------------
      1          6           0       -3.627578    0.333814    0.347880
      2          6           0       -4.746396    0.956753   -0.487691
      3          6           0       -5.334537    2.213339    0.154863
      4          1           0       -4.016542    0.089346    1.345821
      5          1           0       -2.832402    1.077572    0.495912
      6          1           0       -5.538597    0.211599   -0.635272
      7          1           0       -4.354775    1.199590   -1.483823
      8          1           0       -4.560824    2.976515    0.287266
      9          1           0       -5.751373    1.982911    1.140638
     10          1           0       -6.132603    2.642261   -0.459122
     11          6           0       -3.029558   -0.923209   -0.281401
     12          6           0       -1.910740   -1.546148    0.554170
     13          6           0       -1.322600   -2.802734   -0.088384
     14          1           0       -3.824734   -1.666967   -0.429433
     15          1           0       -2.640595   -0.678742   -1.279342
     16          1           0       -2.302362   -1.788985    1.550302
     17          1           0       -1.118539   -0.800995    0.701751
     18          1           0       -0.905764   -2.572307   -1.074159
     19          1           0       -2.096313   -3.565910   -0.220787
     20          1           0       -0.524534   -3.231656    0.525601
     21          6           0        3.710831    0.921836    0.176533
     22          6           0        3.066397    2.217966   -0.316152
     23          6           0        3.842690    3.463874    0.111485
     24          1           0        3.786042    0.950630    1.272188
     25          1           0        4.739275    0.863425   -0.205940
     26          1           0        2.039011    2.273250    0.065997
     27          1           0        2.992538    2.186001   -1.410748
     28          1           0        4.863859    3.435509   -0.282228
     29          1           0        3.904916    3.523254    1.202908
     30          1           0        3.364494    4.379045   -0.251354
     31          6           0        2.946305   -0.332441   -0.243012
     32          6           0        3.590740   -1.628570    0.249673
     33          6           0        2.814446   -2.874479   -0.177964
     34          1           0        1.917861   -0.274030    0.139461
     35          1           0        2.871096   -0.361235   -1.338667
     36          1           0        3.664599   -1.596605    1.344269
     37          1           0        4.618126   -1.683854   -0.132476
     38          1           0        2.752221   -2.933859   -1.269387
     39          1           0        1.793277   -2.846114    0.215749
     40          1           0        3.292643   -3.789649    0.184874
 ---------------------------------------------------------------------

 SCF Done:  E(RHF) =  -470.733142823     A.U. after   11 cycles
 E2 =    -0.1582820737D+01 EUMP2 =    -0.47231596356066D+03

 The electronic state is 1-A.
 Alpha  occ. eigenvalues --  -11.21640 -11.21624 -11.21611 -11.21578 -11.21422
 Alpha  occ. eigenvalues --  -11.21414 -11.21363 -11.21355 -11.21087 -11.21080
 Alpha  occ. eigenvalues --  -11.21068 -11.20980  -1.08452  -1.08428  -1.03563
 Alpha  occ. eigenvalues --   -1.03507  -0.96028  -0.95939  -0.87068  -0.86932
 Alpha  occ. eigenvalues --   -0.79647  -0.79550  -0.78264  -0.78244  -0.65118
 Alpha  occ. eigenvalues --   -0.65027  -0.61020  -0.60872  -0.59421  -0.59303
 Alpha  occ. eigenvalues --   -0.57686  -0.57515  -0.55340  -0.55206  -0.52813
 Alpha  occ. eigenvalues --   -0.52655  -0.52447  -0.52264  -0.50001  -0.49821
 Alpha  occ. eigenvalues --   -0.47952  -0.47856  -0.46644  -0.46603  -0.45847
 Alpha  occ. eigenvalues --   -0.45764  -0.45762  -0.45644  -0.43781  -0.43775
 Alpha virt. eigenvalues --    0.20697   0.23220   0.23492   0.24948   0.25752
 Alpha virt. eigenvalues --    0.26767   0.26835   0.27255   0.28345   0.29197
 Alpha virt. eigenvalues --    0.30089   0.31162   0.31472   0.31825   0.32030

 Mulliken charges:
               1
     1  C   -0.298282
     2  C   -0.299693
     3  C   -0.475723
     4  H    0.149616
     5  H    0.149376
     6  H    0.151974
     7  H    0.152080
     8  H    0.155191
     9  H    0.155159
    10  H    0.160317
    11  C   -0.298386
    12  C   -0.301893
    13  C   -0.479032
    14  H    0.149766
    15  H    0.150115
    16  H    0.151991
    17  H    0.152515
    18  H    0.156820
    19  H    0.155506
    20  H    0.163113
    21  C   -0.298244
    22  C   -0.299545
    23  C   -0.475701
    24  H    0.149739
    25  H    0.149726
    26  H    0.151367
    27  H    0.151868
    28  H    0.155293
    29  H    0.155279
    30  H    0.160205
    31  C   -0.300110
    32  C   -0.299259
    33  C   -0.482222
    34  H    0.150684
    35  H    0.149485
    36  H    0.151612
    37  H    0.151771
    38  H    0.154771
    39  H    0.163106
    40  H    0.159647
 Sum of Mulliken charges =  -0.00000

 Dipole moment (field-independent basis, Debye):
    X=             -0.0235    Y=             -0.0139    Z=             -0.0076  Tot=              0.0284
 Quadrupole moment (field-independent basis, Debye-Ang):
   XX=            -84.5302   YY=            -86.2692   ZZ=            -83.9553
   XY=              0.4769   XZ=             -0.7401   YZ=             -0.7814

 Normal termination of Gaussian 16 at Thu May  6 05:35:39 2021.
