 Gaussian 16, Revision A.03,
 Gaussian 16:  EM64L-G16RevA.03 25-Dec-2016

 -------------
 #p 6-31g* mp2
 -------------

 ------------------------------------------------------
 Input file generated by CHIRIPA (05-May-2021 14:53:16)
 ------------------------------------------------------
 Symbolic Z-matrix:
 Charge =  0 Multiplicity = 1

                         Standard orientation:
 ---------------------------------------------------------------------
 Center     Atomic      Atomic             Coordinates (Angstroms)
 Number     Number       Type             X           Y           Z
 ---------------------------------------------------------------------
      1          6           0        2.876604    0.756292    0.420734
      2          6           0        2.731091    2.257080    0.674593
      3          6           0        1.374091    2.626297    1.274613
      4          1           0        2.074086    0.425255   -0.252560
      5          1           0        2.733703    0.215919    1.366763
      6          1           0        2.875596    2.794550   -0.271378
      7          1           0        3.534162    2.584619    1.347207
      8          1           0        1.224412    2.116164    2.231672
      9          1           0        0.562103    2.327288    0.603890
     10          1           0        1.291557    3.703796    1.447947
     11          6           0        4.227910    0.371535   -0.178986
     12          6           0        4.373423   -1.129254   -0.432845
     13          6           0        5.730423   -1.498471   -1.032865
     14          1           0        4.370812    0.911908   -1.125015
     15          1           0        5.030428    0.702571    0.494308
     16          1           0        3.570352   -1.456792   -1.105459
     17          1           0        4.228919   -1.666723    0.513126
     18          1           0        6.542411   -1.199461   -0.362142
     19          1           0        5.880102   -0.988337   -1.989924
     20          1           0        5.812958   -2.575970   -1.206199
     21          6           0       -1.085715   -2.084902    0.804283
     22          6           0       -2.395608   -2.088541    1.294881
     23          6           0       -3.340062   -1.181991    0.804249
     24          6           0       -2.938534   -0.281588   -0.181318
     25          6           0       -1.641063   -0.253189   -0.690290
     26          6           0       -0.713280   -1.168853   -0.184993
     27          1           0       -0.358515   -2.792671    1.191114
     28          1           0       -2.687664   -2.798822    2.063159
     29          1           0       -4.360851   -1.162948    1.166249
     30          1           0       -1.379615    0.466821   -1.456220
     31          1           0        0.303298   -1.163735   -0.567864
     32          7           0       -3.929562    0.682960   -0.708490
     33          8           0       -3.550751    1.466112   -1.576714
     34          8           0       -5.066374    0.637557   -0.243483
 ---------------------------------------------------------------------

 SCF Done:  E(RHF) =  -669.535449484     A.U. after   15 cycles
 E2 =    -0.2091928538D+01 EUMP2 =    -0.67162737802256D+03

 The electronic state is 1-A.
 Alpha  occ. eigenvalues --  -20.60745 -20.60740 -15.85799 -11.31167 -11.27734
 Alpha  occ. eigenvalues --  -11.27727 -11.27456 -11.26750 -11.26712 -11.22418
 Alpha  occ. eigenvalues --  -11.22195 -11.22091 -11.22058 -11.21700 -11.21398
 Alpha  occ. eigenvalues --   -1.59820  -1.39374  -1.19334  -1.09125  -1.08724
 Alpha  occ. eigenvalues --   -1.04739  -1.04128  -0.96562  -0.95562  -0.87575
 Alpha  occ. eigenvalues --   -0.86134  -0.82401  -0.80205  -0.78981  -0.77438
 Alpha  occ. eigenvalues --   -0.72017  -0.71143  -0.70438  -0.65790  -0.64985
 Alpha  occ. eigenvalues --   -0.64728  -0.62104  -0.61513  -0.59937  -0.58181
 Alpha  occ. eigenvalues --   -0.55850  -0.55232  -0.53231  -0.53075  -0.53059
 Alpha  occ. eigenvalues --   -0.52750  -0.50498  -0.48779  -0.48772  -0.48510
 Alpha  occ. eigenvalues --   -0.47249  -0.46468  -0.46410  -0.44779  -0.44409
 Alpha  occ. eigenvalues --   -0.37303  -0.36318
 Alpha virt. eigenvalues --    0.05062   0.11269   0.16479   0.19668   0.22737
 Alpha virt. eigenvalues --    0.23553   0.24538   0.26220   0.27051   0.28392
 Alpha virt. eigenvalues --    0.29192   0.30829   0.31198   0.31361   0.31690

 Mulliken charges:
               1
     1  C   -0.300255
     2  C   -0.300564
     3  C   -0.476050
     4  H    0.141883
     5  H    0.148969
     6  H    0.154024
     7  H    0.154008
     8  H    0.155179
     9  H    0.155328
    10  H    0.164082
    11  C   -0.298343
    12  C   -0.300213
    13  C   -0.475817
    14  H    0.152049
    15  H    0.152947
    16  H    0.145735
    17  H    0.150452
    18  H    0.157548
    19  H    0.157409
    20  H    0.161008
    21  C   -0.172249
    22  C   -0.218297
    23  C   -0.171056
    24  C    0.158805
    25  C   -0.173138
    26  C   -0.218803
    27  H    0.226011
    28  H    0.223289
    29  H    0.275525
    30  H    0.274782
    31  H    0.228646
    32  N    0.488165
    33  O   -0.460615
    34  O   -0.460444
 Sum of Mulliken charges =  -0.00000

 Dipole moment (field-independent basis, Debye):
    X=              3.6238    Y=             -3.3241    Z=              1.9121  Tot=              5.2762
 Quadrupole moment (field-independent basis, Debye-Ang):
   XX=           -113.2863   YY=            -92.6478   ZZ=            -93.3456
   XY=             11.1160   XZ=             -7.8452   YZ=             -1.5608

 Normal termination of Gaussian 16 at Thu May  6 15:33:07 2021.
