 Gaussian 16, Revision A.03,
 Gaussian 16:  EM64L-G16RevA.03 25-Dec-2016

 -------------
 #p 6-31g* mp2
 -------------

 ------------------------------------------------------
 Input file generated by CHIRIPA (05-May-2021 14:51:10)
 ------------------------------------------------------
 Symbolic Z-matrix:
 Charge =  0 Multiplicity = 1

                         Standard orientation:
 ---------------------------------------------------------------------
 Center     Atomic      Atomic             Coordinates (Angstroms)
 Number     Number       Type             X           Y           Z
 ---------------------------------------------------------------------
      1          6           0       -4.380400    0.172557    0.140842
      2          6           0       -4.610789    1.588335   -0.388761
      3          6           0       -6.080106    2.007851   -0.334836
      4          1           0       -4.986495   -0.533634   -0.443014
      5          1           0       -4.741987    0.112711    1.176732
      6          1           0       -4.247611    1.645870   -1.422882
      7          1           0       -4.003929    2.291215    0.196300
      8          1           0       -6.451518    1.978734    0.694633
      9          1           0       -6.696585    1.329722   -0.933749
     10          1           0       -6.222060    3.023134   -0.718126
     11          6           0       -2.916396   -0.261231    0.093405
     12          6           0       -2.686007   -1.677009    0.623008
     13          6           0       -1.216690   -2.096525    0.569083
     14          1           0       -2.554809   -0.201385   -0.942485
     15          1           0       -2.310301    0.444960    0.677261
     16          1           0       -3.292868   -2.379889    0.037948
     17          1           0       -3.049185   -1.734544    1.657129
     18          1           0       -0.600211   -1.418396    1.167996
     19          1           0       -0.845278   -2.067408   -0.460386
     20          1           0       -1.074736   -3.111808    0.952373
     21          6           0        3.647231   -0.701513   -0.281861
     22          6           0        2.250150   -1.322817   -0.270500
     23          6           0        2.264231   -2.815385   -0.601914
     24          1           0        4.101745   -0.854837   -1.270220
     25          1           0        4.282905   -1.232415    0.440258
     26          1           0        1.616910   -0.790004   -0.991426
     27          1           0        1.798834   -1.167828    0.717887
     28          1           0        2.873160   -3.365233    0.122983
     29          1           0        2.690201   -2.985262   -1.596042
     30          1           0        1.255249   -3.239208   -0.588208
     31          6           0        3.649565    0.790186    0.047613
     32          6           0        5.046647    1.411491    0.036253
     33          6           0        5.032565    2.904060    0.367666
     34          1           0        3.013891    1.321089   -0.674506
     35          1           0        3.195052    0.943511    1.035973
     36          1           0        5.497962    1.256501   -0.952134
     37          1           0        5.679886    0.878678    0.757180
     38          1           0        4.606594    3.073937    1.361795
     39          1           0        4.423637    3.453907   -0.357231
     40          1           0        6.041547    3.327882    0.353960
 ---------------------------------------------------------------------

 SCF Done:  E(RHF) =  -470.731875311     A.U. after   11 cycles
 E2 =    -0.1583632664D+01 EUMP2 =    -0.47231550797462D+03

 The electronic state is 1-A.
 Alpha  occ. eigenvalues --  -11.21601 -11.21575 -11.21567 -11.21460 -11.21401
 Alpha  occ. eigenvalues --  -11.21343 -11.21341 -11.21270 -11.21071 -11.21048
 Alpha  occ. eigenvalues --  -11.21021 -11.20891  -1.08432  -1.08354  -1.03575
 Alpha  occ. eigenvalues --   -1.03407  -0.96064  -0.95825  -0.87042  -0.86885
 Alpha  occ. eigenvalues --   -0.79676  -0.79462  -0.78283  -0.78119  -0.65077
 Alpha  occ. eigenvalues --   -0.64979  -0.61010  -0.60790  -0.59406  -0.59274
 Alpha  occ. eigenvalues --   -0.57794  -0.57338  -0.55327  -0.55147  -0.52880
 Alpha  occ. eigenvalues --   -0.52522  -0.52425  -0.52119  -0.49969  -0.49810
 Alpha  occ. eigenvalues --   -0.48023  -0.47706  -0.46730  -0.46435  -0.45866
 Alpha  occ. eigenvalues --   -0.45727  -0.45629  -0.45518  -0.43838  -0.43629
 Alpha virt. eigenvalues --    0.22120   0.23049   0.23523   0.24899   0.25759
 Alpha virt. eigenvalues --    0.26672   0.26991   0.27406   0.27868   0.29324
 Alpha virt. eigenvalues --    0.29986   0.30952   0.31370   0.31661   0.32592

 Mulliken charges:
               1
     1  C   -0.298235
     2  C   -0.299616
     3  C   -0.475698
     4  H    0.149620
     5  H    0.149518
     6  H    0.151838
     7  H    0.151976
     8  H    0.155183
     9  H    0.155165
    10  H    0.160243
    11  C   -0.298282
    12  C   -0.300584
    13  C   -0.477919
    14  H    0.149278
    15  H    0.149726
    16  H    0.151560
    17  H    0.151514
    18  H    0.158200
    19  H    0.158003
    20  H    0.159548
    21  C   -0.298205
    22  C   -0.299256
    23  C   -0.481517
    24  H    0.149119
    25  H    0.149109
    26  H    0.150856
    27  H    0.154441
    28  H    0.154194
    29  H    0.153793
    30  H    0.167369
    31  C   -0.298060
    32  C   -0.299537
    33  C   -0.475649
    34  H    0.149377
    35  H    0.148956
    36  H    0.151904
    37  H    0.151842
    38  H    0.154985
    39  H    0.155107
    40  H    0.160136
 Sum of Mulliken charges =  -0.00000

 Dipole moment (field-independent basis, Debye):
    X=             -0.0345    Y=             -0.0095    Z=              0.0122  Tot=              0.0378
 Quadrupole moment (field-independent basis, Debye-Ang):
   XX=            -86.1575   YY=            -86.0263   ZZ=            -82.9442
   XY=              0.3416   XZ=              0.2354   YZ=             -0.1079

 Normal termination of Gaussian 16 at Wed May  5 16:40:43 2021.
