 Gaussian 16, Revision A.03,
 Gaussian 16:  EM64L-G16RevA.03 25-Dec-2016

 -------------
 #p 6-31g* mp2
 -------------

 ------------------------------------------------------
 Input file generated by CHIRIPA (05-May-2021 14:51:11)
 ------------------------------------------------------
 Symbolic Z-matrix:
 Charge =  0 Multiplicity = 1

                         Standard orientation:
 ---------------------------------------------------------------------
 Center     Atomic      Atomic             Coordinates (Angstroms)
 Number     Number       Type             X           Y           Z
 ---------------------------------------------------------------------
      1          6           0       -3.424411    0.364501   -0.284275
      2          6           0       -2.243072    0.587340    0.660588
      3          6           0       -1.108843    1.381370    0.011869
      4          1           0       -3.073236   -0.162005   -1.182279
      5          1           0       -3.803993    1.338925   -0.621633
      6          1           0       -1.866708   -0.387181    0.997151
      7          1           0       -2.597136    1.113208    1.556533
      8          1           0       -1.462525    2.366728   -0.308412
      9          1           0       -0.727947    0.857814   -0.870972
     10          1           0       -0.274702    1.529084    0.704869
     11          6           0       -4.566274   -0.427807    0.349858
     12          6           0       -5.747613   -0.650646   -0.595004
     13          6           0       -6.881841   -1.444676    0.053715
     14          1           0       -4.186692   -1.402231    0.687216
     15          1           0       -4.917449    0.098699    1.247863
     16          1           0       -5.393548   -1.176514   -1.490949
     17          1           0       -6.123977    0.323875   -0.931568
     18          1           0       -7.262738   -0.921120    0.936556
     19          1           0       -6.528159   -2.430034    0.373996
     20          1           0       -7.715983   -1.592391   -0.639285
     21          6           0        4.031493   -0.727308    0.045331
     22          6           0        5.444166   -1.287618   -0.123176
     23          6           0        5.500250   -2.807270    0.035908
     24          1           0        3.648266   -1.008103    1.035905
     25          1           0        3.367150   -1.198863   -0.692014
     26          1           0        6.105939   -0.814129    0.613356
     27          1           0        5.824147   -1.005293   -1.113390
     28          1           0        4.863011   -3.296267   -0.708007
     29          1           0        5.146405   -3.104016    1.028549
     30          1           0        6.519325   -3.186603   -0.088402
     31          6           0        3.959192    0.790614   -0.110915
     32          6           0        2.546520    1.350924    0.057593
     33          6           0        2.490434    2.870576   -0.101491
     34          1           0        4.623534    1.262169    0.626432
     35          1           0        4.342418    1.071410   -1.101489
     36          1           0        2.166539    1.068599    1.047806
     37          1           0        1.884746    0.877435   -0.678939
     38          1           0        2.844280    3.167323   -1.094132
     39          1           0        3.127673    3.359572    0.642424
     40          1           0        1.471360    3.249909    0.022819
 ---------------------------------------------------------------------

 SCF Done:  E(RHF) =  -470.732030464     A.U. after   11 cycles
 E2 =    -0.1583435415D+01 EUMP2 =    -0.47231546587883D+03

 The electronic state is 1-A.
 Alpha  occ. eigenvalues --  -11.21593 -11.21584 -11.21565 -11.21503 -11.21389
 Alpha  occ. eigenvalues --  -11.21367 -11.21329 -11.21298 -11.21065 -11.21062
 Alpha  occ. eigenvalues --  -11.20975 -11.20970  -1.08426  -1.08378  -1.03573
 Alpha  occ. eigenvalues --   -1.03430  -0.96049  -0.95854  -0.86998  -0.86942
 Alpha  occ. eigenvalues --   -0.79694  -0.79460  -0.78257  -0.78170  -0.65063
 Alpha  occ. eigenvalues --   -0.65007  -0.60972  -0.60834  -0.59746  -0.59025
 Alpha  occ. eigenvalues --   -0.57733  -0.57344  -0.55289  -0.55192  -0.52832
 Alpha  occ. eigenvalues --   -0.52510  -0.52387  -0.52214  -0.49978  -0.49837
 Alpha  occ. eigenvalues --   -0.47936  -0.47829  -0.46706  -0.46485  -0.45797
 Alpha  occ. eigenvalues --   -0.45752  -0.45693  -0.45582  -0.43749  -0.43697
 Alpha virt. eigenvalues --    0.22133   0.23043   0.23514   0.24960   0.25929
 Alpha virt. eigenvalues --    0.26666   0.26829   0.27561   0.27686   0.29115
 Alpha virt. eigenvalues --    0.29865   0.30767   0.31355   0.31926   0.32342

 Mulliken charges:
               1
     1  C   -0.298676
     2  C   -0.299996
     3  C   -0.480015
     4  H    0.149432
     5  H    0.149422
     6  H    0.151861
     7  H    0.151493
     8  H    0.153702
     9  H    0.155014
    10  H    0.169024
    11  C   -0.298211
    12  C   -0.299582
    13  C   -0.475683
    14  H    0.149478
    15  H    0.149586
    16  H    0.151862
    17  H    0.151891
    18  H    0.155159
    19  H    0.155164
    20  H    0.160209
    21  C   -0.298115
    22  C   -0.299584
    23  C   -0.475660
    24  H    0.149386
    25  H    0.149069
    26  H    0.151935
    27  H    0.151905
    28  H    0.155027
    29  H    0.155096
    30  H    0.160205
    31  C   -0.297795
    32  C   -0.302037
    33  C   -0.479877
    34  H    0.149071
    35  H    0.149373
    36  H    0.149923
    37  H    0.156653
    38  H    0.154960
    39  H    0.154402
    40  H    0.164927
 Sum of Mulliken charges =  -0.00000

 Dipole moment (field-independent basis, Debye):
    X=             -0.0083    Y=              0.0072    Z=             -0.0040  Tot=              0.0117
 Quadrupole moment (field-independent basis, Debye-Ang):
   XX=            -85.7478   YY=            -85.5579   ZZ=            -83.7803
   XY=             -0.6599   XZ=              0.2768   YZ=              0.6878

 Normal termination of Gaussian 16 at Thu May  6 05:26:39 2021.
