 Gaussian 16, Revision A.03,
 Gaussian 16:  EM64L-G16RevA.03 25-Dec-2016

 -------------
 #p 6-31g* mp2
 -------------

 ------------------------------------------------------
 Input file generated by CHIRIPA (05-May-2021 14:51:09)
 ------------------------------------------------------
 Symbolic Z-matrix:
 Charge =  0 Multiplicity = 1

                         Standard orientation:
 ---------------------------------------------------------------------
 Center     Atomic      Atomic             Coordinates (Angstroms)
 Number     Number       Type             X           Y           Z
 ---------------------------------------------------------------------
      1          6           0        3.075738    0.151739    0.431912
      2          6           0        1.868479   -0.716597    0.076237
      3          6           0        0.573264   -0.220323    0.719605
      4          1           0        3.192954    0.175957    1.523983
      5          1           0        2.880820    1.185789    0.115461
      6          1           0        2.066184   -1.748979    0.392017
      7          1           0        1.754239   -0.738906   -1.015123
      8          1           0        0.348926    0.801097    0.395607
      9          1           0        0.662644   -0.214714    1.810743
     10          1           0       -0.276919   -0.855536    0.452112
     11          6           0        4.378014   -0.331675   -0.203790
     12          6           0        5.585273    0.536660    0.151884
     13          6           0        6.880489    0.040386   -0.491484
     14          1           0        4.572933   -1.365726    0.112660
     15          1           0        4.260799   -0.355893   -1.295861
     16          1           0        5.699514    0.558969    1.243244
     17          1           0        5.387568    1.569042   -0.163896
     18          1           0        6.791109    0.034778   -1.582622
     19          1           0        7.104827   -0.981034   -0.167486
     20          1           0        7.730672    0.675599   -0.223991
     21          6           0       -3.426673    0.744079   -0.369892
     22          6           0       -4.054972    1.987207    0.260870
     23          6           0       -3.443887    3.287979   -0.261014
     24          1           0       -2.345730    0.747652   -0.173695
     25          1           0       -3.546479    0.794687   -1.460983
     26          1           0       -3.935237    1.933598    1.350551
     27          1           0       -5.134575    1.980576    0.063313
     28          1           0       -3.576208    3.368125   -1.344835
     29          1           0       -2.370057    3.320879   -0.050282
     30          1           0       -3.907690    4.163969    0.203087
     31          6           0       -4.027079   -0.564142    0.141770
     32          6           0       -3.398782   -1.807270   -0.488991
     33          6           0       -4.009866   -3.108043    0.032893
     34          1           0       -3.907274   -0.614750    1.232862
     35          1           0       -5.108022   -0.567715   -0.054426
     36          1           0       -2.319178   -1.800639   -0.291434
     37          1           0       -3.518515   -1.753662   -1.578672
     38          1           0       -5.083696   -3.140943   -0.177839
     39          1           0       -3.877544   -3.188187    1.116714
     40          1           0       -3.546063   -3.984031   -0.431207
 ---------------------------------------------------------------------

 SCF Done:  E(RHF) =  -470.732963384     A.U. after   11 cycles
 E2 =    -0.1583254812D+01 EUMP2 =    -0.47231621819536D+03

 The electronic state is 1-A.
 Alpha  occ. eigenvalues --  -11.21660 -11.21623 -11.21582 -11.21539 -11.21442
 Alpha  occ. eigenvalues --  -11.21381 -11.21337 -11.21248 -11.21155 -11.21087
 Alpha  occ. eigenvalues --  -11.21058 -11.21038  -1.08472  -1.08376  -1.03578
 Alpha  occ. eigenvalues --   -1.03493  -0.96038  -0.95934  -0.87056  -0.86956
 Alpha  occ. eigenvalues --   -0.79651  -0.79559  -0.78288  -0.78177  -0.65115
 Alpha  occ. eigenvalues --   -0.65017  -0.60988  -0.60904  -0.59440  -0.59268
 Alpha  occ. eigenvalues --   -0.57639  -0.57550  -0.55353  -0.55194  -0.52802
 Alpha  occ. eigenvalues --   -0.52606  -0.52478  -0.52346  -0.50013  -0.49850
 Alpha  occ. eigenvalues --   -0.48035  -0.47813  -0.46711  -0.46559  -0.45832
 Alpha  occ. eigenvalues --   -0.45780  -0.45703  -0.45602  -0.43774  -0.43701
 Alpha virt. eigenvalues --    0.21191   0.23028   0.23670   0.24255   0.25986
 Alpha virt. eigenvalues --    0.26648   0.27135   0.27350   0.27873   0.29030
 Alpha virt. eigenvalues --    0.29731   0.31565   0.31725   0.31910   0.32199

 Mulliken charges:
               1
     1  C   -0.298876
     2  C   -0.298958
     3  C   -0.485897
     4  H    0.149690
     5  H    0.149723
     6  H    0.152075
     7  H    0.152623
     8  H    0.156030
     9  H    0.155490
    10  H    0.168561
    11  C   -0.298301
    12  C   -0.299681
    13  C   -0.475731
    14  H    0.149599
    15  H    0.149820
    16  H    0.151956
    17  H    0.152016
    18  H    0.155250
    19  H    0.155210
    20  H    0.160338
    21  C   -0.305531
    22  C   -0.299242
    23  C   -0.475635
    24  H    0.158383
    25  H    0.148597
    26  H    0.151966
    27  H    0.151546
    28  H    0.154959
    29  H    0.154682
    30  H    0.160105
    31  C   -0.297463
    32  C   -0.307223
    33  C   -0.475179
    34  H    0.149472
    35  H    0.149454
    36  H    0.157630
    37  H    0.152064
    38  H    0.155293
    39  H    0.155168
    40  H    0.160018
 Sum of Mulliken charges =  -0.00000

 Dipole moment (field-independent basis, Debye):
    X=              0.0440    Y=             -0.0091    Z=              0.0056  Tot=              0.0453
 Quadrupole moment (field-independent basis, Debye-Ang):
   XX=            -85.5242   YY=            -85.6096   ZZ=            -83.7792
   XY=             -0.2207   XZ=              1.1397   YZ=             -0.3190

 Normal termination of Gaussian 16 at Wed May  5 19:43:28 2021.
