 Gaussian 16, Revision A.03,
 Gaussian 16:  EM64L-G16RevA.03 25-Dec-2016

 -------------
 #p 6-31g* mp2
 -------------

 ------------------------------------------------------
 Input file generated by CHIRIPA (05-May-2021 14:57:23)
 ------------------------------------------------------
 Symbolic Z-matrix:
 Charge =  0 Multiplicity = 1

                         Standard orientation:
 ---------------------------------------------------------------------
 Center     Atomic      Atomic             Coordinates (Angstroms)
 Number     Number       Type             X           Y           Z
 ---------------------------------------------------------------------
      1          6           0       -1.349179   -1.668372    1.714810
      2          6           0       -1.428107   -0.288424    1.929369
      3          6           0       -2.209827    0.516262    1.095138
      4          6           0       -2.902564   -0.094951    0.051191
      5          6           0       -2.844152   -1.467000   -0.188303
      6          6           0       -2.056208   -2.252227    0.658521
      7          1           0       -0.739503   -2.285913    2.367752
      8          1           0       -0.880101    0.167733    2.748914
      9          1           0       -2.288776    1.587065    1.238544
     10          1           0       -3.401827   -1.892968   -1.013511
     11          1           0       -1.996782   -3.323651    0.489513
     12          7           0       -3.733432    0.746634   -0.838638
     13          8           0       -4.334113    0.183880   -1.751396
     14          8           0       -3.768251    1.953086   -0.606479
     15          6           0        2.139652    2.605529    0.392309
     16          6           0        1.141099    1.644605    0.202479
     17          6           0        1.476326    0.327382   -0.124775
     18          6           0        2.826145    0.004349   -0.254899
     19          6           0        3.844004    0.939134   -0.072062
     20          6           0        3.485545    2.250354    0.254676
     21          1           0        1.870216    3.626449    0.646328
     22          1           0        0.095041    1.917587    0.308720
     23          1           0        0.723554   -0.436484   -0.277288
     24          1           0        4.878122    0.636958   -0.184794
     25          1           0        4.263160    2.994530    0.401517
     26          7           0        3.193332   -1.386958   -0.601075
     27          8           0        4.389822   -1.646176   -0.709952
     28          8           0        2.277691   -2.191901   -0.756976
 ---------------------------------------------------------------------

 SCF Done:  E(RHF) =  -868.337208295     A.U. after   16 cycles
 E2 =    -0.2603446795D+01 EUMP2 =    -0.87094065509038D+03

 The electronic state is 1-A.
 Alpha  occ. eigenvalues --  -20.61375 -20.61342 -20.61098 -20.61071 -15.86416
 Alpha  occ. eigenvalues --  -15.86137 -11.31880 -11.31379 -11.28461 -11.28304
 Alpha  occ. eigenvalues --  -11.27997 -11.27963 -11.27865 -11.27674 -11.27429
 Alpha  occ. eigenvalues --  -11.27295 -11.26944 -11.26860  -1.60435  -1.60165
 Alpha  occ. eigenvalues --   -1.39987  -1.39721  -1.20040  -1.19552  -1.09365
 Alpha  occ. eigenvalues --   -1.08977  -1.05461  -1.04900  -0.96196  -0.95823
 Alpha  occ. eigenvalues --   -0.86783  -0.86339  -0.83034  -0.82642  -0.78109
 Alpha  occ. eigenvalues --   -0.77705  -0.72621  -0.72360  -0.71769  -0.71490
 Alpha  occ. eigenvalues --   -0.71039  -0.70662  -0.65649  -0.65364  -0.65202
 Alpha  occ. eigenvalues --   -0.64931  -0.62783  -0.62282  -0.55795  -0.55493
 Alpha  occ. eigenvalues --   -0.53720  -0.53466  -0.53212  -0.53000  -0.49393
 Alpha  occ. eigenvalues --   -0.49374  -0.49115  -0.49102  -0.45371  -0.45154
 Alpha  occ. eigenvalues --   -0.38037  -0.37561  -0.37219  -0.36219
 Alpha virt. eigenvalues --    0.04400   0.04779   0.10479   0.11103   0.15754
 Alpha virt. eigenvalues --    0.16501   0.20396   0.21805   0.25822   0.27419
 Alpha virt. eigenvalues --    0.28033   0.28543   0.30294   0.31210   0.31848

 Mulliken charges:
               1
     1  C   -0.173451
     2  C   -0.217905
     3  C   -0.188790
     4  C    0.160054
     5  C   -0.172291
     6  C   -0.214122
     7  H    0.233819
     8  H    0.226718
     9  H    0.271820
    10  H    0.279708
    11  H    0.232670
    12  N    0.488542
    13  O   -0.455561
    14  O   -0.463083
    15  C   -0.171706
    16  C   -0.223768
    17  C   -0.175547
    18  C    0.155739
    19  C   -0.170998
    20  C   -0.219197
    21  H    0.226999
    22  H    0.225546
    23  H    0.280920
    24  H    0.275501
    25  H    0.223963
    26  N    0.488116
    27  O   -0.459601
    28  O   -0.464093
 Sum of Mulliken charges =  -0.00000

 Dipole moment (field-independent basis, Debye):
    X=              1.4582    Y=              1.6386    Z=              4.3667  Tot=              4.8866
 Quadrupole moment (field-independent basis, Debye-Ang):
   XX=           -124.6227   YY=           -100.8341   ZZ=           -104.8684
   XY=             25.6514   XZ=             -4.1840   YZ=              0.4580

 Normal termination of Gaussian 16 at Fri May  7 06:26:39 2021.
