 Gaussian 16, Revision A.03,
 Gaussian 16:  EM64L-G16RevA.03 25-Dec-2016

 -------------
 #p 6-31g* mp2
 -------------

 ------------------------------------------------------
 Input file generated by CHIRIPA (05-May-2021 14:57:26)
 ------------------------------------------------------
 Symbolic Z-matrix:
 Charge =  0 Multiplicity = 1

                         Standard orientation:
 ---------------------------------------------------------------------
 Center     Atomic      Atomic             Coordinates (Angstroms)
 Number     Number       Type             X           Y           Z
 ---------------------------------------------------------------------
      1          6           0       -2.027503    1.837345    0.056223
      2          6           0       -3.275705    2.265336    0.520267
      3          6           0       -4.378829    1.407200    0.484680
      4          6           0       -4.197153    0.121967   -0.023711
      5          6           0       -2.966330   -0.333784   -0.493450
      6          6           0       -1.877065    0.541435   -0.448265
      7          1           0       -1.175953    2.510601    0.087595
      8          1           0       -3.395477    3.271210    0.912592
      9          1           0       -5.356431    1.712655    0.837399
     10          1           0       -2.877916   -1.342252   -0.878927
     11          1           0       -0.908878    0.206338   -0.809333
     12          7           0       -5.357645   -0.795545   -0.066466
     13          8           0       -5.171432   -1.922971   -0.519096
     14          8           0       -6.431478   -0.369894    0.353463
     15          6           0        1.663050   -1.204731    0.112811
     16          6           0        2.507306   -1.317584    1.222323
     17          6           0        3.807364   -0.805108    1.180308
     18          6           0        4.232387   -0.183127    0.007370
     19          6           0        3.414991   -0.055148   -1.114582
     20          6           0        2.118783   -0.574984   -1.050050
     21          1           0        0.654629   -1.605694    0.154196
     22          1           0        2.156064   -1.806150    2.126743
     23          1           0        4.481923   -0.878763    2.024680
     24          1           0        3.793424    0.437192   -2.002166
     25          1           0        1.465320   -0.485903   -1.913239
     26          7           0        5.606662    0.363305   -0.049029
     27          8           0        5.957218    0.906786   -1.094197
     28          8           0        6.307242    0.237771    0.953002
 ---------------------------------------------------------------------

 SCF Done:  E(RHF) =  -868.336675854     A.U. after   16 cycles
 E2 =    -0.2600496505D+01 EUMP2 =    -0.87093717235863D+03

 The electronic state is 1-A.
 Alpha  occ. eigenvalues --  -20.61379 -20.61371 -20.61363 -20.61351 -15.86437
 Alpha  occ. eigenvalues --  -15.86420 -11.31954 -11.31882 -11.28577 -11.28544
 Alpha  occ. eigenvalues --  -11.28510 -11.28432 -11.28365 -11.28203 -11.27685
 Alpha  occ. eigenvalues --  -11.27574 -11.27538 -11.27427  -1.60450  -1.60434
 Alpha  occ. eigenvalues --   -1.39999  -1.39986  -1.20159  -1.20071  -1.09547
 Alpha  occ. eigenvalues --   -1.09429  -1.05583  -1.05504  -0.96342  -0.96252
 Alpha  occ. eigenvalues --   -0.87023  -0.86853  -0.83178  -0.83085  -0.78204
 Alpha  occ. eigenvalues --   -0.78113  -0.72653  -0.72632  -0.71777  -0.71761
 Alpha  occ. eigenvalues --   -0.71308  -0.71144  -0.65902  -0.65724  -0.65722
 Alpha  occ. eigenvalues --   -0.65327  -0.62984  -0.62774  -0.56143  -0.55931
 Alpha  occ. eigenvalues --   -0.53976  -0.53804  -0.53689  -0.53495  -0.49425
 Alpha  occ. eigenvalues --   -0.49403  -0.49393  -0.49383  -0.45370  -0.45370
 Alpha  occ. eigenvalues --   -0.38203  -0.37995  -0.37178  -0.37110
 Alpha virt. eigenvalues --    0.04340   0.04422   0.10301   0.10521   0.15688
 Alpha virt. eigenvalues --    0.15938   0.18700   0.21902   0.25062   0.26402
 Alpha virt. eigenvalues --    0.27781   0.28877   0.29802   0.30709   0.31837

 Mulliken charges:
               1
     1  C   -0.171944
     2  C   -0.218416
     3  C   -0.169748
     4  C    0.159360
     5  C   -0.173966
     6  C   -0.223405
     7  H    0.229741
     8  H    0.226607
     9  H    0.278009
    10  H    0.273258
    11  H    0.218977
    12  N    0.488092
    13  O   -0.460643
    14  O   -0.458014
    15  C   -0.172527
    16  C   -0.218849
    17  C   -0.169983
    18  C    0.158698
    19  C   -0.170405
    20  C   -0.224835
    21  H    0.224725
    22  H    0.227695
    23  H    0.278502
    24  H    0.277727
    25  H    0.220412
    26  N    0.487952
    27  O   -0.458977
    28  O   -0.458046
 Sum of Mulliken charges =  -0.00000

 Dipole moment (field-independent basis, Debye):
    X=             -0.6724    Y=              1.4112    Z=              0.5082  Tot=              1.6437
 Quadrupole moment (field-independent basis, Debye-Ang):
   XX=           -177.7773   YY=           -101.0281   ZZ=           -100.3309
   XY=            -23.5032   XZ=             -0.3640   YZ=             -0.1945

 Normal termination of Gaussian 16 at Thu May  6 08:23:04 2021.
