 Gaussian 16, Revision A.03,
 Gaussian 16:  EM64L-G16RevA.03 25-Dec-2016

 -------------
 #p 6-31g* mp2
 -------------

 ------------------------------------------------------
 Input file generated by CHIRIPA (05-May-2021 14:51:08)
 ------------------------------------------------------
 Symbolic Z-matrix:
 Charge =  0 Multiplicity = 1

                         Standard orientation:
 ---------------------------------------------------------------------
 Center     Atomic      Atomic             Coordinates (Angstroms)
 Number     Number       Type             X           Y           Z
 ---------------------------------------------------------------------
      1          6           0       -4.262027   -0.276463    0.301590
      2          6           0       -5.370051    0.298926   -0.581131
      3          6           0       -6.770107   -0.046533   -0.072903
      4          1           0       -4.374938   -1.367898    0.356044
      5          1           0       -4.385051    0.101989    1.325814
      6          1           0       -5.244159   -0.079405   -1.603693
      7          1           0       -5.254375    1.389099   -0.633646
      8          1           0       -6.920352    0.345081    0.938367
      9          1           0       -6.910078   -1.131767   -0.037192
     10          1           0       -7.546898    0.374657   -0.718701
     11          6           0       -2.856643    0.060384   -0.193544
     12          6           0       -1.748619   -0.515005    0.689176
     13          6           0       -0.348563   -0.169546    0.180949
     14          1           0       -2.733619   -0.318068   -1.217768
     15          1           0       -2.743732    1.151819   -0.247999
     16          1           0       -1.864295   -1.605178    0.741691
     17          1           0       -1.874511   -0.136674    1.711738
     18          1           0       -0.208593    0.915689    0.145238
     19          1           0       -0.198319   -0.561159   -0.830321
     20          1           0        0.428227   -0.590736    0.826747
     21          6           0        3.844750    0.810246   -0.148233
     22          6           0        2.839617    1.919974    0.161923
     23          6           0        3.425397    3.319034   -0.031177
     24          1           0        4.726369    0.932282    0.495817
     25          1           0        4.195984    0.922040   -1.183381
     26          1           0        2.489343    1.805298    1.195738
     27          1           0        1.960207    1.795168   -0.482807
     28          1           0        3.758195    3.458032   -1.064873
     29          1           0        4.290337    3.468219    0.623209
     30          1           0        2.689924    4.097072    0.195974
     31          6           0        3.273919   -0.594168    0.040188
     32          6           0        4.279052   -1.703895   -0.269968
     33          6           0        3.693274   -3.102955   -0.076867
     34          1           0        2.922686   -0.705962    1.075336
     35          1           0        2.392301   -0.716204   -0.603863
     36          1           0        5.158464   -1.579090    0.374762
     37          1           0        4.629328   -1.589220   -1.303784
     38          1           0        2.828333   -3.252140   -0.731255
     39          1           0        3.360475   -3.241954    0.956827
     40          1           0        4.428747   -3.880994   -0.304019
 ---------------------------------------------------------------------

 SCF Done:  E(RHF) =  -470.730996018     A.U. after   11 cycles
 E2 =    -0.1584391394D+01 EUMP2 =    -0.47231538741189D+03

 The electronic state is 1-A.
 Alpha  occ. eigenvalues --  -11.21584 -11.21536 -11.21514 -11.21488 -11.21372
 Alpha  occ. eigenvalues --  -11.21314 -11.21312 -11.21225 -11.21059 -11.21048
 Alpha  occ. eigenvalues --  -11.21016 -11.20903  -1.08419  -1.08340  -1.03494
 Alpha  occ. eigenvalues --   -1.03465  -0.95999  -0.95875  -0.87000  -0.86929
 Alpha  occ. eigenvalues --   -0.79658  -0.79537  -0.78296  -0.78019  -0.65034
 Alpha  occ. eigenvalues --   -0.64994  -0.60969  -0.60811  -0.59368  -0.59285
 Alpha  occ. eigenvalues --   -0.57687  -0.57404  -0.55329  -0.55131  -0.52883
 Alpha  occ. eigenvalues --   -0.52574  -0.52396  -0.52190  -0.50025  -0.49764
 Alpha  occ. eigenvalues --   -0.48068  -0.47681  -0.46698  -0.46407  -0.45948
 Alpha  occ. eigenvalues --   -0.45719  -0.45634  -0.45426  -0.43751  -0.43519
 Alpha virt. eigenvalues --    0.22211   0.23050   0.24115   0.24329   0.25505
 Alpha virt. eigenvalues --    0.26290   0.26647   0.27706   0.27887   0.29850
 Alpha virt. eigenvalues --    0.30208   0.31019   0.31629   0.31890   0.32263

 Mulliken charges:
               1
     1  C   -0.298120
     2  C   -0.299554
     3  C   -0.475668
     4  H    0.149577
     5  H    0.149421
     6  H    0.151784
     7  H    0.151829
     8  H    0.155146
     9  H    0.155150
    10  H    0.160160
    11  C   -0.298550
    12  C   -0.300640
    13  C   -0.479791
    14  H    0.149055
    15  H    0.149273
    16  H    0.151350
    17  H    0.151272
    18  H    0.157940
    19  H    0.151897
    20  H    0.167493
    21  C   -0.297748
    22  C   -0.302981
    23  C   -0.475367
    24  H    0.148838
    25  H    0.148803
    26  H    0.151381
    27  H    0.157578
    28  H    0.154837
    29  H    0.154801
    30  H    0.159463
    31  C   -0.303622
    32  C   -0.298733
    33  C   -0.475832
    34  H    0.147999
    35  H    0.159020
    36  H    0.151313
    37  H    0.151449
    38  H    0.154948
    39  H    0.154624
    40  H    0.160207
 Sum of Mulliken charges =  -0.00000

 Dipole moment (field-independent basis, Debye):
    X=              0.0060    Y=             -0.0002    Z=             -0.0056  Tot=              0.0082
 Quadrupole moment (field-independent basis, Debye-Ang):
   XX=            -86.3391   YY=            -85.3739   ZZ=            -83.5848
   XY=             -0.5186   XZ=              0.5527   YZ=              0.6384

 Normal termination of Gaussian 16 at Wed May  5 21:18:28 2021.
