 Gaussian 16, Revision A.03,
 Gaussian 16:  EM64L-G16RevA.03 25-Dec-2016

 -------------
 #p 6-31g* mp2
 -------------

 ------------------------------------------------------
 Input file generated by CHIRIPA (05-May-2021 14:51:13)
 ------------------------------------------------------
 Symbolic Z-matrix:
 Charge =  0 Multiplicity = 1

                         Standard orientation:
 ---------------------------------------------------------------------
 Center     Atomic      Atomic             Coordinates (Angstroms)
 Number     Number       Type             X           Y           Z
 ---------------------------------------------------------------------
      1          6           0        2.540809    1.192993   -0.078346
      2          6           0        1.702531    1.625721    1.124992
      3          6           0        1.614810    3.145422    1.268548
      4          1           0        3.551612    1.612668    0.017029
      5          1           0        2.108266    1.624150   -0.991804
      6          1           0        2.135724    1.192743    2.035755
      7          1           0        0.693664    1.204809    1.026837
      8          1           0        1.162307    3.591128    0.376814
      9          1           0        2.612561    3.578993    1.391465
     10          1           0        1.010996    3.432635    2.135022
     11          6           0        2.637857   -0.323486   -0.235193
     12          6           0        3.476135   -0.756214   -1.438531
     13          6           0        3.563857   -2.275915   -1.582087
     14          1           0        3.070400   -0.754643    0.678265
     15          1           0        1.627055   -0.743161   -0.330568
     16          1           0        4.485003   -0.335302   -1.340376
     17          1           0        3.042942   -0.323236   -2.349294
     18          1           0        2.566105   -2.709487   -1.705004
     19          1           0        4.016360   -2.721621   -0.690353
     20          1           0        4.167671   -2.563128   -2.448561
     21          6           0       -3.214276   -0.279612   -0.254094
     22          6           0       -2.938660    0.615836   -1.462479
     23          6           0       -4.198637    0.917291   -2.274499
     24          1           0       -3.664329   -1.220851   -0.598283
     25          1           0       -3.959808    0.205871    0.390796
     26          1           0       -2.192843    0.129445   -2.104193
     27          1           0       -2.489035    1.554976   -1.115391
     28          1           0       -4.944524    1.424665   -1.654157
     29          1           0       -4.646650   -0.008966   -2.648577
     30          1           0       -3.978710    1.558834   -3.133519
     31          6           0       -1.964390   -0.589895    0.567633
     32          6           0       -2.240006   -1.485343    1.776018
     33          6           0       -0.980029   -1.786798    2.588038
     34          1           0       -1.218858   -1.075377   -0.077257
     35          1           0       -1.514338    0.351344    0.911822
     36          1           0       -2.689631   -2.424483    1.428929
     37          1           0       -2.985823   -0.998951    2.417731
     38          1           0       -0.532017   -0.860541    2.962116
     39          1           0       -0.234142   -2.294172    1.967695
     40          1           0       -1.199956   -2.428341    3.447057
 ---------------------------------------------------------------------

 SCF Done:  E(RHF) =  -470.733206088     A.U. after   11 cycles
 E2 =    -0.1583906425D+01 EUMP2 =    -0.47231711251330D+03

 The electronic state is 1-A.
 Alpha  occ. eigenvalues --  -11.21667 -11.21634 -11.21581 -11.21513 -11.21470
 Alpha  occ. eigenvalues --  -11.21410 -11.21358 -11.21299 -11.21118 -11.21072
 Alpha  occ. eigenvalues --  -11.21054 -11.21051  -1.08498  -1.08382  -1.03571
 Alpha  occ. eigenvalues --   -1.03499  -0.96016  -0.95954  -0.87033  -0.86970
 Alpha  occ. eigenvalues --   -0.79664  -0.79547  -0.78432  -0.78081  -0.65142
 Alpha  occ. eigenvalues --   -0.65011  -0.61004  -0.60870  -0.59408  -0.59300
 Alpha  occ. eigenvalues --   -0.57630  -0.57562  -0.55327  -0.55220  -0.52709
 Alpha  occ. eigenvalues --   -0.52649  -0.52448  -0.52378  -0.49999  -0.49865
 Alpha  occ. eigenvalues --   -0.48067  -0.47854  -0.46802  -0.46580  -0.46223
 Alpha  occ. eigenvalues --   -0.45704  -0.45680  -0.45153  -0.43830  -0.43748
 Alpha virt. eigenvalues --    0.20685   0.23228   0.23535   0.23849   0.25574
 Alpha virt. eigenvalues --    0.26248   0.26735   0.28091   0.28240   0.30016
 Alpha virt. eigenvalues --    0.30449   0.31196   0.31813   0.31953   0.32228

 Mulliken charges:
               1
     1  C   -0.297368
     2  C   -0.309581
     3  C   -0.475380
     4  H    0.149351
     5  H    0.149363
     6  H    0.151705
     7  H    0.161775
     8  H    0.154810
     9  H    0.155266
    10  H    0.159324
    11  C   -0.302099
    12  C   -0.299608
    13  C   -0.475539
    14  H    0.149700
    15  H    0.153154
    16  H    0.151991
    17  H    0.151777
    18  H    0.154337
    19  H    0.155307
    20  H    0.160252
    21  C   -0.297451
    22  C   -0.299842
    23  C   -0.475694
    24  H    0.149913
    25  H    0.149845
    26  H    0.151454
    27  H    0.151704
    28  H    0.155429
    29  H    0.155368
    30  H    0.160383
    31  C   -0.306935
    32  C   -0.299350
    33  C   -0.477700
    34  H    0.151126
    35  H    0.155783
    36  H    0.151977
    37  H    0.151916
    38  H    0.157144
    39  H    0.156322
    40  H    0.160072
 Sum of Mulliken charges =  -0.00000

 Dipole moment (field-independent basis, Debye):
    X=             -0.0368    Y=             -0.0134    Z=              0.0095  Tot=              0.0403
 Quadrupole moment (field-independent basis, Debye-Ang):
   XX=            -84.7349   YY=            -85.4306   ZZ=            -84.6474
   XY=              0.2388   XZ=             -0.1306   YZ=              0.3934

 Normal termination of Gaussian 16 at Wed May  5 19:57:39 2021.
