 Gaussian 16, Revision A.03,
 Gaussian 16:  EM64L-G16RevA.03 25-Dec-2016

 -------------
 #p 6-31g* mp2
 -------------

 ------------------------------------------------------
 Input file generated by CHIRIPA (05-May-2021 14:53:13)
 ------------------------------------------------------
 Symbolic Z-matrix:
 Charge =  0 Multiplicity = 1

                         Standard orientation:
 ---------------------------------------------------------------------
 Center     Atomic      Atomic             Coordinates (Angstroms)
 Number     Number       Type             X           Y           Z
 ---------------------------------------------------------------------
      1          6           0       -3.454266   -0.363289   -0.691361
      2          6           0       -2.036345   -0.610140   -0.175077
      3          6           0       -1.081339   -1.081122   -1.272317
      4          1           0       -3.839469   -1.287883   -1.142682
      5          1           0       -3.419310    0.385650   -1.494644
      6          1           0       -2.074133   -1.357374    0.627936
      7          1           0       -1.654545    0.315095    0.275239
      8          1           0       -1.013979   -0.335079   -2.070742
      9          1           0       -1.435951   -2.017050   -1.716041
     10          1           0       -0.073401   -1.251538   -0.881320
     11          6           0       -4.420650    0.108013    0.393860
     12          6           0       -5.838572    0.354864   -0.122424
     13          6           0       -6.793578    0.825846    0.974816
     14          1           0       -4.455607   -0.640927    1.197143
     15          1           0       -4.035448    1.032606    0.845181
     16          1           0       -6.220372   -0.570371   -0.572740
     17          1           0       -5.800784    1.102097   -0.925437
     18          1           0       -6.438966    1.761773    1.418540
     19          1           0       -6.860938    0.079802    1.773241
     20          1           0       -7.801516    0.996262    0.583820
     21          6           0        2.834455   -2.376752    0.534079
     22          6           0        2.645890   -1.862335   -0.752910
     23          6           0        2.777270   -0.491871   -0.996048
     24          6           0        3.099504    0.339134    0.075814
     25          6           0        3.293573   -0.143145    1.369272
     26          6           0        3.157126   -1.517031    1.589201
     27          1           0        2.730428   -3.442690    0.713939
     28          1           0        2.395230   -2.527642   -1.574239
     29          1           0        2.636755   -0.066937   -1.982508
     30          1           0        3.542713    0.544972    2.167921
     31          1           0        3.304143   -1.913736    2.589730
     32          7           0        3.241273    1.791793   -0.169301
     33          8           0        3.525778    2.502881    0.791973
     34          8           0        3.065201    2.191794   -1.318056
 ---------------------------------------------------------------------

 SCF Done:  E(RHF) =  -669.534761298     A.U. after   15 cycles
 E2 =    -0.2092336602D+01 EUMP2 =    -0.67162709790087D+03

 The electronic state is 1-A.
 Alpha  occ. eigenvalues --  -20.60809 -20.60804 -15.85863 -11.31247 -11.27814
 Alpha  occ. eigenvalues --  -11.27806 -11.27564 -11.26835 -11.26811 -11.21691
 Alpha  occ. eigenvalues --  -11.21610 -11.21439 -11.21375 -11.21133 -11.21070
 Alpha  occ. eigenvalues --   -1.59884  -1.39437  -1.19436  -1.08821  -1.08470
 Alpha  occ. eigenvalues --   -1.04847  -1.03580  -0.96041  -0.95647  -0.87069
 Alpha  occ. eigenvalues --   -0.86226  -0.82481  -0.79656  -0.78283  -0.77521
 Alpha  occ. eigenvalues --   -0.72081  -0.71208  -0.70525  -0.65101  -0.65079
 Alpha  occ. eigenvalues --   -0.64828  -0.62178  -0.60980  -0.59461  -0.57681
 Alpha  occ. eigenvalues --   -0.55333  -0.55322  -0.53536  -0.52917  -0.52564
 Alpha  occ. eigenvalues --   -0.52254  -0.49983  -0.48842  -0.48834  -0.47963
 Alpha  occ. eigenvalues --   -0.46682  -0.45826  -0.45747  -0.44838  -0.43857
 Alpha  occ. eigenvalues --   -0.37411  -0.36331
 Alpha virt. eigenvalues --    0.05007   0.11170   0.16459   0.21280   0.22846
 Alpha virt. eigenvalues --    0.24319   0.26590   0.26883   0.27497   0.28130
 Alpha virt. eigenvalues --    0.28490   0.30751   0.31380   0.31888   0.32236

 Mulliken charges:
               1
     1  C   -0.298518
     2  C   -0.297691
     3  C   -0.487619
     4  H    0.148118
     5  H    0.151363
     6  H    0.149115
     7  H    0.154883
     8  H    0.156168
     9  H    0.150133
    10  H    0.168022
    11  C   -0.298474
    12  C   -0.299720
    13  C   -0.475780
    14  H    0.148177
    15  H    0.151354
    16  H    0.151133
    17  H    0.152944
    18  H    0.156100
    19  H    0.154465
    20  H    0.160369
    21  C   -0.170459
    22  C   -0.221602
    23  C   -0.169136
    24  C    0.159513
    25  C   -0.170957
    26  C   -0.218308
    27  H    0.226233
    28  H    0.226012
    29  H    0.276865
    30  H    0.275893
    31  H    0.223825
    32  N    0.488085
    33  O   -0.460312
    34  O   -0.460194
 Sum of Mulliken charges =  -0.00000

 Dipole moment (field-independent basis, Debye):
    X=             -0.4091    Y=             -5.0841    Z=              0.8897  Tot=              5.1776
 Quadrupole moment (field-independent basis, Debye-Ang):
   XX=            -99.0050   YY=            -97.9655   ZZ=            -90.4510
   XY=            -15.7673   XZ=              4.2836   YZ=              0.1735

 Normal termination of Gaussian 16 at Thu May  6 17:04:07 2021.
