 Gaussian 16, Revision A.03,
 Gaussian 16:  EM64L-G16RevA.03 25-Dec-2016

 -------------
 #p 6-31g* mp2
 -------------

 ------------------------------------------------------
 Input file generated by CHIRIPA (05-May-2021 14:51:09)
 ------------------------------------------------------
 Symbolic Z-matrix:
 Charge =  0 Multiplicity = 1

                         Standard orientation:
 ---------------------------------------------------------------------
 Center     Atomic      Atomic             Coordinates (Angstroms)
 Number     Number       Type             X           Y           Z
 ---------------------------------------------------------------------
      1          6           0       -3.656934    0.306225    0.117519
      2          6           0       -2.933870    1.646846    0.251305
      3          6           0       -1.431811    1.487301    0.488283
      4          1           0       -3.488705   -0.286268    1.027242
      5          1           0       -3.212192   -0.261174   -0.711732
      6          1           0       -3.380757    2.212128    1.079173
      7          1           0       -3.103999    2.236294   -0.658763
      8          1           0       -0.966334    0.945434   -0.341363
      9          1           0       -1.244664    0.921130    1.406448
     10          1           0       -0.934671    2.457933    0.580947
     11          6           0       -5.159263    0.449222   -0.119731
     12          6           0       -5.882326   -0.891400   -0.253517
     13          6           0       -7.384385   -0.731855   -0.490495
     14          1           0       -5.604004    1.016621    0.709520
     15          1           0       -5.327492    1.041715   -1.029454
     16          1           0       -5.712198   -1.480847    0.656551
     17          1           0       -5.435440   -1.456681   -1.081385
     18          1           0       -7.571532   -0.165684   -1.408660
     19          1           0       -7.849863   -0.189987    0.339151
     20          1           0       -7.881525   -1.702486   -0.583159
     21          6           0        5.112729   -0.227075    0.254546
     22          6           0        6.035167    0.344790   -0.822517
     23          6           0        7.441305    0.641014   -0.300192
     24          1           0        5.052719    0.482265    1.091314
     25          1           0        5.557045   -1.148054    0.656761
     26          1           0        5.588571    1.263670   -1.223551
     27          1           0        6.092837   -0.365908   -1.656902
     28          1           0        7.910373   -0.271341    0.082149
     29          1           0        7.403242    1.367496    0.517961
     30          1           0        8.083993    1.049005   -1.086547
     31          6           0        3.703467   -0.528372   -0.252334
     32          6           0        2.781030   -1.100237    0.824728
     33          6           0        1.374891   -1.396461    0.302405
     34          1           0        3.259152    0.392606   -0.654549
     35          1           0        3.763478   -1.237712   -1.089103
     36          1           0        2.723359   -0.389540    1.659113
     37          1           0        3.227626   -2.019117    1.225763
     38          1           0        1.412955   -2.122943   -0.515750
     39          1           0        0.905823   -0.484106   -0.079938
     40          1           0        0.732203   -1.804452    1.088760
 ---------------------------------------------------------------------

 SCF Done:  E(RHF) =  -470.733004368     A.U. after   11 cycles
 E2 =    -0.1582402728D+01 EUMP2 =    -0.47231540709599D+03

 The electronic state is 1-A.
 Alpha  occ. eigenvalues --  -11.21596 -11.21589 -11.21574 -11.21526 -11.21390
 Alpha  occ. eigenvalues --  -11.21361 -11.21330 -11.21300 -11.21063 -11.21062
 Alpha  occ. eigenvalues --  -11.21049 -11.20931  -1.08420  -1.08380  -1.03534
 Alpha  occ. eigenvalues --   -1.03464  -0.96007  -0.95893  -0.87052  -0.86885
 Alpha  occ. eigenvalues --   -0.79647  -0.79484  -0.78238  -0.78186  -0.65055
 Alpha  occ. eigenvalues --   -0.65007  -0.60965  -0.60845  -0.59346  -0.59286
 Alpha  occ. eigenvalues --   -0.57641  -0.57502  -0.55354  -0.55142  -0.52685
 Alpha  occ. eigenvalues --   -0.52653  -0.52491  -0.52222  -0.50020  -0.49761
 Alpha  occ. eigenvalues --   -0.47998  -0.47747  -0.46674  -0.46487  -0.45805
 Alpha  occ. eigenvalues --   -0.45721  -0.45697  -0.45585  -0.43780  -0.43728
 Alpha virt. eigenvalues --    0.22426   0.22965   0.23640   0.24731   0.25981
 Alpha virt. eigenvalues --    0.26723   0.27050   0.27562   0.27724   0.29204
 Alpha virt. eigenvalues --    0.29957   0.31503   0.31888   0.31934   0.32218

 Mulliken charges:
               1
     1  C   -0.298210
     2  C   -0.299787
     3  C   -0.478554
     4  H    0.149692
     5  H    0.149994
     6  H    0.151777
     7  H    0.151767
     8  H    0.157912
     9  H    0.156660
    10  H    0.159540
    11  C   -0.298302
    12  C   -0.299642
    13  C   -0.475701
    14  H    0.149429
    15  H    0.149578
    16  H    0.151944
    17  H    0.152047
    18  H    0.155149
    19  H    0.155132
    20  H    0.160236
    21  C   -0.298243
    22  C   -0.299622
    23  C   -0.475675
    24  H    0.149635
    25  H    0.149422
    26  H    0.151879
    27  H    0.151832
    28  H    0.155133
    29  H    0.155148
    30  H    0.160135
    31  C   -0.298374
    32  C   -0.299256
    33  C   -0.481065
    34  H    0.149550
    35  H    0.149358
    36  H    0.151888
    37  H    0.151343
    38  H    0.153823
    39  H    0.162931
    40  H    0.159496
 Sum of Mulliken charges =  -0.00000

 Dipole moment (field-independent basis, Debye):
    X=             -0.0263    Y=              0.0132    Z=             -0.0009  Tot=              0.0294
 Quadrupole moment (field-independent basis, Debye-Ang):
   XX=            -87.1745   YY=            -84.0369   ZZ=            -83.7737
   XY=             -0.5539   XZ=             -0.6741   YZ=              0.1656

 Normal termination of Gaussian 16 at Thu May  6 03:45:30 2021.
