 Gaussian 16, Revision A.03,
 Gaussian 16:  EM64L-G16RevA.03 25-Dec-2016

 -------------
 #p 6-31g* mp2
 -------------

 ------------------------------------------------------
 Input file generated by CHIRIPA (05-May-2021 14:53:13)
 ------------------------------------------------------
 Symbolic Z-matrix:
 Charge =  0 Multiplicity = 1

                         Standard orientation:
 ---------------------------------------------------------------------
 Center     Atomic      Atomic             Coordinates (Angstroms)
 Number     Number       Type             X           Y           Z
 ---------------------------------------------------------------------
      1          6           0       -5.276977   -0.299758    0.258050
      2          6           0       -5.515160   -1.683394   -0.347593
      3          6           0       -6.757652   -2.370910    0.219265
      4          1           0       -5.179646   -0.395471    1.348147
      5          1           0       -6.159788    0.328959    0.077066
      6          1           0       -4.631605   -2.308881   -0.166727
      7          1           0       -5.611744   -1.584400   -1.436394
      8          1           0       -7.652311   -1.770257    0.025870
      9          1           0       -6.666603   -2.498855    1.302751
     10          1           0       -6.909000   -3.358535   -0.227446
     11          6           0       -4.038471    0.400194   -0.298636
     12          6           0       -3.800288    1.783830    0.307008
     13          6           0       -2.557796    2.471346   -0.259851
     14          1           0       -3.155660   -0.228523   -0.117652
     15          1           0       -4.135802    0.495907   -1.388733
     16          1           0       -3.703704    1.684836    1.395809
     17          1           0       -4.683843    2.409317    0.126142
     18          1           0       -2.648845    2.599291   -1.343337
     19          1           0       -1.663137    1.870693   -0.066456
     20          1           0       -2.406449    3.458971    0.186860
     21          6           0        1.600902    1.447981    0.045804
     22          6           0        2.132903    1.013972   -1.172856
     23          6           0        3.261768    0.189716   -1.201444
     24          6           0        3.835868   -0.183011    0.012958
     25          6           0        3.329236    0.232937    1.243243
     26          6           0        2.199709    1.056768    1.247845
     27          1           0        0.723715    2.088118    0.058695
     28          1           0        1.669943    1.316216   -2.107928
     29          1           0        3.694287   -0.160808   -2.130680
     30          1           0        3.812674   -0.084968    2.159017
     31          1           0        1.788715    1.392303    2.195761
     32          7           0        5.031296   -1.055389   -0.004610
     33          8           0        5.518560   -1.369736    1.079086
     34          8           0        5.458374   -1.408292   -1.101743
 ---------------------------------------------------------------------

 SCF Done:  E(RHF) =  -669.535629403     A.U. after   15 cycles
 E2 =    -0.2090745085D+01 EUMP2 =    -0.67162637448726D+03

 The electronic state is 1-A.
 Alpha  occ. eigenvalues --  -20.60742 -20.60737 -15.85796 -11.31159 -11.27725
 Alpha  occ. eigenvalues --  -11.27720 -11.27421 -11.26738 -11.26725 -11.22457
 Alpha  occ. eigenvalues --  -11.22245 -11.22063 -11.22025 -11.21897 -11.21414
 Alpha  occ. eigenvalues --   -1.59818  -1.39372  -1.19327  -1.09071  -1.08719
 Alpha  occ. eigenvalues --   -1.04730  -1.04207  -0.96681  -0.95555  -0.87706
 Alpha  occ. eigenvalues --   -0.86124  -0.82391  -0.80284  -0.78843  -0.77440
 Alpha  occ. eigenvalues --   -0.72013  -0.71141  -0.70444  -0.65698  -0.64976
 Alpha  occ. eigenvalues --   -0.64733  -0.62078  -0.61611  -0.60060  -0.58271
 Alpha  occ. eigenvalues --   -0.56080  -0.55163  -0.53373  -0.53116  -0.53024
 Alpha  occ. eigenvalues --   -0.52819  -0.50611  -0.48775  -0.48769  -0.48585
 Alpha  occ. eigenvalues --   -0.47295  -0.46396  -0.46291  -0.44778  -0.44442
 Alpha  occ. eigenvalues --   -0.37298  -0.36337
 Alpha virt. eigenvalues --    0.05069   0.11318   0.16478   0.20548   0.22384
 Alpha virt. eigenvalues --    0.23791   0.25698   0.26277   0.27052   0.27369
 Alpha virt. eigenvalues --    0.28875   0.30444   0.31003   0.31221   0.32108

 Mulliken charges:
               1
     1  C   -0.298793
     2  C   -0.300222
     3  C   -0.476065
     4  H    0.150316
     5  H    0.150544
     6  H    0.152874
     7  H    0.152421
     8  H    0.155612
     9  H    0.155725
    10  H    0.161828
    11  C   -0.299346
    12  C   -0.299033
    13  C   -0.482333
    14  H    0.150141
    15  H    0.150377
    16  H    0.152958
    17  H    0.155461
    18  H    0.158074
    19  H    0.148600
    20  H    0.161172
    21  C   -0.176568
    22  C   -0.219999
    23  C   -0.170986
    24  C    0.158534
    25  C   -0.170943
    26  C   -0.220014
    27  H    0.234532
    28  H    0.223874
    29  H    0.275477
    30  H    0.275392
    31  H    0.223371
    32  N    0.488046
    33  O   -0.460546
    34  O   -0.460481
 Sum of Mulliken charges =  -0.00000

 Dipole moment (field-independent basis, Debye):
    X=             -4.4140    Y=              3.0513    Z=              0.0525  Tot=              5.3662
 Quadrupole moment (field-independent basis, Debye-Ang):
   XX=           -127.5471   YY=            -96.8647   ZZ=            -89.2609
   XY=             11.8651   XZ=              1.0352   YZ=             -0.0046

 Normal termination of Gaussian 16 at Thu May  6 07:23:08 2021.
