 Gaussian 16, Revision A.03,
 Gaussian 16:  EM64L-G16RevA.03 25-Dec-2016

 -------------
 #p 6-31g* mp2
 -------------

 ------------------------------------------------------
 Input file generated by CHIRIPA (05-May-2021 14:57:27)
 ------------------------------------------------------
 Symbolic Z-matrix:
 Charge =  0 Multiplicity = 1

                         Standard orientation:
 ---------------------------------------------------------------------
 Center     Atomic      Atomic             Coordinates (Angstroms)
 Number     Number       Type             X           Y           Z
 ---------------------------------------------------------------------
      1          6           0       -1.988222    2.369699   -0.600599
      2          6           0       -3.331506    2.464988   -0.222407
      3          6           0       -4.074273    1.313632    0.055487
      4          6           0       -3.439201    0.077629   -0.055289
      5          6           0       -2.102500   -0.050030   -0.429752
      6          6           0       -1.379080    1.114707   -0.702884
      7          1           0       -1.418738    3.269297   -0.814624
      8          1           0       -3.807179    3.438301   -0.142150
      9          1           0       -5.115650    1.358530    0.350334
     10          1           0       -1.655777   -1.034288   -0.501115
     11          1           0       -0.336020    1.037678   -0.996377
     12          7           0       -4.215294   -1.148343    0.236384
     13          8           0       -3.632619   -2.225434    0.131496
     14          8           0       -5.391575   -1.008955    0.564363
     15          6           0        4.484654    1.937471    0.374230
     16          6           0        5.186524    0.828568   -0.109747
     17          6           0        4.546562   -0.404817   -0.263883
     18          6           0        3.197855   -0.494030    0.077173
     19          6           0        2.471388    0.592524    0.561873
     20          6           0        3.131711    1.816123    0.707907
     21          1           0        4.989700    2.891793    0.490819
     22          1           0        6.237306    0.919877   -0.369681
     23          1           0        5.065947   -1.279416   -0.636355
     24          1           0        1.424634    0.470620    0.812601
     25          1           0        2.584116    2.675622    1.084002
     26          7           0        2.509578   -1.794580   -0.081715
     27          8           0        1.320760   -1.847104    0.225837
     28          8           0        3.171958   -2.736800   -0.510795
 ---------------------------------------------------------------------

 SCF Done:  E(RHF) =  -868.338012463     A.U. after   16 cycles
 E2 =    -0.2600591234D+01 EUMP2 =    -0.87093860369733D+03

 The electronic state is 1-A.
 Alpha  occ. eigenvalues --  -20.61499 -20.61446 -20.60337 -20.60297 -15.86520
 Alpha  occ. eigenvalues --  -15.85377 -11.31909 -11.30855 -11.28488 -11.28423
 Alpha  occ. eigenvalues --  -11.28183 -11.27546 -11.27521 -11.27442 -11.27383
 Alpha  occ. eigenvalues --  -11.27345 -11.26587 -11.26529  -1.60534  -1.59397
 Alpha  occ. eigenvalues --   -1.40092  -1.38942  -1.20074  -1.19094  -1.09455
 Alpha  occ. eigenvalues --   -1.08493  -1.05481  -1.04502  -0.96289  -0.95282
 Alpha  occ. eigenvalues --   -0.86877  -0.85910  -0.83122  -0.82103  -0.78188
 Alpha  occ. eigenvalues --   -0.77089  -0.72731  -0.71857  -0.71593  -0.71170
 Alpha  occ. eigenvalues --   -0.70726  -0.70213  -0.65723  -0.65496  -0.64745
 Alpha  occ. eigenvalues --   -0.64530  -0.62835  -0.61771  -0.55956  -0.55077
 Alpha  occ. eigenvalues --   -0.53812  -0.53585  -0.52845  -0.52549  -0.49490
 Alpha  occ. eigenvalues --   -0.49473  -0.48377  -0.48328  -0.45488  -0.44321
 Alpha  occ. eigenvalues --   -0.38040  -0.37167  -0.37071  -0.36111
 Alpha virt. eigenvalues --    0.04302   0.05406   0.10459   0.11466   0.15826
 Alpha virt. eigenvalues --    0.16715   0.20449   0.21919   0.26287   0.27125
 Alpha virt. eigenvalues --    0.28355   0.28631   0.30450   0.30966   0.32167

 Mulliken charges:
               1
     1  C   -0.172831
     2  C   -0.219605
     3  C   -0.170027
     4  C    0.157464
     5  C   -0.172644
     6  C   -0.229511
     7  H    0.220402
     8  H    0.221345
     9  H    0.275141
    10  H    0.295968
    11  H    0.222517
    12  N    0.487453
    13  O   -0.453797
    14  O   -0.463489
    15  C   -0.170384
    16  C   -0.217786
    17  C   -0.169997
    18  C    0.158782
    19  C   -0.180269
    20  C   -0.220449
    21  H    0.227517
    22  H    0.226259
    23  H    0.278138
    24  H    0.276934
    25  H    0.223099
    26  N    0.490173
    27  O   -0.466384
    28  O   -0.454020
 Sum of Mulliken charges =  -0.00000

 Dipole moment (field-independent basis, Debye):
    X=              5.4214    Y=              8.6017    Z=             -0.4749  Tot=             10.1787
 Quadrupole moment (field-independent basis, Debye-Ang):
   XX=           -100.6144   YY=           -107.2292   ZZ=           -105.4822
   XY=             -5.3279   XZ=              2.8358   YZ=              1.3510

 Normal termination of Gaussian 16 at Fri May  7 03:34:57 2021.
