 Gaussian 16, Revision A.03,
 Gaussian 16:  EM64L-G16RevA.03 25-Dec-2016

 -------------
 #p 6-31g* mp2
 -------------

 ------------------------------------------------------
 Input file generated by CHIRIPA (05-May-2021 14:57:21)
 ------------------------------------------------------
 Symbolic Z-matrix:
 Charge =  0 Multiplicity = 1

                         Standard orientation:
 ---------------------------------------------------------------------
 Center     Atomic      Atomic             Coordinates (Angstroms)
 Number     Number       Type             X           Y           Z
 ---------------------------------------------------------------------
      1          6           0       -1.425696   -1.732166    1.625284
      2          6           0       -1.191632   -0.353598    1.589444
      3          6           0       -2.008824    0.485721    0.826365
      4          6           0       -3.055808   -0.089828    0.108131
      5          6           0       -3.314540   -1.459540    0.123526
      6          6           0       -2.484536   -2.279772    0.893501
      7          1           0       -0.785905   -2.376755    2.220741
      8          1           0       -0.370060    0.074451    2.156751
      9          1           0       -1.850146    1.556306    0.780694
     10          1           0       -4.141287   -1.857046   -0.452578
     11          1           0       -2.668675   -3.350036    0.919457
     12          7           0       -3.927714    0.788618   -0.703357
     13          8           0       -4.843553    0.256910   -1.327186
     14          8           0       -3.678765    1.992217   -0.700206
     15          6           0        2.195843    2.546447    0.471065
     16          6           0        1.315753    1.731851   -0.248931
     17          6           0        1.701934    0.449178   -0.649136
     18          6           0        2.981353    0.011107   -0.310798
     19          6           0        3.880933    0.799014    0.405613
     20          6           0        3.473372    2.078254    0.795468
     21          1           0        1.887544    3.541525    0.777934
     22          1           0        0.322999    2.092829   -0.502265
     23          1           0        1.040649   -0.202362   -1.207361
     24          1           0        4.864142    0.411496    0.643408
     25          1           0        4.158963    2.708689    1.354541
     26          7           0        3.401502   -1.344985   -0.728999
     27          8           0        4.534089   -1.707559   -0.418477
     28          8           0        2.590273   -2.019636   -1.359385
 ---------------------------------------------------------------------

 SCF Done:  E(RHF) =  -868.337738107     A.U. after   16 cycles
 E2 =    -0.2601695319D+01 EUMP2 =    -0.87093943342590D+03

 The electronic state is 1-A.
 Alpha  occ. eigenvalues --  -20.61261 -20.61234 -20.61228 -20.61224 -15.86294
 Alpha  occ. eigenvalues --  -15.86287 -11.31662 -11.31626 -11.28244 -11.28222
 Alpha  occ. eigenvalues --  -11.28211 -11.28078 -11.27984 -11.27770 -11.27242
 Alpha  occ. eigenvalues --  -11.27209 -11.27136 -11.27071  -1.60320  -1.60313
 Alpha  occ. eigenvalues --   -1.39877  -1.39863  -1.19864  -1.19751  -1.09245
 Alpha  occ. eigenvalues --   -1.09135  -1.05313  -1.05083  -0.96067  -0.95992
 Alpha  occ. eigenvalues --   -0.86661  -0.86514  -0.82937  -0.82777  -0.78016
 Alpha  occ. eigenvalues --   -0.77826  -0.72509  -0.72498  -0.71648  -0.71644
 Alpha  occ. eigenvalues --   -0.70930  -0.70832  -0.65494  -0.65423  -0.65297
 Alpha  occ. eigenvalues --   -0.65031  -0.62716  -0.62349  -0.55742  -0.55576
 Alpha  occ. eigenvalues --   -0.53805  -0.53435  -0.53270  -0.53075  -0.49281
 Alpha  occ. eigenvalues --   -0.49262  -0.49254  -0.49250  -0.45290  -0.45264
 Alpha  occ. eigenvalues --   -0.37884  -0.37732  -0.37329  -0.36186
 Alpha virt. eigenvalues --    0.04397   0.04778   0.10418   0.11121   0.15752
 Alpha virt. eigenvalues --    0.16475   0.20177   0.21682   0.25530   0.27364
 Alpha virt. eigenvalues --    0.27860   0.28618   0.29973   0.31246   0.31722

 Mulliken charges:
               1
     1  C   -0.170285
     2  C   -0.216078
     3  C   -0.181481
     4  C    0.158842
     5  C   -0.171275
     6  C   -0.216046
     7  H    0.230545
     8  H    0.226423
     9  H    0.267805
    10  H    0.277402
    11  H    0.227732
    12  N    0.488441
    13  O   -0.456604
    14  O   -0.465310
    15  C   -0.174079
    16  C   -0.228055
    17  C   -0.169344
    18  C    0.155231
    19  C   -0.171673
    20  C   -0.219397
    21  H    0.228272
    22  H    0.229900
    23  H    0.279540
    24  H    0.276500
    25  H    0.225036
    26  N    0.487649
    27  O   -0.459902
    28  O   -0.459790
 Sum of Mulliken charges =  -0.00000

 Dipole moment (field-independent basis, Debye):
    X=              1.5852    Y=              1.4612    Z=              4.3410  Tot=              4.8468
 Quadrupole moment (field-independent basis, Debye-Ang):
   XX=           -127.4743   YY=           -101.3620   ZZ=           -104.9895
   XY=             27.3370   XZ=             -0.4777   YZ=             -0.6131

 Normal termination of Gaussian 16 at Thu May  6 00:07:17 2021.
