 Gaussian 16, Revision A.03,
 Gaussian 16:  EM64L-G16RevA.03 25-Dec-2016

 -------------
 #p 6-31g* mp2
 -------------

 ------------------------------------------------------
 Input file generated by CHIRIPA (05-May-2021 14:51:08)
 ------------------------------------------------------
 Symbolic Z-matrix:
 Charge =  0 Multiplicity = 1

                         Standard orientation:
 ---------------------------------------------------------------------
 Center     Atomic      Atomic             Coordinates (Angstroms)
 Number     Number       Type             X           Y           Z
 ---------------------------------------------------------------------
      1          6           0        4.244967    0.433877    0.044165
      2          6           0        4.605834   -0.989889   -0.380866
      3          6           0        6.098049   -1.289888   -0.235649
      4          1           0        4.824154    1.147368   -0.557847
      5          1           0        4.550522    0.585841    1.088645
      6          1           0        4.298436   -1.139567   -1.423804
      7          1           0        4.025578   -1.700069    0.222096
      8          1           0        6.415995   -1.168137    0.804874
      9          1           0        6.690404   -0.604450   -0.850378
     10          1           0        6.333833   -2.312923   -0.544949
     11          6           0        2.756664    0.748893   -0.095290
     12          6           0        2.395797    2.172659    0.329741
     13          6           0        0.903582    2.472659    0.184524
     14          1           0        2.451110    0.596929   -1.139770
     15          1           0        2.177477    0.035403    0.506722
     16          1           0        2.976053    2.882839   -0.273221
     17          1           0        2.703195    2.322337    1.372679
     18          1           0        0.311228    1.787220    0.799253
     19          1           0        0.585636    2.350907   -0.855999
     20          1           0        0.667799    3.495693    0.493824
     21          6           0       -3.961079   -0.040424   -0.235266
     22          6           0       -5.436147   -0.278170    0.089748
     23          6           0       -6.344372    0.832587   -0.438589
     24          1           0       -3.649250    0.923427    0.189822
     25          1           0       -3.841911    0.045030   -1.324252
     26          1           0       -5.552292   -0.364529    1.177714
     27          1           0       -5.744450   -1.241655   -0.335999
     28          1           0       -6.258017    0.915869   -1.526802
     29          1           0       -6.064768    1.797978   -0.004489
     30          1           0       -7.394350    0.642482   -0.195143
     31          6           0       -3.040552   -1.142347    0.286391
     32          6           0       -1.565484   -0.904601   -0.038624
     33          6           0       -0.657259   -2.015357    0.489714
     34          1           0       -3.159720   -1.227800    1.375378
     35          1           0       -3.352381   -2.106197   -0.138697
     36          1           0       -1.257181    0.058885    0.387124
     37          1           0       -1.449339   -0.818241   -1.126588
     38          1           0       -0.936863   -2.980748    0.055614
     39          1           0       -0.743614   -2.098639    1.577928
     40          1           0        0.392719   -1.825252    0.246268
 ---------------------------------------------------------------------

 SCF Done:  E(RHF) =  -470.732973045     A.U. after   11 cycles
 E2 =    -0.1583434315D+01 EUMP2 =    -0.47231640736047D+03

 The electronic state is 1-A.
 Alpha  occ. eigenvalues --  -11.21616 -11.21614 -11.21570 -11.21512 -11.21416
 Alpha  occ. eigenvalues --  -11.21359 -11.21356 -11.21300 -11.21076 -11.21066
 Alpha  occ. eigenvalues --  -11.21044 -11.21022  -1.08450  -1.08381  -1.03555
 Alpha  occ. eigenvalues --   -1.03474  -0.95992  -0.95941  -0.87032  -0.86936
 Alpha  occ. eigenvalues --   -0.79658  -0.79504  -0.78292  -0.78166  -0.65114
 Alpha  occ. eigenvalues --   -0.64992  -0.61032  -0.60815  -0.59424  -0.59246
 Alpha  occ. eigenvalues --   -0.57610  -0.57550  -0.55306  -0.55216  -0.52705
 Alpha  occ. eigenvalues --   -0.52641  -0.52512  -0.52280  -0.50016  -0.49823
 Alpha  occ. eigenvalues --   -0.48051  -0.47747  -0.46748  -0.46464  -0.45870
 Alpha  occ. eigenvalues --   -0.45741  -0.45690  -0.45503  -0.43799  -0.43723
 Alpha virt. eigenvalues --    0.21128   0.23064   0.23643   0.24534   0.25880
 Alpha virt. eigenvalues --    0.26076   0.26806   0.27167   0.28578   0.29194
 Alpha virt. eigenvalues --    0.30432   0.31546   0.31635   0.31730   0.32386

 Mulliken charges:
               1
     1  C   -0.297969
     2  C   -0.300112
     3  C   -0.475670
     4  H    0.149779
     5  H    0.149524
     6  H    0.151924
     7  H    0.152038
     8  H    0.155250
     9  H    0.155220
    10  H    0.160378
    11  C   -0.303626
    12  C   -0.299386
    13  C   -0.479846
    14  H    0.149591
    15  H    0.155044
    16  H    0.152052
    17  H    0.151713
    18  H    0.159278
    19  H    0.156119
    20  H    0.160051
    21  C   -0.298274
    22  C   -0.299599
    23  C   -0.475682
    24  H    0.149944
    25  H    0.149428
    26  H    0.151785
    27  H    0.151836
    28  H    0.155122
    29  H    0.155237
    30  H    0.160106
    31  C   -0.297689
    32  C   -0.305477
    33  C   -0.480526
    34  H    0.148970
    35  H    0.149374
    36  H    0.158643
    37  H    0.151687
    38  H    0.155180
    39  H    0.153989
    40  H    0.164593
 Sum of Mulliken charges =  -0.00000

 Dipole moment (field-independent basis, Debye):
    X=              0.0269    Y=              0.0238    Z=             -0.0074  Tot=              0.0367
 Quadrupole moment (field-independent basis, Debye-Ang):
   XX=            -86.5473   YY=            -85.1330   ZZ=            -83.1762
   XY=              1.0165   XZ=             -0.3422   YZ=              0.4063

 Normal termination of Gaussian 16 at Thu May  6 11:33:53 2021.
