 Gaussian 16, Revision A.03,
 Gaussian 16:  EM64L-G16RevA.03 25-Dec-2016

 -------------
 #p 6-31g* mp2
 -------------

 ------------------------------------------------------
 Input file generated by CHIRIPA (05-May-2021 14:57:22)
 ------------------------------------------------------
 Symbolic Z-matrix:
 Charge =  0 Multiplicity = 1

                         Standard orientation:
 ---------------------------------------------------------------------
 Center     Atomic      Atomic             Coordinates (Angstroms)
 Number     Number       Type             X           Y           Z
 ---------------------------------------------------------------------
      1          6           0        2.663879    2.177344    1.107959
      2          6           0        2.021978    1.095853    1.720219
      3          6           0        2.159320   -0.196158    1.204089
      4          6           0        2.949722   -0.371313    0.069243
      5          6           0        3.601903    0.685951   -0.563325
      6          6           0        3.450407    1.969307   -0.029853
      7          1           0        2.551691    3.177648    1.515638
      8          1           0        1.410524    1.254447    2.603971
      9          1           0        1.673533   -1.051281    1.658175
     10          1           0        4.204837    0.496557   -1.443109
     11          1           0        3.950085    2.807334   -0.507428
     12          7           0        3.102612   -1.734527   -0.486341
     13          8           0        3.804524   -1.862413   -1.487141
     14          8           0        2.517641   -2.649315    0.089513
     15          6           0       -1.530011    2.138897   -0.833243
     16          6           0       -0.907785    0.946520   -0.449065
     17          6           0       -1.670465   -0.163700   -0.074522
     18          6           0       -3.059340   -0.045965   -0.095801
     19          6           0       -3.708699    1.128273   -0.473675
     20          6           0       -2.926021    2.225815   -0.844302
     21          1           0       -0.929775    2.996417   -1.122675
     22          1           0        0.176189    0.876139   -0.439527
     23          1           0       -1.214717   -1.098936    0.227211
     24          1           0       -4.791211    1.168088   -0.473183
     25          1           0       -3.411970    3.150559   -1.142207
     26          7           0       -3.877341   -1.214594    0.298637
     27          8           0       -5.099294   -1.085251    0.271448
     28          8           0       -3.281048   -2.237779    0.627520
 ---------------------------------------------------------------------

 SCF Done:  E(RHF) =  -868.336157777     A.U. after   16 cycles
 E2 =    -0.2603238921D+01 EUMP2 =    -0.87093939669711D+03

 The electronic state is 1-A.
 Alpha  occ. eigenvalues --  -20.61549 -20.61543 -20.60743 -20.60729 -15.86608
 Alpha  occ. eigenvalues --  -15.85790 -11.32260 -11.31225 -11.28796 -11.28741
 Alpha  occ. eigenvalues --  -11.28527 -11.27875 -11.27792 -11.27783 -11.27728
 Alpha  occ. eigenvalues --  -11.27534 -11.26851 -11.26640  -1.60622  -1.59814
 Alpha  occ. eigenvalues --   -1.40165  -1.39364  -1.20462  -1.19384  -1.09765
 Alpha  occ. eigenvalues --   -1.08776  -1.05855  -1.04779  -0.96550  -0.95603
 Alpha  occ. eigenvalues --   -0.87199  -0.86184  -0.83349  -0.82428  -0.78371
 Alpha  occ. eigenvalues --   -0.77470  -0.72801  -0.72004  -0.71968  -0.71458
 Alpha  occ. eigenvalues --   -0.71141  -0.70512  -0.66034  -0.65769  -0.65028
 Alpha  occ. eigenvalues --   -0.64838  -0.63132  -0.62190  -0.56274  -0.55392
 Alpha  occ. eigenvalues --   -0.54376  -0.53862  -0.53130  -0.52515  -0.49589
 Alpha  occ. eigenvalues --   -0.49553  -0.48765  -0.48758  -0.45503  -0.44755
 Alpha  occ. eigenvalues --   -0.38500  -0.37656  -0.37293  -0.36241
 Alpha virt. eigenvalues --    0.04086   0.05073   0.09990   0.11338   0.15485
 Alpha virt. eigenvalues --    0.16617   0.20338   0.21566   0.25846   0.26963
 Alpha virt. eigenvalues --    0.27627   0.28507   0.30277   0.30813   0.31500

 Mulliken charges:
               1
     1  C   -0.176793
     2  C   -0.216957
     3  C   -0.189354
     4  C    0.159512
     5  C   -0.173475
     6  C   -0.219414
     7  H    0.228902
     8  H    0.230701
     9  H    0.280894
    10  H    0.279583
    11  H    0.227049
    12  N    0.488035
    13  O   -0.456684
    14  O   -0.456172
    15  C   -0.175468
    16  C   -0.222803
    17  C   -0.179216
    18  C    0.159542
    19  C   -0.172159
    20  C   -0.218067
    21  H    0.221686
    22  H    0.236418
    23  H    0.277840
    24  H    0.275448
    25  H    0.222208
    26  N    0.487703
    27  O   -0.460952
    28  O   -0.458007
 Sum of Mulliken charges =  -0.00000

 Dipole moment (field-independent basis, Debye):
    X=              2.6265    Y=              8.8128    Z=              0.6285  Tot=              9.2174
 Quadrupole moment (field-independent basis, Debye-Ang):
   XX=           -120.5606   YY=           -107.5476   ZZ=           -102.4801
   XY=              0.5395   XZ=              8.0949   YZ=             -2.5836

 Normal termination of Gaussian 16 at Thu May  6 17:54:57 2021.
