 Gaussian 16, Revision A.03,
 Gaussian 16:  EM64L-G16RevA.03 25-Dec-2016

 -------------
 #p 6-31g* mp2
 -------------

 ------------------------------------------------------
 Input file generated by CHIRIPA (05-May-2021 14:53:13)
 ------------------------------------------------------
 Symbolic Z-matrix:
 Charge =  0 Multiplicity = 1

                         Standard orientation:
 ---------------------------------------------------------------------
 Center     Atomic      Atomic             Coordinates (Angstroms)
 Number     Number       Type             X           Y           Z
 ---------------------------------------------------------------------
      1          6           0        3.452380   -0.439101    0.462744
      2          6           0        3.343053   -1.670283   -0.437380
      3          6           0        3.419048   -2.982394    0.343890
      4          1           0        4.398927   -0.482146    1.018748
      5          1           0        2.648545   -0.468271    1.211338
      6          1           0        4.146022   -1.638090   -1.184922
      7          1           0        2.396744   -1.624206   -0.991449
      8          1           0        2.609412   -3.040776    1.078521
      9          1           0        4.368630   -3.054739    0.883948
     10          1           0        3.338848   -3.849570   -0.319008
     11          6           0        3.378077    0.880258   -0.303741
     12          6           0        3.487405    2.111440    0.596383
     13          6           0        3.411409    3.423551   -0.184888
     14          1           0        4.181912    0.909427   -1.052335
     15          1           0        2.431530    0.923303   -0.859746
     16          1           0        4.433713    2.065362    1.150451
     17          1           0        2.684435    2.079246    1.343925
     18          1           0        2.461827    3.495896   -0.724945
     19          1           0        4.221045    3.481933   -0.919518
     20          1           0        3.491609    4.290727    0.478010
     21          6           0       -4.310586    1.729243    0.166692
     22          6           0       -2.984274    1.989370   -0.193520
     23          6           0       -2.065596    0.943543   -0.323236
     24          6           0       -2.509362   -0.356163   -0.084230
     25          6           0       -3.824122   -0.647459    0.276111
     26          6           0       -4.725545    0.413978    0.399947
     27          1           0       -5.017535    2.547730    0.265175
     28          1           0       -2.659206    3.009829   -0.375280
     29          1           0       -1.032918    1.116578   -0.600819
     30          1           0       -4.118604   -1.675156    0.450858
     31          1           0       -5.754958    0.208989    0.679827
     32          7           0       -1.545932   -1.471596   -0.218442
     33          8           0       -1.961848   -2.607815   -0.002440
     34          8           0       -0.393123   -1.188532   -0.537099
 ---------------------------------------------------------------------

 SCF Done:  E(RHF) =  -669.536315987     A.U. after   15 cycles
 E2 =    -0.2091493530D+01 EUMP2 =    -0.67162780951652D+03

 The electronic state is 1-A.
 Alpha  occ. eigenvalues --  -20.61023 -20.61016 -15.86059 -11.31346 -11.27909
 Alpha  occ. eigenvalues --  -11.27901 -11.27634 -11.26905 -11.26895 -11.21221
 Alpha  occ. eigenvalues --  -11.20932 -11.20693 -11.20357 -11.20135 -11.19745
 Alpha  occ. eigenvalues --   -1.60082  -1.39639  -1.19511  -1.08920  -1.07591
 Alpha  occ. eigenvalues --   -1.04903  -1.02674  -0.95768  -0.95172  -0.86305
 Alpha  occ. eigenvalues --   -0.86199  -0.82605  -0.78814  -0.77668  -0.77299
 Alpha  occ. eigenvalues --   -0.72290  -0.71394  -0.70620  -0.65174  -0.64905
 Alpha  occ. eigenvalues --   -0.64200  -0.62251  -0.60043  -0.58619  -0.56751
 Alpha  occ. eigenvalues --   -0.55407  -0.54465  -0.53236  -0.52994  -0.51904
 Alpha  occ. eigenvalues --   -0.51595  -0.49170  -0.49034  -0.49006  -0.47112
 Alpha  occ. eigenvalues --   -0.45839  -0.45073  -0.44861  -0.44658  -0.42932
 Alpha  occ. eigenvalues --   -0.37487  -0.36503
 Alpha virt. eigenvalues --    0.04864   0.11152   0.16365   0.20671   0.23035
 Alpha virt. eigenvalues --    0.25150   0.26218   0.27468   0.27999   0.28608
 Alpha virt. eigenvalues --    0.29190   0.31163   0.32007   0.32269   0.32835

 Mulliken charges:
               1
     1  C   -0.295688
     2  C   -0.307193
     3  C   -0.474196
     4  H    0.143909
     5  H    0.151993
     6  H    0.143149
     7  H    0.178360
     8  H    0.160421
     9  H    0.146965
    10  H    0.159065
    11  C   -0.299049
    12  C   -0.299298
    13  C   -0.473801
    14  H    0.147416
    15  H    0.151306
    16  H    0.151909
    17  H    0.149006
    18  H    0.148364
    19  H    0.156154
    20  H    0.157853
    21  C   -0.170434
    22  C   -0.218688
    23  C   -0.171285
    24  C    0.157424
    25  C   -0.170320
    26  C   -0.218630
    27  H    0.226272
    28  H    0.224310
    29  H    0.275874
    30  H    0.275978
    31  H    0.224021
    32  N    0.493968
    33  O   -0.458280
    34  O   -0.466856
 Sum of Mulliken charges =  -0.00000

 Dipole moment (field-independent basis, Debye):
    X=             -3.7069    Y=              3.7986    Z=              0.4334  Tot=              5.3252
 Quadrupole moment (field-independent basis, Debye-Ang):
   XX=            -75.2843   YY=            -97.2196   ZZ=            -95.6583
   XY=             -6.1459   XZ=             -2.2621   YZ=             -0.9197

 Normal termination of Gaussian 16 at Thu May  6 17:04:50 2021.
