 Gaussian 16, Revision A.03,
 Gaussian 16:  EM64L-G16RevA.03 25-Dec-2016

 -------------
 #p 6-31g* mp2
 -------------

 ------------------------------------------------------
 Input file generated by CHIRIPA (05-May-2021 14:55:25)
 ------------------------------------------------------
 Symbolic Z-matrix:
 Charge =  0 Multiplicity = 1

                         Standard orientation:
 ---------------------------------------------------------------------
 Center     Atomic      Atomic             Coordinates (Angstroms)
 Number     Number       Type             X           Y           Z
 ---------------------------------------------------------------------
      1          6           0       -2.606147    2.197625   -0.490965
      2          6           0       -1.757607    1.214658    0.028916
      3          6           0       -2.232049   -0.078363    0.268813
      4          6           0       -3.566597   -0.354980   -0.024027
      5          6           0       -4.436713    0.602730   -0.542658
      6          6           0       -3.940639    1.889068   -0.774593
      7          1           0       -2.229187    3.199479   -0.674231
      8          1           0       -0.720764    1.451438    0.250133
      9          1           0       -1.596928   -0.858441    0.670704
     10          1           0       -5.465455    0.336674   -0.753184
     11          1           0       -4.601910    2.650452   -1.178400
     12          7           0       -4.080318   -1.720306    0.225727
     13          8           0       -5.260137   -1.938660   -0.040703
     14          8           0       -3.293425   -2.546242    0.683184
     15          6           0        4.685642   -0.554736   -0.022087
     16          6           0        6.155627   -0.671497   -0.426435
     17          6           0        6.598395   -2.120190   -0.633894
     18          1           0        4.519441   -1.126258    0.901322
     19          1           0        4.061441   -1.022658   -0.795918
     20          1           0        6.776782   -0.202269    0.347262
     21          1           0        6.318389   -0.099471   -1.348883
     22          1           0        6.003563   -2.595961   -1.420289
     23          1           0        6.464559   -2.699342    0.285493
     24          1           0        7.652430   -2.180443   -0.922405
     25          6           0        4.228097    0.887428    0.188972
     26          6           0        2.758112    1.004190    0.593319
     27          6           0        2.315344    2.452883    0.800779
     28          1           0        4.852298    1.355351    0.962803
     29          1           0        4.394298    1.458950   -0.734437
     30          1           0        2.595349    0.432165    1.515768
     31          1           0        2.136956    0.534961   -0.180377
     32          1           0        2.449180    3.032035   -0.118608
     33          1           0        2.910176    2.928655    1.587175
     34          1           0        1.261309    2.513135    1.089290
 ---------------------------------------------------------------------

 SCF Done:  E(RHF) =  -669.535572478     A.U. after   15 cycles
 E2 =    -0.2090923332D+01 EUMP2 =    -0.67162649580973D+03

 The electronic state is 1-A.
 Alpha  occ. eigenvalues --  -20.60728 -20.60723 -15.85781 -11.31138 -11.27711
 Alpha  occ. eigenvalues --  -11.27697 -11.27446 -11.26726 -11.26681 -11.22495
 Alpha  occ. eigenvalues --  -11.22162 -11.22021 -11.21946 -11.21815 -11.21311
 Alpha  occ. eigenvalues --   -1.59804  -1.39357  -1.19310  -1.09023  -1.08707
 Alpha  occ. eigenvalues --   -1.04713  -1.04159  -0.96609  -0.95543  -0.87625
 Alpha  occ. eigenvalues --   -0.86110  -0.82375  -0.80236  -0.78784  -0.77425
 Alpha  occ. eigenvalues --   -0.71999  -0.71127  -0.70419  -0.65649  -0.64961
 Alpha  occ. eigenvalues --   -0.64752  -0.62120  -0.61531  -0.60005  -0.58205
 Alpha  occ. eigenvalues --   -0.55870  -0.55211  -0.53398  -0.53102  -0.53041
 Alpha  occ. eigenvalues --   -0.52638  -0.50527  -0.48759  -0.48755  -0.48544
 Alpha  occ. eigenvalues --   -0.47255  -0.46334  -0.46225  -0.44764  -0.44399
 Alpha  occ. eigenvalues --   -0.37293  -0.36315
 Alpha virt. eigenvalues --    0.05109   0.11317   0.16591   0.19478   0.22600
 Alpha virt. eigenvalues --    0.23719   0.25911   0.26209   0.26870   0.28304
 Alpha virt. eigenvalues --    0.28814   0.30342   0.30813   0.31343   0.32141

 Mulliken charges:
               1
     1  C   -0.173080
     2  C   -0.228368
     3  C   -0.173239
     4  C    0.158919
     5  C   -0.171280
     6  C   -0.218501
     7  H    0.225834
     8  H    0.237254
     9  H    0.276152
    10  H    0.275408
    11  H    0.223190
    12  N    0.488031
    13  O   -0.460683
    14  O   -0.460462
    15  C   -0.299282
    16  C   -0.300210
    17  C   -0.476172
    18  H    0.151359
    19  H    0.150738
    20  H    0.152463
    21  H    0.152183
    22  H    0.156243
    23  H    0.156323
    24  H    0.161339
    25  C   -0.298442
    26  C   -0.303298
    27  C   -0.480113
    28  H    0.151676
    29  H    0.150695
    30  H    0.154949
    31  H    0.149726
    32  H    0.157244
    33  H    0.162047
    34  H    0.151356
 Sum of Mulliken charges =  -0.00000

 Dipole moment (field-independent basis, Debye):
    X=              2.0432    Y=              4.7950    Z=             -0.8788  Tot=              5.2857
 Quadrupole moment (field-independent basis, Debye-Ang):
   XX=           -102.9818   YY=            -99.3318   ZZ=            -93.9850
   XY=            -18.9568   XZ=              5.3095   YZ=             -0.6151

 Normal termination of Gaussian 16 at Wed May  5 19:10:33 2021.
