 Gaussian 16, Revision A.03,
 Gaussian 16:  EM64L-G16RevA.03 25-Dec-2016

 -------------
 #p 6-31g* mp2
 -------------

 ------------------------------------------------------
 Input file generated by CHIRIPA (05-May-2021 14:51:13)
 ------------------------------------------------------
 Symbolic Z-matrix:
 Charge =  0 Multiplicity = 1

                         Standard orientation:
 ---------------------------------------------------------------------
 Center     Atomic      Atomic             Coordinates (Angstroms)
 Number     Number       Type             X           Y           Z
 ---------------------------------------------------------------------
      1          6           0        2.212688   -0.021341   -0.863844
      2          6           0        2.773120   -1.443930   -0.851918
      3          6           0        2.490140   -2.201678   -2.149429
      4          1           0        1.128608   -0.062574   -1.037088
      5          1           0        2.644087    0.528141   -1.711996
      6          1           0        2.341848   -1.990141   -0.003228
      7          1           0        3.855962   -1.399314   -0.678491
      8          1           0        2.934762   -1.681604   -3.004084
      9          1           0        1.412045   -2.275788   -2.324984
     10          1           0        2.899492   -3.216262   -2.119273
     11          6           0        2.487571    0.748915    0.426455
     12          6           0        1.927140    2.171504    0.414529
     13          6           0        2.210120    2.929252    1.712040
     14          1           0        2.056173    0.199434    1.274607
     15          1           0        3.571652    0.790149    0.599699
     16          1           0        0.844297    2.126889    0.241103
     17          1           0        2.358412    2.717716   -0.434160
     18          1           0        3.288215    3.003362    1.887595
     19          1           0        1.765497    2.409179    2.566695
     20          1           0        1.800768    3.943837    1.681884
     21          6           0       -2.824898    0.214409    0.064696
     22          6           0       -2.755391    0.685526   -1.388302
     23          6           0       -3.710948    1.842716   -1.680901
     24          1           0       -3.854600   -0.091147    0.295554
     25          1           0       -2.593311    1.059108    0.728207
     26          1           0       -2.985685   -0.160148   -2.048920
     27          1           0       -1.725694    0.989815   -1.615785
     28          1           0       -3.478974    2.703845   -1.045884
     29          1           0       -4.746124    1.547347   -1.481480
     30          1           0       -3.644896    2.163667   -2.725165
     31          6           0       -1.875362   -0.941984    0.372693
     32          6           0       -1.944869   -1.413100    1.825691
     33          6           0       -0.989311   -2.570291    2.118290
     34          1           0       -2.106948   -1.786682   -0.290818
     35          1           0       -0.845661   -0.636428    0.141835
     36          1           0       -2.974566   -1.717390    2.053173
     37          1           0       -1.714575   -0.567426    2.486308
     38          1           0        0.045865   -2.274921    1.918869
     39          1           0       -1.221285   -3.431420    1.483272
     40          1           0       -1.055365   -2.891241    3.162554
 ---------------------------------------------------------------------

 SCF Done:  E(RHF) =  -470.733363896     A.U. after   11 cycles
 E2 =    -0.1584327440D+01 EUMP2 =    -0.47231769133561D+03

 The electronic state is 1-A.
 Alpha  occ. eigenvalues --  -11.21677 -11.21672 -11.21654 -11.21618 -11.21465
 Alpha  occ. eigenvalues --  -11.21457 -11.21406 -11.21381 -11.21150 -11.21128
 Alpha  occ. eigenvalues --  -11.21102 -11.21057  -1.08529  -1.08449  -1.03590
 Alpha  occ. eigenvalues --   -1.03562  -0.96045  -0.96007  -0.87056  -0.87027
 Alpha  occ. eigenvalues --   -0.79651  -0.79630  -0.78404  -0.78213  -0.65435
 Alpha  occ. eigenvalues --   -0.64831  -0.61024  -0.60922  -0.59402  -0.59380
 Alpha  occ. eigenvalues --   -0.57668  -0.57608  -0.55407  -0.55234  -0.52731
 Alpha  occ. eigenvalues --   -0.52704  -0.52486  -0.52416  -0.50023  -0.49929
 Alpha  occ. eigenvalues --   -0.48011  -0.47909  -0.46689  -0.46673  -0.46334
 Alpha  occ. eigenvalues --   -0.45807  -0.45764  -0.45227  -0.43843  -0.43820
 Alpha virt. eigenvalues --    0.18516   0.21893   0.23830   0.24377   0.25240
 Alpha virt. eigenvalues --    0.25911   0.27057   0.27699   0.28740   0.30621
 Alpha virt. eigenvalues --    0.31289   0.31479   0.31663   0.31927   0.32093

 Mulliken charges:
               1
     1  C   -0.305552
     2  C   -0.301797
     3  C   -0.475905
     4  H    0.155798
     5  H    0.150195
     6  H    0.153794
     7  H    0.152162
     8  H    0.155041
     9  H    0.156116
    10  H    0.160321
    11  C   -0.299625
    12  C   -0.300879
    13  C   -0.475727
    14  H    0.149637
    15  H    0.150432
    16  H    0.151747
    17  H    0.152508
    18  H    0.155594
    19  H    0.155128
    20  H    0.160421
    21  C   -0.297888
    22  C   -0.302394
    23  C   -0.475662
    24  H    0.150102
    25  H    0.149466
    26  H    0.152108
    27  H    0.153679
    28  H    0.155320
    29  H    0.155360
    30  H    0.160598
    31  C   -0.307711
    32  C   -0.298991
    33  C   -0.478599
    34  H    0.149501
    35  H    0.158372
    36  H    0.152481
    37  H    0.151724
    38  H    0.156586
    39  H    0.155724
    40  H    0.160814
 Sum of Mulliken charges =  -0.00000

 Dipole moment (field-independent basis, Debye):
    X=             -0.0057    Y=             -0.0030    Z=             -0.0085  Tot=              0.0107
 Quadrupole moment (field-independent basis, Debye-Ang):
   XX=            -83.7874   YY=            -85.3269   ZZ=            -85.4518
   XY=              1.2812   XZ=             -0.5015   YZ=             -0.2539

 Normal termination of Gaussian 16 at Wed May  5 19:57:56 2021.
