 Gaussian 16, Revision A.03,
 Gaussian 16:  EM64L-G16RevA.03 25-Dec-2016

 -------------
 #p 6-31g* mp2
 -------------

 ------------------------------------------------------
 Input file generated by CHIRIPA (05-May-2021 14:57:24)
 ------------------------------------------------------
 Symbolic Z-matrix:
 Charge =  0 Multiplicity = 1

                         Standard orientation:
 ---------------------------------------------------------------------
 Center     Atomic      Atomic             Coordinates (Angstroms)
 Number     Number       Type             X           Y           Z
 ---------------------------------------------------------------------
      1          6           0       -3.426530    2.314905    0.489405
      2          6           0       -3.044094    1.500969    1.560746
      3          6           0       -2.640092    0.180800    1.340549
      4          6           0       -2.630458   -0.295032    0.030289
      5          6           0       -3.005770    0.491187   -1.057962
      6          6           0       -3.406184    1.808309   -0.814231
      7          1           0       -3.738975    3.339260    0.669600
      8          1           0       -3.058911    1.891724    2.574223
      9          1           0       -2.338975   -0.471139    2.151549
     10          1           0       -2.980631    0.073496   -2.057122
     11          1           0       -3.702660    2.438136   -1.648177
     12          7           0       -2.204658   -1.691023   -0.215280
     13          8           0       -2.204923   -2.086452   -1.379013
     14          8           0       -1.878713   -2.363338    0.760624
     15          6           0        3.283908    2.509850   -0.290323
     16          6           0        4.193869    1.622878    0.294292
     17          6           0        3.881305    0.266131    0.421137
     18          6           0        2.644246   -0.171407   -0.049536
     19          6           0        1.716499    0.687592   -0.636643
     20          6           0        2.050302    2.040204   -0.753109
     21          1           0        3.534964    3.562198   -0.384828
     22          1           0        5.152641    1.984802    0.654583
     23          1           0        4.567121   -0.442337    0.869631
     24          1           0        0.768530    0.297200   -0.986456
     25          1           0        1.341661    2.726752   -1.207558
     26          7           0        2.302107   -1.605546    0.079255
     27          8           0        1.205683   -1.966021   -0.343296
     28          8           0        3.136840   -2.341993    0.600316
 ---------------------------------------------------------------------

 SCF Done:  E(RHF) =  -868.335477262     A.U. after   16 cycles
 E2 =    -0.2602250765D+01 EUMP2 =    -0.87093772802681D+03

 The electronic state is 1-A.
 Alpha  occ. eigenvalues --  -20.60222 -20.60137 -20.60095 -20.60034 -15.85232
 Alpha  occ. eigenvalues --  -15.85146 -11.31087 -11.30924 -11.27721 -11.27654
 Alpha  occ. eigenvalues --  -11.27541 -11.27523 -11.27520 -11.27345 -11.26844
 Alpha  occ. eigenvalues --  -11.26792 -11.26638 -11.26610  -1.59251  -1.59103
 Alpha  occ. eigenvalues --   -1.38798  -1.38658  -1.19297  -1.19130  -1.08578
 Alpha  occ. eigenvalues --   -1.08467  -1.04765  -1.04581  -0.95320  -0.95240
 Alpha  occ. eigenvalues --   -0.86132  -0.85967  -0.82150  -0.82073  -0.77095
 Alpha  occ. eigenvalues --   -0.77083  -0.71551  -0.71358  -0.70637  -0.70367
 Alpha  occ. eigenvalues --   -0.70292  -0.70211  -0.64918  -0.64776  -0.64747
 Alpha  occ. eigenvalues --   -0.64593  -0.62091  -0.61929  -0.55232  -0.55083
 Alpha  occ. eigenvalues --   -0.53111  -0.52885  -0.52845  -0.52663  -0.48272
 Alpha  occ. eigenvalues --   -0.48198  -0.48095  -0.48060  -0.44328  -0.43718
 Alpha  occ. eigenvalues --   -0.37318  -0.37127  -0.36411  -0.36194
 Alpha virt. eigenvalues --    0.05432   0.05490   0.11196   0.11456   0.16838
 Alpha virt. eigenvalues --    0.16913   0.21370   0.21487   0.27169   0.27333
 Alpha virt. eigenvalues --    0.28174   0.28383   0.30563   0.31177   0.32292

 Mulliken charges:
               1
     1  C   -0.173714
     2  C   -0.218524
     3  C   -0.171712
     4  C    0.158231
     5  C   -0.178410
     6  C   -0.220384
     7  H    0.223752
     8  H    0.223168
     9  H    0.278531
    10  H    0.276188
    11  H    0.221570
    12  N    0.493053
    13  O   -0.459977
    14  O   -0.449893
    15  C   -0.172061
    16  C   -0.218624
    17  C   -0.171241
    18  C    0.159240
    19  C   -0.171399
    20  C   -0.218773
    21  H    0.223229
    22  H    0.222344
    23  H    0.275954
    24  H    0.273877
    25  H    0.220049
    26  N    0.488560
    27  O   -0.451037
    28  O   -0.461998
 Sum of Mulliken charges =  -0.00000

 Dipole moment (field-independent basis, Debye):
    X=             -0.3110    Y=              9.5625    Z=              0.4938  Tot=              9.5802
 Quadrupole moment (field-independent basis, Debye-Ang):
   XX=            -88.1126   YY=           -110.4429   ZZ=            -99.7320
   XY=             -0.0990   XZ=             -0.7075   YZ=             -1.3980

 Normal termination of Gaussian 16 at Thu May  6 06:39:43 2021.
