 Gaussian 16, Revision A.03,
 Gaussian 16:  EM64L-G16RevA.03 25-Dec-2016

 -------------
 #p 6-31g* mp2
 -------------

 ------------------------------------------------------
 Input file generated by CHIRIPA (05-May-2021 14:51:04)
 ------------------------------------------------------
 Symbolic Z-matrix:
 Charge =  0 Multiplicity = 1

                         Standard orientation:
 ---------------------------------------------------------------------
 Center     Atomic      Atomic             Coordinates (Angstroms)
 Number     Number       Type             X           Y           Z
 ---------------------------------------------------------------------
      1          6           0        0.000000   -0.000000   -2.523078
      2          6           0        0.000000    1.211000   -1.823078
      3          6           0        0.000000    1.223000   -0.425078
      4          6           0        0.000000    0.000000    0.243922
      5          6           0       -0.000000   -1.223000   -0.425078
      6          6           0       -0.000000   -1.211000   -1.823078
      7          1           0        0.000000   -0.000000   -3.609078
      8          1           0        0.000000    2.153000   -2.364078
      9          1           0        0.000000    2.146000    0.141922
     10          1           0       -0.000000   -2.146000    0.141922
     11          1           0       -0.000000   -2.153000   -2.364078
     12          7           0        0.000000    0.000000    1.723922
     13          8           0        0.000000   -1.091000    2.289922
     14          8           0        0.000000    1.091000    2.289922
 ---------------------------------------------------------------------

 SCF Done:  E(RHF) =  -434.168913250     A.U. after   14 cycles
 E2 =    -0.1298970799D+01 EUMP2 =    -0.43546788404925D+03

 The electronic state is 1-A1.
 Alpha  occ. eigenvalues --  -20.60775 -20.60770 -15.85830 -11.31203 -11.27775
 Alpha  occ. eigenvalues --  -11.27771 -11.27522 -11.26795 -11.26786  -1.59851
 Alpha  occ. eigenvalues --   -1.39404  -1.19379  -1.08773  -1.04783  -0.95605
 Alpha  occ. eigenvalues --   -0.86181  -0.82437  -0.77482  -0.72047  -0.71174
 Alpha  occ. eigenvalues --   -0.70487  -0.65032  -0.64787  -0.62131  -0.55286
 Alpha  occ. eigenvalues --   -0.53113  -0.52876  -0.48807  -0.48802  -0.44807
 Alpha  occ. eigenvalues --   -0.37362  -0.36388
 Alpha virt. eigenvalues --    0.05054   0.11266   0.16544   0.21406   0.27309
 Alpha virt. eigenvalues --    0.28304   0.30961   0.32525   0.34303   0.36771
 Alpha virt. eigenvalues --    0.43265   0.44302   0.46255   0.49235   0.51054

 Mulliken charges:
               1
     1  C   -0.170811
     2  C   -0.218549
     3  C   -0.170991
     4  C    0.158538
     5  C   -0.170991
     6  C   -0.218549
     7  H    0.225635
     8  H    0.223498
     9  H    0.275689
    10  H    0.275689
    11  H    0.223498
    12  N    0.488096
    13  O   -0.460376
    14  O   -0.460376
 Sum of Mulliken charges =  -0.00000

 Dipole moment (field-independent basis, Debye):
    X=             -0.0000    Y=              0.0000    Z=             -5.2576  Tot=              5.2576
 Quadrupole moment (field-independent basis, Debye-Ang):
   XX=            -53.3282   YY=            -47.3426   ZZ=            -55.5547
   XY=              0.0000   XZ=             -0.0000   YZ=              0.0000

 Normal termination of Gaussian 16 at Wed May  5 15:00:00 2021.
