 Gaussian 16, Revision A.03,
 Gaussian 16:  EM64L-G16RevA.03 25-Dec-2016

 -------------
 #p 6-31g* mp2
 -------------

 ------------------------------------------------------
 Input file generated by CHIRIPA (05-May-2021 14:55:19)
 ------------------------------------------------------
 Symbolic Z-matrix:
 Charge =  0 Multiplicity = 1

                         Standard orientation:
 ---------------------------------------------------------------------
 Center     Atomic      Atomic             Coordinates (Angstroms)
 Number     Number       Type             X           Y           Z
 ---------------------------------------------------------------------
      1          6           0       -2.773039   -1.032132   -2.284459
      2          6           0       -3.906216   -1.049553   -1.464625
      3          6           0       -3.852327   -0.530241   -0.167722
      4          6           0       -2.643511    0.001188    0.279086
      5          6           0       -1.497329    0.032948   -0.513725
      6          6           0       -1.574325   -0.491890   -1.807233
      7          1           0       -2.823877   -1.437693   -3.290606
      8          1           0       -4.838495   -1.468481   -1.832594
      9          1           0       -4.714445   -0.531018    0.488152
     10          1           0       -0.582126    0.457211   -0.118980
     11          1           0       -0.692697   -0.477028   -2.441706
     12          7           0       -2.574229    0.553885    1.650262
     13          8           0       -1.497323    1.016457    2.020316
     14          8           0       -3.598143    0.514053    2.328974
     15          6           0        3.227000   -0.623347    0.025924
     16          6           0        4.359905   -1.433103    0.657433
     17          6           0        4.002086   -2.908522    0.838818
     18          1           0        2.329171   -0.709954    0.653098
     19          1           0        2.971111   -1.062018   -0.948490
     20          1           0        4.614520   -0.992205    1.629748
     21          1           0        5.255197   -1.344403    0.028783
     22          1           0        3.768288   -3.369682   -0.126206
     23          1           0        3.123971   -3.015483    1.483855
     24          1           0        4.826031   -3.468700    1.291781
     25          6           0        3.569619    0.853500   -0.161858
     26          6           0        2.436713    1.663256   -0.793367
     27          6           0        2.794532    3.138674   -0.974752
     28          1           0        3.825508    1.292170    0.812556
     29          1           0        4.467448    0.940107   -0.789033
     30          1           0        1.541421    1.574555   -0.164716
     31          1           0        2.182099    1.222357   -1.765681
     32          1           0        3.672648    3.245635   -1.619790
     33          1           0        3.028330    3.599834   -0.009728
     34          1           0        1.970587    3.698852   -1.427714
 ---------------------------------------------------------------------

 SCF Done:  E(RHF) =  -669.535821070     A.U. after   15 cycles
 E2 =    -0.2091560149D+01 EUMP2 =    -0.67162738121848D+03

 The electronic state is 1-A.
 Alpha  occ. eigenvalues --  -20.60761 -20.60754 -15.85810 -11.31133 -11.27712
 Alpha  occ. eigenvalues --  -11.27667 -11.27453 -11.26726 -11.26699 -11.22092
 Alpha  occ. eigenvalues --  -11.21764 -11.21681 -11.21622 -11.21311 -11.21186
 Alpha  occ. eigenvalues --   -1.59834  -1.39390  -1.19309  -1.08716  -1.08713
 Alpha  occ. eigenvalues --   -1.04705  -1.03783  -0.96201  -0.95555  -0.87221
 Alpha  occ. eigenvalues --   -0.86111  -0.82386  -0.79886  -0.78561  -0.77426
 Alpha  occ. eigenvalues --   -0.72032  -0.71155  -0.70429  -0.65347  -0.64962
 Alpha  occ. eigenvalues --   -0.64700  -0.62078  -0.61157  -0.59579  -0.57830
 Alpha  occ. eigenvalues --   -0.55468  -0.55222  -0.53041  -0.52925  -0.52797
 Alpha  occ. eigenvalues --   -0.52621  -0.50133  -0.48790  -0.48786  -0.48178
 Alpha  occ. eigenvalues --   -0.46899  -0.46070  -0.45979  -0.44803  -0.44039
 Alpha  occ. eigenvalues --   -0.37298  -0.36306
 Alpha virt. eigenvalues --    0.05087   0.11331   0.16588   0.19906   0.22937
 Alpha virt. eigenvalues --    0.24000   0.24687   0.25500   0.27789   0.28186
 Alpha virt. eigenvalues --    0.29881   0.30122   0.31533   0.31773   0.31980

 Mulliken charges:
               1
     1  C   -0.170539
     2  C   -0.219092
     3  C   -0.170006
     4  C    0.157871
     5  C   -0.179636
     6  C   -0.223329
     7  H    0.225381
     8  H    0.223205
     9  H    0.275380
    10  H    0.289481
    11  H    0.224655
    12  N    0.486848
    13  O   -0.461991
    14  O   -0.460223
    15  C   -0.301134
    16  C   -0.299792
    17  C   -0.476341
    18  H    0.153223
    19  H    0.143674
    20  H    0.155414
    21  H    0.151780
    22  H    0.152923
    23  H    0.157794
    24  H    0.161411
    25  C   -0.297120
    26  C   -0.309928
    27  C   -0.474621
    28  H    0.155315
    29  H    0.150289
    30  H    0.158398
    31  H    0.143727
    32  H    0.155425
    33  H    0.160813
    34  H    0.160746
 Sum of Mulliken charges =  -0.00000

 Dipole moment (field-independent basis, Debye):
    X=             -0.1106    Y=             -1.8892    Z=             -4.7304  Tot=              5.0949
 Quadrupole moment (field-independent basis, Debye-Ang):
   XX=            -88.2881   YY=            -96.1797   ZZ=            -97.2491
   XY=              6.5662   XZ=             12.1093   YZ=             -0.2612

 Normal termination of Gaussian 16 at Thu May  6 07:40:52 2021.
