 Gaussian 16, Revision A.03,
 Gaussian 16:  EM64L-G16RevA.03 25-Dec-2016

 -------------
 #p 6-31g* mp2
 -------------

 ------------------------------------------------------
 Input file generated by CHIRIPA (05-May-2021 14:51:08)
 ------------------------------------------------------
 Symbolic Z-matrix:
 Charge =  0 Multiplicity = 1

                         Standard orientation:
 ---------------------------------------------------------------------
 Center     Atomic      Atomic             Coordinates (Angstroms)
 Number     Number       Type             X           Y           Z
 ---------------------------------------------------------------------
      1          6           0       -2.340968    0.058591    0.564337
      2          6           0       -2.013489   -0.045845    2.054249
      3          6           0       -0.574940    0.362256    2.373344
      4          1           0       -1.644476   -0.573947   -0.002882
      5          1           0       -2.168921    1.090979    0.229716
      6          1           0       -2.187427   -1.077408    2.386272
      7          1           0       -2.710965    0.586866    2.618004
      8          1           0       -0.391936    1.398027    2.069554
      9          1           0        0.134577   -0.275704    1.836506
     10          1           0       -0.362372    0.280072    3.443822
     11          6           0       -3.775508   -0.346064    0.229556
     12          6           0       -4.102987   -0.241627   -1.260356
     13          6           0       -5.541537   -0.649728   -1.579452
     14          1           0       -3.947555   -1.378451    0.564177
     15          1           0       -4.472001    0.286474    0.796775
     16          1           0       -3.405511   -0.874339   -1.824111
     17          1           0       -3.929049    0.789935   -1.592380
     18          1           0       -6.251053   -0.011769   -1.042613
     19          1           0       -5.724540   -1.685499   -1.275661
     20          1           0       -5.754104   -0.567545   -2.649929
     21          6           0        2.759816    0.770892   -0.079058
     22          6           0        2.650016    1.948416   -1.048266
     23          6           0        2.051193    3.195754   -0.397608
     24          1           0        1.762476    0.536419    0.317525
     25          1           0        3.375922    1.068823    0.780619
     26          1           0        2.035445    1.647908   -1.906527
     27          1           0        3.647706    2.179990   -1.442734
     28          1           0        2.666423    3.522834    0.446851
     29          1           0        1.045002    2.987728   -0.019578
     30          1           0        1.981855    4.025262   -1.108218
     31          6           0        3.356660   -0.483419   -0.714834
     32          6           0        3.466460   -1.660944    0.254373
     33          6           0        4.065283   -2.908281   -0.396285
     34          1           0        2.740554   -0.781352   -1.574512
     35          1           0        4.354001   -0.248946   -1.111418
     36          1           0        2.468772   -1.892518    0.648841
     37          1           0        4.081032   -1.360435    1.112634
     38          1           0        5.071474   -2.700256   -0.774315
     39          1           0        3.450053   -3.235361   -1.240744
     40          1           0        4.134621   -3.737790    0.314325
 ---------------------------------------------------------------------

 SCF Done:  E(RHF) =  -470.733044990     A.U. after   11 cycles
 E2 =    -0.1583363887D+01 EUMP2 =    -0.47231640887693D+03

 The electronic state is 1-A.
 Alpha  occ. eigenvalues --  -11.21652 -11.21642 -11.21602 -11.21539 -11.21470
 Alpha  occ. eigenvalues --  -11.21405 -11.21342 -11.21230 -11.21107 -11.21101
 Alpha  occ. eigenvalues --  -11.21071 -11.21037  -1.08488  -1.08378  -1.03581
 Alpha  occ. eigenvalues --   -1.03494  -0.96035  -0.95938  -0.87055  -0.86954
 Alpha  occ. eigenvalues --   -0.79673  -0.79542  -0.78341  -0.78142  -0.65133
 Alpha  occ. eigenvalues --   -0.65008  -0.60987  -0.60891  -0.59403  -0.59304
 Alpha  occ. eigenvalues --   -0.57677  -0.57531  -0.55386  -0.55170  -0.52718
 Alpha  occ. eigenvalues --   -0.52658  -0.52516  -0.52323  -0.50029  -0.49836
 Alpha  occ. eigenvalues --   -0.48103  -0.47822  -0.46710  -0.46581  -0.46023
 Alpha  occ. eigenvalues --   -0.45763  -0.45689  -0.45309  -0.43834  -0.43739
 Alpha virt. eigenvalues --    0.20718   0.23048   0.23258   0.24192   0.25640
 Alpha virt. eigenvalues --    0.26150   0.27064   0.27666   0.27878   0.29406
 Alpha virt. eigenvalues --    0.30686   0.31417   0.31753   0.31864   0.32440

 Mulliken charges:
               1
     1  C   -0.298647
     2  C   -0.299766
     3  C   -0.482147
     4  H    0.148828
     5  H    0.149327
     6  H    0.152076
     7  H    0.152266
     8  H    0.157393
     9  H    0.159742
    10  H    0.161078
    11  C   -0.298226
    12  C   -0.299718
    13  C   -0.475755
    14  H    0.149724
    15  H    0.149982
    16  H    0.151813
    17  H    0.152069
    18  H    0.155305
    19  H    0.155249
    20  H    0.160390
    21  C   -0.306457
    22  C   -0.298984
    23  C   -0.477235
    24  H    0.159865
    25  H    0.148969
    26  H    0.151625
    27  H    0.151510
    28  H    0.155243
    29  H    0.156081
    30  H    0.159908
    31  C   -0.297961
    32  C   -0.300836
    33  C   -0.475640
    34  H    0.148881
    35  H    0.149461
    36  H    0.151672
    37  H    0.152351
    38  H    0.155434
    39  H    0.154969
    40  H    0.160158
 Sum of Mulliken charges =  -0.00000

 Dipole moment (field-independent basis, Debye):
    X=             -0.0325    Y=             -0.0020    Z=              0.0318  Tot=              0.0455
 Quadrupole moment (field-independent basis, Debye-Ang):
   XX=            -85.0127   YY=            -84.8409   ZZ=            -84.9295
   XY=              0.1222   XZ=             -0.0032   YZ=             -0.1795

 Normal termination of Gaussian 16 at Thu May  6 00:31:02 2021.
