 Gaussian 16, Revision A.03,
 Gaussian 16:  EM64L-G16RevA.03 25-Dec-2016

 -------------
 #p 6-31g* mp2
 -------------

 ------------------------------------------------------
 Input file generated by CHIRIPA (05-May-2021 14:51:09)
 ------------------------------------------------------
 Symbolic Z-matrix:
 Charge =  0 Multiplicity = 1

                         Standard orientation:
 ---------------------------------------------------------------------
 Center     Atomic      Atomic             Coordinates (Angstroms)
 Number     Number       Type             X           Y           Z
 ---------------------------------------------------------------------
      1          6           0       -4.263421   -0.377064    0.080228
      2          6           0       -5.601599   -0.797268   -0.528619
      3          6           0       -6.024861   -2.205838   -0.110799
      4          1           0       -3.489670   -1.097634   -0.218156
      5          1           0       -4.334107   -0.429954    1.175491
      6          1           0       -5.528843   -0.742273   -1.622373
      7          1           0       -6.372216   -0.075508   -0.228907
      8          1           0       -6.125229   -2.271045    0.977445
      9          1           0       -5.277063   -2.941599   -0.423937
     10          1           0       -6.984051   -2.485854   -0.557348
     11          6           0       -3.826816    1.028744   -0.328194
     12          6           0       -2.488638    1.448948    0.280653
     13          6           0       -2.065376    2.857518   -0.137167
     14          1           0       -3.756130    1.081634   -1.423457
     15          1           0       -4.600567    1.749314   -0.029810
     16          1           0       -1.718021    0.727187   -0.019058
     17          1           0       -2.561395    1.393952    1.374407
     18          1           0       -2.813174    3.593278    0.175972
     19          1           0       -1.965009    2.922725   -1.225411
     20          1           0       -1.106186    3.137534    0.309383
     21          6           0        4.775209   -0.189704    0.302499
     22          6           0        5.737932   -0.423232   -0.862238
     23          6           0        7.194792   -0.146722   -0.489552
     24          1           0        4.875624    0.847456    0.650583
     25          1           0        5.067356   -0.831816    1.144957
     26          1           0        5.443222    0.218118   -1.702733
     27          1           0        5.635075   -1.459901   -1.207714
     28          1           0        7.511971   -0.796089    0.332835
     29          1           0        7.319027    0.891464   -0.164996
     30          1           0        7.865727   -0.319930   -1.336727
     31          6           0        3.315029   -0.461976   -0.054534
     32          6           0        2.352305   -0.228447    1.110204
     33          6           0        0.895445   -0.504958    0.737518
     34          1           0        3.022882    0.180137   -0.896992
     35          1           0        3.214613   -1.499135   -0.402618
     36          1           0        2.455162    0.808222    1.455679
     37          1           0        2.647016   -0.869798    1.950699
     38          1           0        0.771210   -1.543144    0.412961
     39          1           0        0.578267    0.144410   -0.084870
     40          1           0        0.224511   -0.331749    1.584692
 ---------------------------------------------------------------------

 SCF Done:  E(RHF) =  -470.732813708     A.U. after   11 cycles
 E2 =    -0.1582757258D+01 EUMP2 =    -0.47231557096598D+03

 The electronic state is 1-A.
 Alpha  occ. eigenvalues --  -11.21610 -11.21608 -11.21558 -11.21448 -11.21416
 Alpha  occ. eigenvalues --  -11.21357 -11.21337 -11.21275 -11.21077 -11.21065
 Alpha  occ. eigenvalues --  -11.21038 -11.21028  -1.08443  -1.08361  -1.03556
 Alpha  occ. eigenvalues --   -1.03455  -0.96007  -0.95915  -0.87034  -0.86927
 Alpha  occ. eigenvalues --   -0.79698  -0.79454  -0.78272  -0.78150  -0.65096
 Alpha  occ. eigenvalues --   -0.64980  -0.61045  -0.60790  -0.59420  -0.59235
 Alpha  occ. eigenvalues --   -0.57600  -0.57542  -0.55339  -0.55159  -0.52730
 Alpha  occ. eigenvalues --   -0.52599  -0.52425  -0.52340  -0.50025  -0.49810
 Alpha  occ. eigenvalues --   -0.47961  -0.47820  -0.46770  -0.46428  -0.45849
 Alpha  occ. eigenvalues --   -0.45747  -0.45687  -0.45503  -0.43787  -0.43691
 Alpha virt. eigenvalues --    0.22119   0.23003   0.23644   0.24912   0.26197
 Alpha virt. eigenvalues --    0.26672   0.26855   0.27539   0.27896   0.29068
 Alpha virt. eigenvalues --    0.30554   0.31138   0.31599   0.31870   0.32080

 Mulliken charges:
               1
     1  C   -0.298325
     2  C   -0.299555
     3  C   -0.475654
     4  H    0.150029
     5  H    0.149206
     6  H    0.151787
     7  H    0.151812
     8  H    0.155075
     9  H    0.155136
    10  H    0.160072
    11  C   -0.297648
    12  C   -0.307052
    13  C   -0.476047
    14  H    0.148910
    15  H    0.148986
    16  H    0.162877
    17  H    0.150529
    18  H    0.155072
    19  H    0.154406
    20  H    0.159752
    21  C   -0.298284
    22  C   -0.299653
    23  C   -0.475714
    24  H    0.149692
    25  H    0.149572
    26  H    0.151931
    27  H    0.151912
    28  H    0.155196
    29  H    0.155214
    30  H    0.160273
    31  C   -0.298612
    32  C   -0.299769
    33  C   -0.478812
    34  H    0.149602
    35  H    0.149562
    36  H    0.151939
    37  H    0.151903
    38  H    0.154698
    39  H    0.156898
    40  H    0.163083
 Sum of Mulliken charges =  -0.00000

 Dipole moment (field-independent basis, Debye):
    X=              0.0348    Y=             -0.0218    Z=              0.0066  Tot=              0.0416
 Quadrupole moment (field-independent basis, Debye-Ang):
   XX=            -86.1643   YY=            -84.7919   ZZ=            -84.1113
   XY=             -0.8603   XZ=             -0.4121   YZ=              0.2291

 Normal termination of Gaussian 16 at Wed May  5 21:22:37 2021.
