 Gaussian 16, Revision A.03,
 Gaussian 16:  EM64L-G16RevA.03 25-Dec-2016

 -------------
 #p 6-31g* mp2
 -------------

 ------------------------------------------------------
 Input file generated by CHIRIPA (05-May-2021 14:53:17)
 ------------------------------------------------------
 Symbolic Z-matrix:
 Charge =  0 Multiplicity = 1

                         Standard orientation:
 ---------------------------------------------------------------------
 Center     Atomic      Atomic             Coordinates (Angstroms)
 Number     Number       Type             X           Y           Z
 ---------------------------------------------------------------------
      1          6           0        4.991455   -0.349431   -0.215805
      2          6           0        5.620081    1.035835   -0.061360
      3          6           0        7.023710    1.118356   -0.662034
      4          1           0        5.640977   -1.095242    0.262558
      5          1           0        4.950542   -0.608969   -1.282745
      6          1           0        5.658529    1.293268    1.004880
      7          1           0        4.968891    1.778460   -0.539979
      8          1           0        6.999102    0.887236   -1.731884
      9          1           0        7.692658    0.399287   -0.178248
     10          1           0        7.454296    2.117203   -0.540545
     11          6           0        3.588124   -0.447703    0.379790
     12          6           0        2.959498   -1.832968    0.225344
     13          6           0        1.555869   -1.915489    0.826019
     14          1           0        3.629037   -0.188164    1.446730
     15          1           0        2.938602    0.298109   -0.098573
     16          1           0        3.610688   -2.575593    0.703964
     17          1           0        2.921050   -2.090401   -0.840895
     18          1           0        0.886920   -1.196420    0.342233
     19          1           0        1.580477   -1.684370    1.895869
     20          1           0        1.125282   -2.914336    0.704530
     21          6           0       -2.422384    2.629530    0.295162
     22          6           0       -1.558552    1.531172    0.232501
     23          6           0       -2.062191    0.242209    0.033830
     24          6           0       -3.441212    0.087270   -0.098784
     25          6           0       -4.327571    1.161656   -0.040904
     26          6           0       -3.801704    2.441598    0.158501
     27          1           0       -2.022511    3.627323    0.449780
     28          1           0       -0.486912    1.674135    0.338307
     29          1           0       -1.416121   -0.625693   -0.018695
     30          1           0       -5.391188    0.987664   -0.149830
     31          1           0       -4.474944    3.292754    0.206743
     32          7           0       -3.986157   -1.272522   -0.309497
     33          8           0       -5.205000   -1.382445   -0.423414
     34          8           0       -3.184125   -2.202656   -0.356746
 ---------------------------------------------------------------------

 SCF Done:  E(RHF) =  -669.535498610     A.U. after   15 cycles
 E2 =    -0.2091090615D+01 EUMP2 =    -0.67162658922408D+03

 The electronic state is 1-A.
 Alpha  occ. eigenvalues --  -20.60716 -20.60710 -15.85767 -11.31124 -11.27705
 Alpha  occ. eigenvalues --  -11.27667 -11.27453 -11.26723 -11.26705 -11.22018
 Alpha  occ. eigenvalues --  -11.21993 -11.21897 -11.21762 -11.21606 -11.21384
 Alpha  occ. eigenvalues --   -1.59790  -1.39343  -1.19303  -1.08865  -1.08701
 Alpha  occ. eigenvalues --   -1.04709  -1.03946  -0.96406  -0.95536  -0.87424
 Alpha  occ. eigenvalues --   -0.86105  -0.82370  -0.80013  -0.78686  -0.77413
 Alpha  occ. eigenvalues --   -0.71987  -0.71113  -0.70424  -0.65498  -0.64958
 Alpha  occ. eigenvalues --   -0.64717  -0.62117  -0.61307  -0.59750  -0.58005
 Alpha  occ. eigenvalues --   -0.55730  -0.55199  -0.53084  -0.53037  -0.52915
 Alpha  occ. eigenvalues --   -0.52695  -0.50348  -0.48746  -0.48741  -0.48324
 Alpha  occ. eigenvalues --   -0.47044  -0.46233  -0.46142  -0.44750  -0.44192
 Alpha  occ. eigenvalues --   -0.37290  -0.36309
 Alpha virt. eigenvalues --    0.05120   0.11342   0.16610   0.19707   0.22633
 Alpha virt. eigenvalues --    0.23782   0.25264   0.26335   0.26872   0.28158
 Alpha virt. eigenvalues --    0.29108   0.30173   0.31401   0.31601   0.31696

 Mulliken charges:
               1
     1  C   -0.298585
     2  C   -0.299673
     3  C   -0.475929
     4  H    0.151714
     5  H    0.151069
     6  H    0.151847
     7  H    0.149911
     8  H    0.156047
     9  H    0.156365
    10  H    0.160597
    11  C   -0.297835
    12  C   -0.300352
    13  C   -0.478348
    14  H    0.149653
    15  H    0.142927
    16  H    0.155428
    17  H    0.154995
    18  H    0.142644
    19  H    0.156938
    20  H    0.171722
    21  C   -0.170762
    22  C   -0.221508
    23  C   -0.180030
    24  C    0.160222
    25  C   -0.170429
    26  C   -0.219001
    27  H    0.225392
    28  H    0.223670
    29  H    0.285844
    30  H    0.275398
    31  H    0.223243
    32  N    0.487658
    33  O   -0.460756
    34  O   -0.460077
 Sum of Mulliken charges =  -0.00000

 Dipole moment (field-independent basis, Debye):
    X=              2.0716    Y=              4.6641    Z=              0.7634  Tot=              5.1602
 Quadrupole moment (field-independent basis, Debye-Ang):
   XX=           -104.1502   YY=            -93.3339   ZZ=            -95.1260
   XY=            -19.1107   XZ=             -1.8440   YZ=             -0.7016

 Normal termination of Gaussian 16 at Thu May  6 10:41:15 2021.
