 Gaussian 16, Revision A.03,
 Gaussian 16:  EM64L-G16RevA.03 25-Dec-2016

 -------------
 #p 6-31g* mp2
 -------------

 ------------------------------------------------------
 Input file generated by CHIRIPA (05-May-2021 14:53:16)
 ------------------------------------------------------
 Symbolic Z-matrix:
 Charge =  0 Multiplicity = 1

                         Standard orientation:
 ---------------------------------------------------------------------
 Center     Atomic      Atomic             Coordinates (Angstroms)
 Number     Number       Type             X           Y           Z
 ---------------------------------------------------------------------
      1          6           0        3.854558   -0.226204   -0.035516
      2          6           0        4.291990   -0.801003    1.312165
      3          6           0        5.231307   -1.998689    1.167163
      4          1           0        3.359185   -1.013918   -0.619516
      5          1           0        4.745328    0.072145   -0.605527
      6          1           0        3.400593   -1.096902    1.880030
      7          1           0        4.786210   -0.011778    1.893101
      8          1           0        6.137513   -1.713873    0.622854
      9          1           0        4.744023   -2.805162    0.609708
     10          1           0        5.531553   -2.393830    2.142650
     11          6           0        2.915245    0.971677    0.092934
     12          6           0        2.477813    1.546476   -1.254747
     13          6           0        1.538496    2.744162   -1.109745
     14          1           0        2.024475    0.673329    0.662945
     15          1           0        3.410619    1.759392    0.676934
     16          1           0        1.983593    0.757251   -1.835683
     17          1           0        3.369210    1.842375   -1.822612
     18          1           0        2.025780    3.550636   -0.552291
     19          1           0        0.632291    2.459346   -0.565436
     20          1           0        1.238250    3.139304   -2.085232
     21          6           0       -3.468926    1.192366    1.844440
     22          6           0       -3.909921   -0.132116    1.756172
     23          6           0       -3.459731   -0.963184    0.726025
     24          6           0       -2.564747   -0.434626   -0.202910
     25          6           0       -2.106985    0.880674   -0.141838
     26          6           0       -2.570450    1.693650    0.896825
     27          1           0       -3.823800    1.830932    2.647990
     28          1           0       -4.607672   -0.524113    2.490697
     29          1           0       -3.784910   -1.992361    0.633980
     30          1           0       -1.411247    1.243060   -0.888859
     31          1           0       -2.226266    2.721861    0.962890
     32          7           0       -2.081125   -1.304865   -1.297989
     33          8           0       -1.292801   -0.815247   -2.103878
     34          8           0       -2.499542   -2.460095   -1.329685
 ---------------------------------------------------------------------

 SCF Done:  E(RHF) =  -669.535757281     A.U. after   15 cycles
 E2 =    -0.2091536254D+01 EUMP2 =    -0.67162729353508D+03

 The electronic state is 1-A.
 Alpha  occ. eigenvalues --  -20.60838 -20.60831 -15.85885 -11.31222 -11.27796
 Alpha  occ. eigenvalues --  -11.27759 -11.27532 -11.26809 -11.26793 -11.21462
 Alpha  occ. eigenvalues --  -11.21430 -11.21359 -11.21279 -11.21142 -11.20869
 Alpha  occ. eigenvalues --   -1.59908  -1.39462  -1.19397  -1.08797  -1.08291
 Alpha  occ. eigenvalues --   -1.04798  -1.03449  -0.95938  -0.95633  -0.86958
 Alpha  occ. eigenvalues --   -0.86193  -0.82468  -0.79505  -0.78088  -0.77518
 Alpha  occ. eigenvalues --   -0.72104  -0.71230  -0.70513  -0.65052  -0.64958
 Alpha  occ. eigenvalues --   -0.64764  -0.62198  -0.60807  -0.59289  -0.57524
 Alpha  occ. eigenvalues --   -0.55400  -0.55146  -0.53128  -0.52889  -0.52630
 Alpha  occ. eigenvalues --   -0.52349  -0.49873  -0.48859  -0.48857  -0.47827
 Alpha  occ. eigenvalues --   -0.46508  -0.45646  -0.45534  -0.44868  -0.43686
 Alpha  occ. eigenvalues --   -0.37378  -0.36392
 Alpha virt. eigenvalues --    0.04978   0.11228   0.16456   0.20320   0.23024
 Alpha virt. eigenvalues --    0.24064   0.26057   0.27113   0.27709   0.27995
 Alpha virt. eigenvalues --    0.29273   0.30645   0.31688   0.31720   0.32234

 Mulliken charges:
               1
     1  C   -0.299761
     2  C   -0.299430
     3  C   -0.475957
     4  H    0.156103
     5  H    0.149226
     6  H    0.151354
     7  H    0.150035
     8  H    0.154945
     9  H    0.157617
    10  H    0.159120
    11  C   -0.297821
    12  C   -0.304025
    13  C   -0.477551
    14  H    0.147749
    15  H    0.146901
    16  H    0.167310
    17  H    0.152709
    18  H    0.155009
    19  H    0.142275
    20  H    0.163196
    21  C   -0.170662
    22  C   -0.218641
    23  C   -0.170752
    24  C    0.158881
    25  C   -0.177125
    26  C   -0.220333
    27  H    0.225890
    28  H    0.223644
    29  H    0.275612
    30  H    0.283009
    31  H    0.224721
    32  N    0.487988
    33  O   -0.461258
    34  O   -0.459977
 Sum of Mulliken charges =  -0.00000

 Dipole moment (field-independent basis, Debye):
    X=             -1.6826    Y=              2.9752    Z=              3.7732  Tot=              5.0911
 Quadrupole moment (field-independent basis, Debye-Ang):
   XX=            -84.7048   YY=            -95.4412   ZZ=            -96.2331
   XY=             -3.8211   XZ=            -11.3063   YZ=             -3.7457

 Normal termination of Gaussian 16 at Wed May  5 15:39:46 2021.
