 Gaussian 16, Revision A.03,
 Gaussian 16:  EM64L-G16RevA.03 25-Dec-2016

 -------------
 #p 6-31g* mp2
 -------------

 ------------------------------------------------------
 Input file generated by CHIRIPA (05-May-2021 14:51:12)
 ------------------------------------------------------
 Symbolic Z-matrix:
 Charge =  0 Multiplicity = 1

                         Standard orientation:
 ---------------------------------------------------------------------
 Center     Atomic      Atomic             Coordinates (Angstroms)
 Number     Number       Type             X           Y           Z
 ---------------------------------------------------------------------
      1          6           0        2.722732   -0.287949    0.830733
      2          6           0        1.385714   -0.973825    0.547994
      3          6           0        0.406732   -0.865402    1.717453
      4          1           0        3.172381   -0.731697    1.729537
      5          1           0        2.542024    0.770970    1.061882
      6          1           0        1.569015   -2.030820    0.316091
      7          1           0        0.939286   -0.528523   -0.350351
      8          1           0        0.194623    0.184005    1.946267
      9          1           0        0.827931   -1.326828    2.616496
     10          1           0       -0.542393   -1.362432    1.493886
     11          6           0        3.712014   -0.387759   -0.329045
     12          6           0        5.049032    0.298117   -0.046306
     13          6           0        6.028014    0.189694   -1.215765
     14          1           0        3.892722   -1.446679   -0.560194
     15          1           0        3.262365    0.055989   -1.227849
     16          1           0        5.495461   -0.147185    0.852039
     17          1           0        4.865731    1.355111    0.185597
     18          1           0        5.606815    0.651119   -2.114808
     19          1           0        6.240123   -0.859713   -1.444579
     20          1           0        6.977139    0.686724   -0.992198
     21          6           0       -3.441333   -0.246915   -0.688245
     22          6           0       -3.630386   -1.549097    0.090579
     23          6           0       -4.078536   -2.709731   -0.798176
     24          1           0       -4.384416    0.014561   -1.187413
     25          1           0       -2.700737   -0.407890   -1.483857
     26          1           0       -4.369383   -1.385336    0.885361
     27          1           0       -2.686796   -1.807402    0.588106
     28          1           0       -3.339596   -2.901687   -1.582855
     29          1           0       -5.031743   -2.477222   -1.283910
     30          1           0       -4.207598   -3.630687   -0.221078
     31          6           0       -2.993413    0.922623    0.186557
     32          6           0       -2.804360    2.224805   -0.592266
     33          6           0       -2.356211    3.385440    0.296488
     34          1           0       -3.734009    1.083599    0.982169
     35          1           0       -2.050330    0.661147    0.685725
     36          1           0       -3.747950    2.483111   -1.089794
     37          1           0       -2.065363    2.061044   -1.387050
     38          1           0       -1.403004    3.152930    0.782221
     39          1           0       -3.095151    3.577394    1.081167
     40          1           0       -2.227148    4.306395   -0.280611
 ---------------------------------------------------------------------

 SCF Done:  E(RHF) =  -470.732750765     A.U. after   11 cycles
 E2 =    -0.1583718685D+01 EUMP2 =    -0.47231646944999D+03

 The electronic state is 1-A.
 Alpha  occ. eigenvalues --  -11.21693 -11.21636 -11.21593 -11.21581 -11.21463
 Alpha  occ. eigenvalues --  -11.21401 -11.21361 -11.21266 -11.21147 -11.21098
 Alpha  occ. eigenvalues --  -11.21080 -11.21065  -1.08496  -1.08399  -1.03596
 Alpha  occ. eigenvalues --   -1.03520  -0.96056  -0.95955  -0.87068  -0.86981
 Alpha  occ. eigenvalues --   -0.79666  -0.79584  -0.78306  -0.78205  -0.65202
 Alpha  occ. eigenvalues --   -0.64992  -0.61037  -0.60903  -0.59460  -0.59287
 Alpha  occ. eigenvalues --   -0.57653  -0.57576  -0.55426  -0.55164  -0.52815
 Alpha  occ. eigenvalues --   -0.52627  -0.52483  -0.52374  -0.50056  -0.49855
 Alpha  occ. eigenvalues --   -0.48054  -0.47836  -0.46744  -0.46581  -0.45846
 Alpha  occ. eigenvalues --   -0.45793  -0.45728  -0.45588  -0.43801  -0.43733
 Alpha virt. eigenvalues --    0.20317   0.23113   0.23627   0.24394   0.26255
 Alpha virt. eigenvalues --    0.26541   0.26851   0.27390   0.28033   0.28780
 Alpha virt. eigenvalues --    0.30363   0.31565   0.31810   0.31935   0.32171

 Mulliken charges:
               1
     1  C   -0.298578
     2  C   -0.300205
     3  C   -0.485353
     4  H    0.150064
     5  H    0.149648
     6  H    0.152401
     7  H    0.151758
     8  H    0.155956
     9  H    0.156466
    10  H    0.167685
    11  C   -0.298299
    12  C   -0.299725
    13  C   -0.475748
    14  H    0.149657
    15  H    0.149628
    16  H    0.152050
    17  H    0.152061
    18  H    0.155230
    19  H    0.155231
    20  H    0.160410
    21  C   -0.297558
    22  C   -0.307024
    23  C   -0.475221
    24  H    0.149564
    25  H    0.148978
    26  H    0.152239
    27  H    0.157754
    28  H    0.155183
    29  H    0.155287
    30  H    0.160114
    31  C   -0.307064
    32  C   -0.299183
    33  C   -0.475606
    34  H    0.149001
    35  H    0.160505
    36  H    0.151814
    37  H    0.151115
    38  H    0.154141
    39  H    0.155457
    40  H    0.160166
 Sum of Mulliken charges =  -0.00000

 Dipole moment (field-independent basis, Debye):
    X=              0.0305    Y=             -0.0191    Z=              0.0243  Tot=              0.0435
 Quadrupole moment (field-independent basis, Debye-Ang):
   XX=            -84.4748   YY=            -84.8742   ZZ=            -85.4376
   XY=             -0.8700   XZ=              0.3914   YZ=             -0.7887

 Normal termination of Gaussian 16 at Thu May  6 05:28:59 2021.
