 Gaussian 16, Revision A.03,
 Gaussian 16:  EM64L-G16RevA.03 25-Dec-2016

 -------------
 #p 6-31g* mp2
 -------------

 ------------------------------------------------------
 Input file generated by CHIRIPA (05-May-2021 14:53:15)
 ------------------------------------------------------
 Symbolic Z-matrix:
 Charge =  0 Multiplicity = 1

                         Standard orientation:
 ---------------------------------------------------------------------
 Center     Atomic      Atomic             Coordinates (Angstroms)
 Number     Number       Type             X           Y           Z
 ---------------------------------------------------------------------
      1          6           0        3.424712   -0.397750   -0.063307
      2          6           0        4.460322   -1.348092    0.538646
      3          6           0        4.167913   -2.815921    0.225964
      4          1           0        2.428443   -0.663482    0.315875
      5          1           0        3.393607   -0.542520   -1.152100
      6          1           0        4.490451   -1.200595    1.625822
      7          1           0        5.454266   -1.079946    0.158136
      8          1           0        4.158001   -2.984815   -0.855691
      9          1           0        3.188709   -3.106149    0.620334
     10          1           0        4.920520   -3.477734    0.665790
     11          6           0        3.703415    1.073194    0.240631
     12          6           0        2.667806    2.023536   -0.361322
     13          6           0        2.960215    3.491365   -0.048640
     14          1           0        3.734520    1.217964    1.329423
     15          1           0        4.699685    1.338925   -0.138551
     16          1           0        1.673862    1.755390    0.019188
     17          1           0        2.637677    1.876039   -1.448499
     18          1           0        3.939418    3.781593   -0.443011
     19          1           0        2.970127    3.660259    1.033015
     20          1           0        2.207608    4.153178   -0.488466
     21          6           0       -5.019080    0.798199    0.425003
     22          6           0       -3.886135    1.599925    0.251246
     23          6           0       -2.642863    1.022326   -0.022985
     24          6           0       -2.568386   -0.366520   -0.117051
     25          6           0       -3.678958   -1.192160    0.050996
     26          6           0       -4.912064   -0.592833    0.324502
     27          1           0       -5.980935    1.255330    0.637751
     28          1           0       -3.966272    2.680489    0.328736
     29          1           0       -1.749708    1.619296   -0.161978
     30          1           0       -3.567745   -2.266466   -0.032162
     31          1           0       -5.790240   -1.217949    0.458975
     32          7           0       -1.257571   -0.989498   -0.406983
     33          8           0       -1.218407   -2.215483   -0.484864
     34          8           0       -0.294139   -0.240009   -0.550861
 ---------------------------------------------------------------------

 SCF Done:  E(RHF) =  -669.535965759     A.U. after   15 cycles
 E2 =    -0.2091944729D+01 EUMP2 =    -0.67162791048778D+03

 The electronic state is 1-A.
 Alpha  occ. eigenvalues --  -20.61030 -20.61025 -15.86051 -11.31348 -11.27908
 Alpha  occ. eigenvalues --  -11.27904 -11.27639 -11.26907 -11.26898 -11.20420
 Alpha  occ. eigenvalues --  -11.20367 -11.20335 -11.20204 -11.19854 -11.19738
 Alpha  occ. eigenvalues --   -1.60088  -1.39646  -1.19513  -1.08923  -1.07153
 Alpha  occ. eigenvalues --   -1.04905  -1.02398  -0.95770  -0.94856  -0.86307
 Alpha  occ. eigenvalues --   -0.85872  -0.82609  -0.78447  -0.77668  -0.76884
 Alpha  occ. eigenvalues --   -0.72267  -0.71399  -0.70621  -0.65172  -0.64907
 Alpha  occ. eigenvalues --   -0.63789  -0.62253  -0.59810  -0.58242  -0.56456
 Alpha  occ. eigenvalues --   -0.55410  -0.54157  -0.53239  -0.52996  -0.51611
 Alpha  occ. eigenvalues --   -0.51275  -0.49109  -0.49041  -0.48724  -0.46748
 Alpha  occ. eigenvalues --   -0.45470  -0.45137  -0.44463  -0.44190  -0.42600
 Alpha  occ. eigenvalues --   -0.37490  -0.36505
 Alpha virt. eigenvalues --    0.04842   0.11150   0.16330   0.21089   0.23968
 Alpha virt. eigenvalues --    0.25125   0.26736   0.27514   0.28104   0.28990
 Alpha virt. eigenvalues --    0.29323   0.30850   0.31769   0.32540   0.32677

 Mulliken charges:
               1
     1  C   -0.302295
     2  C   -0.299261
     3  C   -0.474732
     4  H    0.172202
     5  H    0.149195
     6  H    0.146800
     7  H    0.146184
     8  H    0.155019
     9  H    0.160726
    10  H    0.153869
    11  C   -0.297963
    12  C   -0.302339
    13  C   -0.475073
    14  H    0.143830
    15  H    0.143847
    16  H    0.164881
    17  H    0.151802
    18  H    0.153011
    19  H    0.151316
    20  H    0.153192
    21  C   -0.170443
    22  C   -0.218715
    23  C   -0.170950
    24  C    0.157225
    25  C   -0.170639
    26  C   -0.218601
    27  H    0.226226
    28  H    0.224212
    29  H    0.276515
    30  H    0.275951
    31  H    0.224008
    32  N    0.493677
    33  O   -0.458516
    34  O   -0.464159
 Sum of Mulliken charges =  -0.00000

 Dipole moment (field-independent basis, Debye):
    X=             -5.0390    Y=              2.0243    Z=              0.9588  Tot=              5.5144
 Quadrupole moment (field-independent basis, Debye-Ang):
   XX=            -71.8630   YY=            -94.4252   ZZ=            -95.3062
   XY=             -2.1854   XZ=             -3.0318   YZ=             -0.9391

 Normal termination of Gaussian 16 at Thu May  6 02:40:32 2021.
