 Gaussian 16, Revision A.03,
 Gaussian 16:  EM64L-G16RevA.03 25-Dec-2016

 -------------
 #p 6-31g* mp2
 -------------

 ------------------------------------------------------
 Input file generated by CHIRIPA (05-May-2021 14:57:24)
 ------------------------------------------------------
 Symbolic Z-matrix:
 Charge =  0 Multiplicity = 1

                         Standard orientation:
 ---------------------------------------------------------------------
 Center     Atomic      Atomic             Coordinates (Angstroms)
 Number     Number       Type             X           Y           Z
 ---------------------------------------------------------------------
      1          6           0        3.204773    2.418803    0.532175
      2          6           0        4.334336    1.649781    0.233485
      3          6           0        4.199510    0.321818   -0.182306
      4          6           0        2.914325   -0.207526   -0.288999
      5          6           0        1.769587    0.533108    0.001393
      6          6           0        1.928255    1.858999    0.415381
      7          1           0        3.318770    3.449592    0.854471
      8          1           0        5.326932    2.081905    0.323293
      9          1           0        5.056926   -0.296088   -0.419896
     10          1           0        0.793136    0.074665   -0.097559
     11          1           0        1.049234    2.453867    0.646682
     12          7           0        2.758971   -1.612284   -0.728224
     13          8           0        1.615729   -2.055266   -0.814262
     14          8           0        3.783388   -2.243752   -0.978134
     15          6           0       -4.124539    1.292068   -1.580777
     16          6           0       -3.246238    1.937709   -0.704275
     17          6           0       -2.584416    1.218513    0.295374
     18          6           0       -2.825405   -0.151228    0.390373
     19          6           0       -3.694599   -0.823053   -0.467788
     20          6           0       -4.345527   -0.083826   -1.459950
     21          1           0       -4.634428    1.858537   -2.354419
     22          1           0       -3.072691    3.006145   -0.795763
     23          1           0       -1.899276    1.693146    0.987273
     24          1           0       -3.847314   -1.889194   -0.351851
     25          1           0       -5.027084   -0.587880   -2.139254
     26          7           0       -2.130530   -0.923211    1.444693
     27          8           0       -2.359967   -2.129051    1.507502
     28          8           0       -1.369608   -0.307834    2.188296
 ---------------------------------------------------------------------

 SCF Done:  E(RHF) =  -868.337406712     A.U. after   16 cycles
 E2 =    -0.2600590502D+01 EUMP2 =    -0.87093799721322D+03

 The electronic state is 1-A.
 Alpha  occ. eigenvalues --  -20.61042 -20.60965 -20.60311 -20.60287 -15.86043
 Alpha  occ. eigenvalues --  -15.85357 -11.31518 -11.30753 -11.28184 -11.27986
 Alpha  occ. eigenvalues --  -11.27787 -11.27373 -11.27332 -11.27166 -11.27160
 Alpha  occ. eigenvalues --  -11.27033 -11.26429 -11.26400  -1.60060  -1.59372
 Alpha  occ. eigenvalues --   -1.39617  -1.38926  -1.19675  -1.18956  -1.09042
 Alpha  occ. eigenvalues --   -1.08356  -1.05094  -1.04373  -0.95867  -0.95176
 Alpha  occ. eigenvalues --   -0.86486  -0.85781  -0.82699  -0.82015  -0.77752
 Alpha  occ. eigenvalues --   -0.77042  -0.72256  -0.71594  -0.71378  -0.70774
 Alpha  occ. eigenvalues --   -0.70689  -0.70078  -0.65325  -0.65094  -0.64621
 Alpha  occ. eigenvalues --   -0.64412  -0.62463  -0.61715  -0.55564  -0.54912
 Alpha  occ. eigenvalues --   -0.53401  -0.53186  -0.52687  -0.52493  -0.49037
 Alpha  occ. eigenvalues --   -0.48999  -0.48344  -0.48328  -0.44982  -0.44321
 Alpha  occ. eigenvalues --   -0.37634  -0.36957  -0.36695  -0.35953
 Alpha virt. eigenvalues --    0.04785   0.05516   0.10858   0.11690   0.16273
 Alpha virt. eigenvalues --    0.16977   0.19869   0.21952   0.25195   0.27443
 Alpha virt. eigenvalues --    0.28300   0.28739   0.30444   0.31316   0.32411

 Mulliken charges:
               1
     1  C   -0.170788
     2  C   -0.219113
     3  C   -0.170357
     4  C    0.157725
     5  C   -0.161874
     6  C   -0.216801
     7  H    0.223189
     8  H    0.221870
     9  H    0.274822
    10  H    0.274196
    11  H    0.215443
    12  N    0.488381
    13  O   -0.458342
    14  O   -0.462271
    15  C   -0.170523
    16  C   -0.217026
    17  C   -0.179810
    18  C    0.159735
    19  C   -0.167631
    20  C   -0.217302
    21  H    0.226904
    22  H    0.221597
    23  H    0.269085
    24  H    0.279869
    25  H    0.226269
    26  N    0.489065
    27  O   -0.449826
    28  O   -0.466487
 Sum of Mulliken charges =  -0.00000

 Dipole moment (field-independent basis, Debye):
    X=             -2.1711    Y=              7.3641    Z=             -2.2086  Tot=              7.9889
 Quadrupole moment (field-independent basis, Debye-Ang):
   XX=            -81.7295   YY=           -105.0554   ZZ=           -109.6002
   XY=              9.1183   XZ=             14.9025   YZ=              1.2141

 Normal termination of Gaussian 16 at Fri May  7 04:59:44 2021.
