 Gaussian 16, Revision A.03,
 Gaussian 16:  EM64L-G16RevA.03 25-Dec-2016

 -------------
 #p 6-31g* mp2
 -------------

 ------------------------------------------------------
 Input file generated by CHIRIPA (05-May-2021 14:57:20)
 ------------------------------------------------------
 Symbolic Z-matrix:
 Charge =  0 Multiplicity = 1

                         Standard orientation:
 ---------------------------------------------------------------------
 Center     Atomic      Atomic             Coordinates (Angstroms)
 Number     Number       Type             X           Y           Z
 ---------------------------------------------------------------------
      1          6           0       -3.451100   -2.385700    0.357363
      2          6           0       -2.872898   -1.535641    1.305837
      3          6           0       -2.808652   -0.157653    1.078748
      4          6           0       -3.334703    0.338536   -0.113039
      5          6           0       -3.917039   -0.482597   -1.077361
      6          6           0       -3.970409   -1.857397   -0.829117
      7          1           0       -3.496783   -3.454916    0.541988
      8          1           0       -2.468795   -1.943138    2.228167
      9          1           0       -2.366550    0.523202    1.795965
     10          1           0       -4.311438   -0.046978   -1.987362
     11          1           0       -4.420027   -2.515178   -1.567502
     12          7           0       -3.272445    1.795662   -0.364645
     13          8           0       -3.743015    2.207979   -1.422567
     14          8           0       -2.754257    2.497851    0.500831
     15          6           0        0.974886   -0.383759    0.888404
     16          6           0        1.777076    0.636404    1.410209
     17          6           0        3.091734    0.803850    0.965030
     18          6           0        3.574094   -0.070794   -0.007397
     19          6           0        2.799591   -1.096776   -0.546655
     20          6           0        1.487800   -1.245573   -0.086644
     21          1           0       -0.045258   -0.506592    1.239990
     22          1           0        1.381393    1.307180    2.167532
     23          1           0        3.734592    1.585184    1.351903
     24          1           0        3.221968   -1.749847   -1.300653
     25          1           0        0.867096   -2.038730   -0.493676
     26          7           0        4.964346    0.096602   -0.486539
     27          8           0        5.365718   -0.687124   -1.344041
     28          8           0        5.626330    1.008364    0.004485
 ---------------------------------------------------------------------

 SCF Done:  E(RHF) =  -868.336589795     A.U. after   16 cycles
 E2 =    -0.2601530360D+01 EUMP2 =    -0.87093812015560D+03

 The electronic state is 1-A.
 Alpha  occ. eigenvalues --  -20.61671 -20.61650 -20.60706 -20.60698 -15.86727
 Alpha  occ. eigenvalues --  -15.85759 -11.32308 -11.31134 -11.28971 -11.28826
 Alpha  occ. eigenvalues --  -11.28621 -11.27998 -11.27858 -11.27724 -11.27680
 Alpha  occ. eigenvalues --  -11.27406 -11.26758 -11.26694  -1.60732  -1.59779
 Alpha  occ. eigenvalues --   -1.40282  -1.39333  -1.20505  -1.19308  -1.09831
 Alpha  occ. eigenvalues --   -1.08709  -1.05953  -1.04713  -0.96642  -0.95543
 Alpha  occ. eigenvalues --   -0.87304  -0.86114  -0.83482  -0.82375  -0.78500
 Alpha  occ. eigenvalues --   -0.77413  -0.72940  -0.72063  -0.71977  -0.71600
 Alpha  occ. eigenvalues --   -0.71101  -0.70449  -0.66138  -0.65907  -0.64963
 Alpha  occ. eigenvalues --   -0.64732  -0.63270  -0.62063  -0.56377  -0.55476
 Alpha  occ. eigenvalues --   -0.54049  -0.53974  -0.53036  -0.52808  -0.49711
 Alpha  occ. eigenvalues --   -0.49682  -0.48738  -0.48730  -0.45640  -0.44736
 Alpha  occ. eigenvalues --   -0.38468  -0.37575  -0.37240  -0.36314
 Alpha virt. eigenvalues --    0.03995   0.05112   0.10060   0.11335   0.15333
 Alpha virt. eigenvalues --    0.16608   0.19731   0.21902   0.25591   0.26817
 Alpha virt. eigenvalues --    0.27551   0.29462   0.29913   0.31282   0.32155

 Mulliken charges:
               1
     1  C   -0.172172
     2  C   -0.223684
     3  C   -0.180970
     4  C    0.162174
     5  C   -0.169822
     6  C   -0.218131
     7  H    0.229539
     8  H    0.225564
     9  H    0.273607
    10  H    0.279990
    11  H    0.228093
    12  N    0.488515
    13  O   -0.455516
    14  O   -0.460670
    15  C   -0.172336
    16  C   -0.218959
    17  C   -0.169931
    18  C    0.158503
    19  C   -0.170714
    20  C   -0.222268
    21  H    0.224828
    22  H    0.225357
    23  H    0.276598
    24  H    0.274660
    25  H    0.220494
    26  N    0.488035
    27  O   -0.461131
    28  O   -0.459652
 Sum of Mulliken charges =  -0.00000

 Dipole moment (field-independent basis, Debye):
    X=             -5.4169    Y=             -5.6652    Z=              2.4088  Tot=              8.2000
 Quadrupole moment (field-independent basis, Debye-Ang):
   XX=           -137.4361   YY=           -105.7292   ZZ=            -99.8706
   XY=             16.6748   XZ=              6.4263   YZ=              4.3096

 Normal termination of Gaussian 16 at Wed May  5 19:15:10 2021.
