 Gaussian 16, Revision A.03,
 Gaussian 16:  EM64L-G16RevA.03 25-Dec-2016

 -------------
 #p 6-31g* mp2
 -------------

 ------------------------------------------------------
 Input file generated by CHIRIPA (05-May-2021 14:55:21)
 ------------------------------------------------------
 Symbolic Z-matrix:
 Charge =  0 Multiplicity = 1

                         Standard orientation:
 ---------------------------------------------------------------------
 Center     Atomic      Atomic             Coordinates (Angstroms)
 Number     Number       Type             X           Y           Z
 ---------------------------------------------------------------------
      1          6           0       -2.899226    1.049285    1.895572
      2          6           0       -2.675322   -0.310886    2.132895
      3          6           0       -2.270513   -1.155499    1.094961
      4          6           0       -2.098423   -0.603946   -0.173686
      5          6           0       -2.313567    0.747037   -0.441730
      6          6           0       -2.717953    1.572982    0.611282
      7          1           0       -3.213528    1.698150    2.707721
      8          1           0       -2.815313   -0.720351    3.129281
      9          1           0       -2.090170   -2.212195    1.250810
     10          1           0       -2.165716    1.126189   -1.445623
     11          1           0       -2.891106    2.628922    0.424052
     12          7           0       -1.670093   -1.488219   -1.280481
     13          8           0       -1.525489   -0.977797   -2.389172
     14          8           0       -1.487082   -2.674990   -1.018338
     15          6           0        2.891246   -0.139238    0.197456
     16          6           0        4.344506   -0.441949    0.564047
     17          6           0        4.558485   -1.897831    0.979277
     18          1           0        2.246513   -0.376022    1.054894
     19          1           0        2.580536   -0.804181   -0.620287
     20          1           0        4.652813    0.224314    1.379924
     21          1           0        4.985876   -0.204237   -0.294297
     22          1           0        4.277700   -2.575481    0.166534
     23          1           0        3.942746   -2.144495    1.850267
     24          1           0        5.604243   -2.092227    1.237075
     25          6           0        2.661437    1.312249   -0.219799
     26          6           0        1.208178    1.614960   -0.586388
     27          6           0        0.994198    3.070842   -1.001620
     28          1           0        2.972146    1.977192    0.597946
     29          1           0        3.306170    1.549033   -1.077235
     30          1           0        0.566808    1.377248    0.271955
     31          1           0        0.899870    0.948697   -1.402266
     32          1           0        1.609937    3.317506   -1.872609
     33          1           0        1.274983    3.748492   -0.188876
     34          1           0       -0.051560    3.265238   -1.259418
 ---------------------------------------------------------------------

 SCF Done:  E(RHF) =  -669.535527610     A.U. after   15 cycles
 E2 =    -0.2093448501D+01 EUMP2 =    -0.67162897611108D+03

 The electronic state is 1-A.
 Alpha  occ. eigenvalues --  -20.60844 -20.60836 -15.85875 -11.31191 -11.27796
 Alpha  occ. eigenvalues --  -11.27774 -11.27546 -11.26799 -11.26783 -11.21443
 Alpha  occ. eigenvalues --  -11.21403 -11.21253 -11.21241 -11.21141 -11.20835
 Alpha  occ. eigenvalues --   -1.59902  -1.39458  -1.19396  -1.08791  -1.08277
 Alpha  occ. eigenvalues --   -1.04802  -1.03418  -0.95894  -0.95627  -0.86905
 Alpha  occ. eigenvalues --   -0.86192  -0.82466  -0.79489  -0.78090  -0.77509
 Alpha  occ. eigenvalues --   -0.72100  -0.71210  -0.70510  -0.65054  -0.64902
 Alpha  occ. eigenvalues --   -0.64791  -0.62160  -0.60813  -0.59291  -0.57517
 Alpha  occ. eigenvalues --   -0.55302  -0.55169  -0.53148  -0.52885  -0.52593
 Alpha  occ. eigenvalues --   -0.52311  -0.49809  -0.48863  -0.48855  -0.47799
 Alpha  occ. eigenvalues --   -0.46485  -0.45637  -0.45534  -0.44809  -0.43673
 Alpha  occ. eigenvalues --   -0.37360  -0.36341
 Alpha virt. eigenvalues --    0.04997   0.11225   0.16443   0.20697   0.23056
 Alpha virt. eigenvalues --    0.24126   0.26352   0.26820   0.27435   0.28012
 Alpha virt. eigenvalues --    0.28980   0.30617   0.31461   0.31683   0.32176

 Mulliken charges:
               1
     1  C   -0.171122
     2  C   -0.219128
     3  C   -0.171085
     4  C    0.160436
     5  C   -0.167779
     6  C   -0.218983
     7  H    0.225846
     8  H    0.223478
     9  H    0.275735
    10  H    0.276113
    11  H    0.223993
    12  N    0.488567
    13  O   -0.460994
    14  O   -0.459691
    15  C   -0.300120
    16  C   -0.299501
    17  C   -0.475831
    18  H    0.146740
    19  H    0.156779
    20  H    0.149646
    21  H    0.152624
    22  H    0.159068
    23  H    0.153437
    24  H    0.159206
    25  C   -0.297449
    26  C   -0.310535
    27  C   -0.473733
    28  H    0.146613
    29  H    0.150670
    30  H    0.153794
    31  H    0.162057
    32  H    0.158818
    33  H    0.153385
    34  H    0.148946
 Sum of Mulliken charges =  -0.00000

 Dipole moment (field-independent basis, Debye):
    X=             -1.5327    Y=              2.9980    Z=              3.8444  Tot=              5.1104
 Quadrupole moment (field-independent basis, Debye-Ang):
   XX=            -89.2992   YY=            -97.0359   ZZ=            -93.6956
   XY=             -5.6445   XZ=             -8.5577   YZ=             -5.0561

 Normal termination of Gaussian 16 at Thu May  6 12:29:07 2021.
