 Gaussian 16, Revision A.03,
 Gaussian 16:  EM64L-G16RevA.03 25-Dec-2016

 -------------
 #p 6-31g* mp2
 -------------

 ------------------------------------------------------
 Input file generated by CHIRIPA (05-May-2021 14:55:23)
 ------------------------------------------------------
 Symbolic Z-matrix:
 Charge =  0 Multiplicity = 1

                         Standard orientation:
 ---------------------------------------------------------------------
 Center     Atomic      Atomic             Coordinates (Angstroms)
 Number     Number       Type             X           Y           Z
 ---------------------------------------------------------------------
      1          6           0       -4.755061    0.100182   -1.185170
      2          6           0       -4.573529    0.703839    0.063496
      3          6           0       -3.436927    0.425128    0.828351
      4          6           0       -2.497794   -0.466108    0.311611
      5          6           0       -2.650177   -1.083510   -0.928906
      6          6           0       -3.794499   -0.789996   -1.676520
      7          1           0       -5.640999    0.322441   -1.772631
      8          1           0       -5.317858    1.395563    0.447600
      9          1           0       -3.271259    0.878372    1.798166
     10          1           0       -1.890749   -1.768837   -1.285296
     11          1           0       -3.932845   -1.260280   -2.645921
     12          7           0       -1.290438   -0.769002    1.112202
     13          8           0       -0.477789   -1.557743    0.634577
     14          8           0       -1.179624   -0.211934    2.202172
     15          6           0        3.116440    1.217841   -0.268954
     16          6           0        1.596255    1.158290   -0.115728
     17          6           0        0.939575    2.536744   -0.195926
     18          1           0        3.532033    1.869532    0.511767
     19          1           0        3.362858    1.686961   -1.231555
     20          1           0        1.352766    0.688167    0.845683
     21          1           0        1.184251    0.506511   -0.896788
     22          1           0        1.153363    3.009816   -1.159823
     23          1           0        1.322836    3.192503    0.592549
     24          1           0       -0.147155    2.470857   -0.083959
     25          6           0        3.787320   -0.152403   -0.190986
     26          6           0        5.307505   -0.092852   -0.344211
     27          6           0        5.964185   -1.471305   -0.264014
     28          1           0        3.540902   -0.621523    0.771614
     29          1           0        3.371728   -0.804095   -0.971707
     30          1           0        5.719509    0.558927    0.436847
     31          1           0        5.550994    0.377273   -1.305623
     32          1           0        5.580924   -2.127064   -1.052488
     33          1           0        5.750397   -1.944377    0.699883
     34          1           0        7.050916   -1.405418   -0.375981
 ---------------------------------------------------------------------

 SCF Done:  E(RHF) =  -669.536082453     A.U. after   15 cycles
 E2 =    -0.2092752112D+01 EUMP2 =    -0.67162883456512D+03

 The electronic state is 1-A.
 Alpha  occ. eigenvalues --  -20.60940 -20.60930 -15.85932 -11.31290 -11.27845
 Alpha  occ. eigenvalues --  -11.27841 -11.27580 -11.26852 -11.26843 -11.20840
 Alpha  occ. eigenvalues --  -11.20489 -11.20419 -11.20392 -11.20374 -11.20347
 Alpha  occ. eigenvalues --   -1.59981  -1.39537  -1.19450  -1.08851  -1.07508
 Alpha  occ. eigenvalues --   -1.04846  -1.02688  -0.95691  -0.95178  -0.86246
 Alpha  occ. eigenvalues --   -0.86191  -0.82528  -0.78739  -0.77581  -0.77303
 Alpha  occ. eigenvalues --   -0.72167  -0.71281  -0.70556  -0.65104  -0.64850
 Alpha  occ. eigenvalues --   -0.64139  -0.62193  -0.60081  -0.58538  -0.56776
 Alpha  occ. eigenvalues --   -0.55349  -0.54469  -0.53181  -0.52937  -0.51900
 Alpha  occ. eigenvalues --   -0.51595  -0.49158  -0.48942  -0.48931  -0.47067
 Alpha  occ. eigenvalues --   -0.45748  -0.45163  -0.44703  -0.44541  -0.42928
 Alpha  occ. eigenvalues --   -0.37417  -0.36445
 Alpha virt. eigenvalues --    0.04914   0.11182   0.16386   0.21329   0.23748
 Alpha virt. eigenvalues --    0.24925   0.27199   0.27592   0.28011   0.28470
 Alpha virt. eigenvalues --    0.28811   0.30867   0.31895   0.32196   0.32484

 Mulliken charges:
               1
     1  C   -0.170514
     2  C   -0.218440
     3  C   -0.171581
     4  C    0.160134
     5  C   -0.171085
     6  C   -0.218487
     7  H    0.226011
     8  H    0.223913
     9  H    0.276072
    10  H    0.275764
    11  H    0.223796
    12  N    0.488775
    13  O   -0.457464
    14  O   -0.460792
    15  C   -0.298116
    16  C   -0.309154
    17  C   -0.473689
    18  H    0.147604
    19  H    0.143677
    20  H    0.175234
    21  H    0.149212
    22  H    0.149808
    23  H    0.155056
    24  H    0.152108
    25  C   -0.297607
    26  C   -0.299256
    27  C   -0.475027
    28  H    0.157947
    29  H    0.149289
    30  H    0.150446
    31  H    0.148454
    32  H    0.154032
    33  H    0.156773
    34  H    0.157107
 Sum of Mulliken charges =  -0.00000

 Dipole moment (field-independent basis, Debye):
    X=             -4.4354    Y=              0.8828    Z=             -2.6744  Tot=              5.2540
 Quadrupole moment (field-independent basis, Debye-Ang):
   XX=            -74.5605   YY=            -95.6874   ZZ=            -93.2776
   XY=             -1.5489   XZ=              5.0710   YZ=              4.5544

 Normal termination of Gaussian 16 at Wed May  5 16:03:48 2021.
