 Gaussian 16, Revision A.03,
 Gaussian 16:  EM64L-G16RevA.03 25-Dec-2016

 -------------
 #p 6-31g* mp2
 -------------

 ------------------------------------------------------
 Input file generated by CHIRIPA (05-May-2021 14:53:16)
 ------------------------------------------------------
 Symbolic Z-matrix:
 Charge =  0 Multiplicity = 1

                         Standard orientation:
 ---------------------------------------------------------------------
 Center     Atomic      Atomic             Coordinates (Angstroms)
 Number     Number       Type             X           Y           Z
 ---------------------------------------------------------------------
      1          6           0       -2.470334    0.518539   -0.594293
      2          6           0       -2.802046    1.982192   -0.301598
      3          6           0       -1.958818    2.955657   -1.125691
      4          1           0       -1.404519    0.343494   -0.393439
      5          1           0       -2.623079    0.322157   -1.664572
      6          1           0       -2.650049    2.175402    0.768067
      7          1           0       -3.867238    2.153727   -0.502989
      8          1           0       -2.117410    2.791641   -2.196461
      9          1           0       -0.893306    2.813439   -0.918183
     10          1           0       -2.212328    3.996310   -0.900670
     11          6           0       -3.305087   -0.466738    0.221885
     12          6           0       -2.973375   -1.930392   -0.070810
     13          6           0       -3.816603   -2.903856    0.753283
     14          1           0       -3.152343   -0.270356    1.292164
     15          1           0       -4.370902   -0.291693    0.021031
     16          1           0       -1.908184   -2.101926    0.130581
     17          1           0       -3.125372   -2.123601   -1.140475
     18          1           0       -4.882115   -2.761638    0.545775
     19          1           0       -3.658011   -2.739840    1.824053
     20          1           0       -3.563093   -3.944509    0.528262
     21          6           0        1.548786    1.946500    1.558869
     22          6           0        1.844768    0.720397    2.163508
     23          6           0        2.237626   -0.376084    1.390242
     24          6           0        2.324397   -0.210372    0.008830
     25          6           0        2.036116    0.998309   -0.623051
     26          6           0        1.645234    2.081305    0.169968
     27          1           0        1.244371    2.793034    2.167234
     28          1           0        1.770727    0.612801    3.241926
     29          1           0        2.472601   -1.336688    1.832334
     30          1           0        2.119010    1.074963   -1.700396
     31          1           0        1.415982    3.032319   -0.302326
     32          7           0        2.739252   -1.364028   -0.820248
     33          8           0        2.808026   -1.192197   -2.035312
     34          8           0        2.987788   -2.418251   -0.239316
 ---------------------------------------------------------------------

 SCF Done:  E(RHF) =  -669.535159703     A.U. after   15 cycles
 E2 =    -0.2093039438D+01 EUMP2 =    -0.67162819914158D+03

 The electronic state is 1-A.
 Alpha  occ. eigenvalues --  -20.60842 -20.60836 -15.85898 -11.31312 -11.27883
 Alpha  occ. eigenvalues --  -11.27876 -11.27623 -11.26894 -11.26883 -11.21956
 Alpha  occ. eigenvalues --  -11.21580 -11.21557 -11.21521 -11.21457 -11.21047
 Alpha  occ. eigenvalues --   -1.59917  -1.39468  -1.19491  -1.08873  -1.08581
 Alpha  occ. eigenvalues --   -1.04901  -1.03716  -0.96181  -0.95696  -0.87213
 Alpha  occ. eigenvalues --   -0.86285  -0.82530  -0.79790  -0.78372  -0.77570
 Alpha  occ. eigenvalues --   -0.72113  -0.71241  -0.70576  -0.65258  -0.65136
 Alpha  occ. eigenvalues --   -0.64887  -0.62272  -0.61108  -0.59554  -0.57776
 Alpha  occ. eigenvalues --   -0.55536  -0.55341  -0.53248  -0.53041  -0.52870
 Alpha  occ. eigenvalues --   -0.52552  -0.50121  -0.48876  -0.48866  -0.48095
 Alpha  occ. eigenvalues --   -0.46808  -0.45915  -0.45819  -0.44863  -0.43955
 Alpha  occ. eigenvalues --   -0.37453  -0.36444
 Alpha virt. eigenvalues --    0.04957   0.11060   0.16361   0.20898   0.22776
 Alpha virt. eigenvalues --    0.24223   0.26095   0.26577   0.27337   0.28243
 Alpha virt. eigenvalues --    0.28531   0.30368   0.31387   0.31768   0.32097

 Mulliken charges:
               1
     1  C   -0.301726
     2  C   -0.297226
     3  C   -0.481383
     4  H    0.153506
     5  H    0.151209
     6  H    0.148093
     7  H    0.153434
     8  H    0.158135
     9  H    0.150573
    10  H    0.158128
    11  C   -0.298002
    12  C   -0.300048
    13  C   -0.475809
    14  H    0.146952
    15  H    0.149419
    16  H    0.153678
    17  H    0.154177
    18  H    0.154681
    19  H    0.153245
    20  H    0.162744
    21  C   -0.172007
    22  C   -0.218683
    23  C   -0.170974
    24  C    0.158388
    25  C   -0.171207
    26  C   -0.217424
    27  H    0.226726
    28  H    0.224010
    29  H    0.276127
    30  H    0.276995
    31  H    0.226030
    32  N    0.488126
    33  O   -0.459666
    34  O   -0.460218
 Sum of Mulliken charges =  -0.00000

 Dipole moment (field-independent basis, Debye):
    X=             -1.3909    Y=              3.9743    Z=              2.9111  Tot=              5.1190
 Quadrupole moment (field-independent basis, Debye-Ang):
   XX=           -102.1376   YY=            -96.1977   ZZ=            -91.1843
   XY=              9.3773   XZ=              8.1559   YZ=             -2.6543

 Normal termination of Gaussian 16 at Thu May  6 07:32:44 2021.
