 Gaussian 16, Revision A.03,
 Gaussian 16:  EM64L-G16RevA.03 25-Dec-2016

 -------------
 #p 6-31g* mp2
 -------------

 ------------------------------------------------------
 Input file generated by CHIRIPA (05-May-2021 14:57:21)
 ------------------------------------------------------
 Symbolic Z-matrix:
 Charge =  0 Multiplicity = 1

                         Standard orientation:
 ---------------------------------------------------------------------
 Center     Atomic      Atomic             Coordinates (Angstroms)
 Number     Number       Type             X           Y           Z
 ---------------------------------------------------------------------
      1          6           0        2.288283    1.881154    0.277147
      2          6           0        3.565190    2.156978   -0.222806
      3          6           0        4.524831    1.144652   -0.316784
      4          6           0        4.171961   -0.137927    0.100067
      5          6           0        2.908228   -0.444167    0.602546
      6          6           0        1.964449    0.583749    0.687504
      7          1           0        1.548972    2.673609    0.346647
      8          1           0        3.819479    3.163630   -0.542235
      9          1           0        5.520851    1.330454   -0.699980
     10          1           0        2.684196   -1.457449    0.913170
     11          1           0        0.973571    0.366634    1.076177
     12          7           0        5.179494   -1.217884    0.005352
     13          8           0        4.843747   -2.339562    0.379183
     14          8           0        6.285868   -0.922227   -0.440923
     15          6           0       -1.708636    0.949483   -0.446228
     16          6           0       -2.764874    1.760022   -0.017380
     17          6           0       -4.041908    1.222482    0.169113
     18          6           0       -4.228000   -0.135729   -0.083722
     19          6           0       -3.195837   -0.969178   -0.511849
     20          6           0       -1.927104   -0.410133   -0.691660
     21          1           0       -0.719829    1.375410   -0.588505
     22          1           0       -2.598129    2.816250    0.173994
     23          1           0       -4.877430    1.827129    0.500358
     24          1           0       -3.392827   -2.018579   -0.694527
     25          1           0       -1.108683   -1.042002   -1.024788
     26          7           0       -5.575545   -0.716181    0.110175
     27          8           0       -5.713513   -1.915721   -0.119406
     28          8           0       -6.468267    0.039390    0.488059
 ---------------------------------------------------------------------

 SCF Done:  E(RHF) =  -868.336634602     A.U. after   16 cycles
 E2 =    -0.2601031058D+01 EUMP2 =    -0.87093766566012D+03

 The electronic state is 1-A.
 Alpha  occ. eigenvalues --  -20.61463 -20.61457 -20.61291 -20.61285 -15.86521
 Alpha  occ. eigenvalues --  -15.86348 -11.32082 -11.31885 -11.28673 -11.28630
 Alpha  occ. eigenvalues --  -11.28528 -11.28458 -11.28438 -11.28289 -11.27752
 Alpha  occ. eigenvalues --  -11.27709 -11.27565 -11.27530  -1.60534  -1.60362
 Alpha  occ. eigenvalues --   -1.40081  -1.39910  -1.20280  -1.20078  -1.09671
 Alpha  occ. eigenvalues --   -1.09459  -1.05699  -1.05492  -0.96469  -0.96258
 Alpha  occ. eigenvalues --   -0.87112  -0.86889  -0.83271  -0.83084  -0.78275
 Alpha  occ. eigenvalues --   -0.78079  -0.72739  -0.72563  -0.71859  -0.71686
 Alpha  occ. eigenvalues --   -0.71573  -0.71121  -0.65935  -0.65802  -0.65694
 Alpha  occ. eigenvalues --   -0.65435  -0.63029  -0.62813  -0.56295  -0.56046
 Alpha  occ. eigenvalues --   -0.54007  -0.53937  -0.53654  -0.53583  -0.49510
 Alpha  occ. eigenvalues --   -0.49479  -0.49337  -0.49307  -0.45443  -0.45277
 Alpha  occ. eigenvalues --   -0.38319  -0.38099  -0.37292  -0.37084
 Alpha virt. eigenvalues --    0.04220   0.04398   0.10164   0.10526   0.15599
 Alpha virt. eigenvalues --    0.15751   0.19180   0.21864   0.25312   0.26140
 Alpha virt. eigenvalues --    0.27270   0.29253   0.29677   0.30921   0.32164

 Mulliken charges:
               1
     1  C   -0.176131
     2  C   -0.217416
     3  C   -0.169887
     4  C    0.159890
     5  C   -0.172018
     6  C   -0.226807
     7  H    0.221023
     8  H    0.226296
     9  H    0.278776
    10  H    0.277934
    11  H    0.227488
    12  N    0.487883
    13  O   -0.458378
    14  O   -0.457655
    15  C   -0.180239
    16  C   -0.219155
    17  C   -0.169929
    18  C    0.159548
    19  C   -0.169626
    20  C   -0.222860
    21  H    0.224722
    22  H    0.222166
    23  H    0.277700
    24  H    0.278736
    25  H    0.226730
    26  N    0.487863
    27  O   -0.457929
    28  O   -0.458725
 Sum of Mulliken charges =  -0.00000

 Dipole moment (field-independent basis, Debye):
    X=              1.2639    Y=              5.7217    Z=             -0.3712  Tot=              5.8714
 Quadrupole moment (field-independent basis, Debye-Ang):
   XX=           -170.4945   YY=           -100.6465   ZZ=           -105.0669
   XY=              7.9755   XZ=              1.5572   YZ=              0.2920

 Normal termination of Gaussian 16 at Thu May  6 00:07:49 2021.
