 Gaussian 16, Revision A.03,
 Gaussian 16:  EM64L-G16RevA.03 25-Dec-2016

 -------------
 #p 6-31g* mp2
 -------------

 ------------------------------------------------------
 Input file generated by CHIRIPA (05-May-2021 14:55:19)
 ------------------------------------------------------
 Symbolic Z-matrix:
 Charge =  0 Multiplicity = 1

                         Standard orientation:
 ---------------------------------------------------------------------
 Center     Atomic      Atomic             Coordinates (Angstroms)
 Number     Number       Type             X           Y           Z
 ---------------------------------------------------------------------
      1          6           0        4.240600   -1.367624   -1.163998
      2          6           0        3.156223   -2.091926   -0.658000
      3          6           0        2.212576   -1.473530    0.167630
      4          6           0        2.384941   -0.123281    0.468310
      5          6           0        3.454621    0.625258   -0.020323
      6          6           0        4.386082   -0.013730   -0.844109
      7          1           0        4.968915   -1.856007   -1.804651
      8          1           0        3.040705   -3.143500   -0.904762
      9          1           0        1.363637   -2.010525    0.573039
     10          1           0        3.543055    1.672222    0.243237
     11          1           0        5.227232    0.551260   -1.235640
     12          7           0        1.392394    0.542286    1.341391
     13          8           0        1.566807    1.732953    1.591452
     14          8           0        0.458817   -0.139311    1.759119
     15          6           0       -2.857826    0.911535   -0.205927
     16          6           0       -2.092477    1.556686   -1.361784
     17          6           0       -1.288475    2.782473   -0.927248
     18          1           0       -3.532629    1.655494    0.239169
     19          1           0       -2.146429    0.624545    0.580804
     20          1           0       -2.804952    1.841118   -2.146698
     21          1           0       -1.419556    0.811049   -1.804301
     22          1           0       -0.555797    2.510625   -0.160513
     23          1           0       -1.949066    3.546545   -0.504856
     24          1           0       -0.749212    3.227944   -1.769038
     25          6           0       -3.666396   -0.315118   -0.624577
     26          6           0       -4.431746   -0.960269    0.531280
     27          6           0       -5.235746   -2.186057    0.096745
     28          1           0       -4.377793   -0.028129   -1.411308
     29          1           0       -2.991593   -1.059077   -1.069671
     30          1           0       -5.104665   -0.214633    0.973798
     31          1           0       -3.719269   -1.244702    1.316196
     32          1           0       -4.575157   -2.950129   -0.325647
     33          1           0       -5.968425   -1.914208   -0.669990
     34          1           0       -5.775009   -2.631528    0.938535
 ---------------------------------------------------------------------

 SCF Done:  E(RHF) =  -669.536762555     A.U. after   15 cycles
 E2 =    -0.2092333653D+01 EUMP2 =    -0.67162909620886D+03

 The electronic state is 1-A.
 Alpha  occ. eigenvalues --  -20.61150 -20.61143 -15.86134 -11.31382 -11.27938
 Alpha  occ. eigenvalues --  -11.27928 -11.27661 -11.26924 -11.26913 -11.20854
 Alpha  occ. eigenvalues --  -11.20732 -11.20595 -11.20540 -11.20212 -11.19994
 Alpha  occ. eigenvalues --   -1.60186  -1.39744  -1.19542  -1.08962  -1.07546
 Alpha  occ. eigenvalues --   -1.04926  -1.02711  -0.95815  -0.95143  -0.86330
 Alpha  occ. eigenvalues --   -0.86158  -0.82654  -0.78777  -0.77720  -0.77328
 Alpha  occ. eigenvalues --   -0.72359  -0.71502  -0.70652  -0.65199  -0.64929
 Alpha  occ. eigenvalues --   -0.64169  -0.62274  -0.60111  -0.58532  -0.56754
 Alpha  occ. eigenvalues --   -0.55436  -0.54432  -0.53261  -0.53017  -0.51880
 Alpha  occ. eigenvalues --   -0.51560  -0.49180  -0.49141  -0.49052  -0.47085
 Alpha  occ. eigenvalues --   -0.45829  -0.45125  -0.44910  -0.44642  -0.42937
 Alpha  occ. eigenvalues --   -0.37513  -0.36521
 Alpha virt. eigenvalues --    0.04737   0.11133   0.16207   0.21244   0.23671
 Alpha virt. eigenvalues --    0.25038   0.27175   0.27414   0.28108   0.28636
 Alpha virt. eigenvalues --    0.28827   0.30855   0.32177   0.32377   0.32550

 Mulliken charges:
               1
     1  C   -0.170213
     2  C   -0.218595
     3  C   -0.170722
     4  C    0.158562
     5  C   -0.170205
     6  C   -0.218626
     7  H    0.226428
     8  H    0.224185
     9  H    0.275679
    10  H    0.276425
    11  H    0.224276
    12  N    0.487337
    13  O   -0.456628
    14  O   -0.458794
    15  C   -0.309022
    16  C   -0.298204
    17  C   -0.483811
    18  H    0.147311
    19  H    0.173404
    20  H    0.147121
    21  H    0.144110
    22  H    0.171868
    23  H    0.154492
    24  H    0.152161
    25  C   -0.295973
    26  C   -0.300395
    27  C   -0.474876
    28  H    0.145425
    29  H    0.144337
    30  H    0.151442
    31  H    0.157591
    32  H    0.151885
    33  H    0.153284
    34  H    0.158741
 Sum of Mulliken charges =  -0.00000

 Dipole moment (field-independent basis, Debye):
    X=              3.8124    Y=             -2.3545    Z=             -2.8360  Tot=              5.3029
 Quadrupole moment (field-independent basis, Debye-Ang):
   XX=            -77.5260   YY=            -91.3844   ZZ=            -98.6714
   XY=             -4.8134   XZ=             -6.6314   YZ=             -0.9662

 Normal termination of Gaussian 16 at Thu May  6 01:18:21 2021.
