 Gaussian 16, Revision A.03,
 Gaussian 16:  EM64L-G16RevA.03 25-Dec-2016

 -------------
 #p 6-31g* mp2
 -------------

 ------------------------------------------------------
 Input file generated by CHIRIPA (05-May-2021 14:53:13)
 ------------------------------------------------------
 Symbolic Z-matrix:
 Charge =  0 Multiplicity = 1

                         Standard orientation:
 ---------------------------------------------------------------------
 Center     Atomic      Atomic             Coordinates (Angstroms)
 Number     Number       Type             X           Y           Z
 ---------------------------------------------------------------------
      1          6           0       -2.672666   -0.826549    0.459379
      2          6           0       -2.349465   -0.885275    1.952723
      3          6           0       -1.142186   -1.771104    2.261883
      4          1           0       -2.859034   -1.844544    0.090737
      5          1           0       -1.793898   -0.453172   -0.084451
      6          1           0       -3.229046   -1.257121    2.493725
      7          1           0       -2.164033    0.132998    2.317894
      8          1           0       -0.249861   -1.399263    1.747984
      9          1           0       -1.320925   -2.797280    1.924815
     10          1           0       -0.928867   -1.798798    3.335004
     11          6           0       -3.877145    0.055139    0.134438
     12          6           0       -4.200347    0.113865   -1.358906
     13          6           0       -5.407626    0.999694   -1.668066
     14          1           0       -4.755914   -0.318238    0.678268
     15          1           0       -3.690778    1.073134    0.503080
     16          1           0       -4.385779   -0.904408   -1.724077
     17          1           0       -3.320766    0.485711   -1.899908
     18          1           0       -5.228887    2.025870   -1.330998
     19          1           0       -6.299950    0.627853   -1.154167
     20          1           0       -5.620945    1.027388   -2.741187
     21          6           0        3.520840   -1.809863   -1.223281
     22          6           0        2.137413   -1.603343   -1.224439
     23          6           0        1.593143   -0.437319   -0.677900
     24          6           0        2.465487    0.505434   -0.136122
     25          6           0        3.848153    0.328611   -0.120048
     26          6           0        4.370297   -0.844928   -0.672061
     27          1           0        3.935048   -2.718579   -1.649972
     28          1           0        1.475308   -2.351001   -1.651838
     29          1           0        0.525956   -0.251904   -0.665630
     30          1           0        4.482825    1.092075    0.313233
     31          1           0        5.445084   -1.002638   -0.669782
     32          7           0        1.901004    1.743830    0.445372
     33          8           0        2.690940    2.559064    0.916575
     34          8           0        0.679316    1.875802    0.418934
 ---------------------------------------------------------------------

 SCF Done:  E(RHF) =  -669.535739767     A.U. after   15 cycles
 E2 =    -0.2092488106D+01 EUMP2 =    -0.67162822787290D+03

 The electronic state is 1-A.
 Alpha  occ. eigenvalues --  -20.60861 -20.60852 -15.85905 -11.31243 -11.27800
 Alpha  occ. eigenvalues --  -11.27785 -11.27534 -11.26817 -11.26804 -11.21446
 Alpha  occ. eigenvalues --  -11.21373 -11.21311 -11.21136 -11.20967 -11.20872
 Alpha  occ. eigenvalues --   -1.59928  -1.39484  -1.19411  -1.08809  -1.08258
 Alpha  occ. eigenvalues --   -1.04809  -1.03349  -0.95821  -0.95651  -0.86839
 Alpha  occ. eigenvalues --   -0.86211  -0.82481  -0.79419  -0.78127  -0.77519
 Alpha  occ. eigenvalues --   -0.72127  -0.71247  -0.70525  -0.65067  -0.64987
 Alpha  occ. eigenvalues --   -0.64698  -0.62173  -0.60708  -0.59189  -0.57443
 Alpha  occ. eigenvalues --   -0.55312  -0.55114  -0.53143  -0.52913  -0.52503
 Alpha  occ. eigenvalues --   -0.52254  -0.49759  -0.48885  -0.48879  -0.47741
 Alpha  occ. eigenvalues --   -0.46420  -0.45640  -0.45524  -0.44885  -0.43617
 Alpha  occ. eigenvalues --   -0.37384  -0.36389
 Alpha virt. eigenvalues --    0.04966   0.11156   0.16491   0.20301   0.23077
 Alpha virt. eigenvalues --    0.24262   0.25440   0.27324   0.27756   0.28093
 Alpha virt. eigenvalues --    0.29477   0.31002   0.31481   0.31975   0.32174

 Mulliken charges:
               1
     1  C   -0.304346
     2  C   -0.299756
     3  C   -0.478635
     4  H    0.144589
     5  H    0.149918
     6  H    0.150650
     7  H    0.164029
     8  H    0.153848
     9  H    0.150055
    10  H    0.162199
    11  C   -0.298224
    12  C   -0.299859
    13  C   -0.475934
    14  H    0.148802
    15  H    0.158354
    16  H    0.148437
    17  H    0.151882
    18  H    0.158456
    19  H    0.154527
    20  H    0.159033
    21  C   -0.170349
    22  C   -0.223284
    23  C   -0.178032
    24  C    0.155866
    25  C   -0.169774
    26  C   -0.218696
    27  H    0.225979
    28  H    0.225036
    29  H    0.291241
    30  H    0.275769
    31  H    0.223728
    32  N    0.487132
    33  O   -0.459359
    34  O   -0.463280
 Sum of Mulliken charges =  -0.00000

 Dipole moment (field-independent basis, Debye):
    X=              2.0131    Y=             -4.2180    Z=             -1.9899  Tot=              5.0798
 Quadrupole moment (field-independent basis, Debye-Ang):
   XX=            -80.8485   YY=            -99.1976   ZZ=            -94.7876
   XY=             -7.7216   XZ=             -4.8734   YZ=              0.3696

 Normal termination of Gaussian 16 at Thu May  6 13:45:38 2021.
