 Gaussian 16, Revision A.03,
 Gaussian 16:  EM64L-G16RevA.03 25-Dec-2016

 -------------
 #p 6-31g* mp2
 -------------

 ------------------------------------------------------
 Input file generated by CHIRIPA (05-May-2021 14:57:25)
 ------------------------------------------------------
 Symbolic Z-matrix:
 Charge =  0 Multiplicity = 1

                         Standard orientation:
 ---------------------------------------------------------------------
 Center     Atomic      Atomic             Coordinates (Angstroms)
 Number     Number       Type             X           Y           Z
 ---------------------------------------------------------------------
      1          6           0       -1.225374   -0.115199    2.577059
      2          6           0       -2.067255    0.943864    2.221892
      3          6           0       -2.721766    0.947024    0.986516
      4          6           0       -2.510684   -0.129788    0.126742
      5          6           0       -1.678083   -1.199545    0.451834
      6          6           0       -1.033812   -1.181642    1.692456
      7          1           0       -0.720911   -0.109473    3.538766
      8          1           0       -2.217895    1.773400    2.906891
      9          1           0       -3.378981    1.754043    0.686172
     10          1           0       -1.547627   -2.012543   -0.252036
     11          1           0       -0.380568   -2.005473    1.965622
     12          7           0       -3.198165   -0.137591   -1.183872
     13          8           0       -2.995562   -1.098019   -1.923580
     14          8           0       -3.926599    0.816868   -1.446606
     15          6           0        2.153446    2.635311   -0.492157
     16          6           0        1.101325    1.804588   -0.891485
     17          6           0        1.225389    0.414262   -0.813067
     18          6           0        2.420962   -0.113847   -0.328302
     19          6           0        3.487175    0.687415    0.077229
     20          6           0        3.340919    2.075062   -0.009924
     21          1           0        2.048450    3.714309   -0.556466
     22          1           0        0.177965    2.236903   -1.266390
     23          1           0        0.426721   -0.252157   -1.115445
     24          1           0        4.395479    0.227147    0.446759
     25          1           0        4.159670    2.717771    0.300909
     26          7           0        2.564050   -1.584305   -0.240661
     27          8           0        3.627606   -2.024819    0.189958
     28          8           0        1.609937   -2.268491   -0.604247
 ---------------------------------------------------------------------

 SCF Done:  E(RHF) =  -868.338553618     A.U. after   16 cycles
 E2 =    -0.2603527164D+01 EUMP2 =    -0.87094208078198D+03

 The electronic state is 1-A.
 Alpha  occ. eigenvalues --  -20.61324 -20.61299 -20.61100 -20.61071 -15.86336
 Alpha  occ. eigenvalues --  -15.86127 -11.31410 -11.31385 -11.28012 -11.27997
 Alpha  occ. eigenvalues --  -11.27894 -11.27745 -11.27696 -11.27607 -11.26967
 Alpha  occ. eigenvalues --  -11.26957 -11.26867 -11.26727  -1.60381  -1.60176
 Alpha  occ. eigenvalues --   -1.39944  -1.39724  -1.19621  -1.19519  -1.09037
 Alpha  occ. eigenvalues --   -1.08957  -1.04990  -1.04841  -0.95930  -0.95787
 Alpha  occ. eigenvalues --   -0.86392  -0.86269  -0.82781  -0.82576  -0.77887
 Alpha  occ. eigenvalues --   -0.77625  -0.72578  -0.72321  -0.71704  -0.71544
 Alpha  occ. eigenvalues --   -0.70729  -0.70576  -0.65253  -0.65146  -0.64978
 Alpha  occ. eigenvalues --   -0.64809  -0.62367  -0.62137  -0.55507  -0.55376
 Alpha  occ. eigenvalues --   -0.53710  -0.53134  -0.52920  -0.52722  -0.49339
 Alpha  occ. eigenvalues --   -0.49290  -0.49099  -0.49080  -0.45409  -0.45136
 Alpha  occ. eigenvalues --   -0.37698  -0.37500  -0.36717  -0.36151
 Alpha virt. eigenvalues --    0.04495   0.04944   0.10998   0.11133   0.16061
 Alpha virt. eigenvalues --    0.16434   0.21118   0.21571   0.26822   0.27244
 Alpha virt. eigenvalues --    0.28002   0.28576   0.30853   0.31087   0.31771

 Mulliken charges:
               1
     1  C   -0.170361
     2  C   -0.217660
     3  C   -0.175783
     4  C    0.154698
     5  C   -0.185950
     6  C   -0.218630
     7  H    0.227078
     8  H    0.222473
     9  H    0.273546
    10  H    0.289468
    11  H    0.236738
    12  N    0.486192
    13  O   -0.457067
    14  O   -0.462400
    15  C   -0.170690
    16  C   -0.221230
    17  C   -0.164754
    18  C    0.153288
    19  C   -0.171721
    20  C   -0.220023
    21  H    0.226290
    22  H    0.227239
    23  H    0.279771
    24  H    0.274562
    25  H    0.223152
    26  N    0.488489
    27  O   -0.458745
    28  O   -0.467971
 Sum of Mulliken charges =  -0.00000

 Dipole moment (field-independent basis, Debye):
    X=              1.9599    Y=              5.0679    Z=              4.3835  Tot=              6.9814
 Quadrupole moment (field-independent basis, Debye-Ang):
   XX=           -115.4766   YY=           -102.5946   ZZ=           -103.6566
   XY=             11.1435   XZ=            -10.5911   YZ=             -1.1579

 Normal termination of Gaussian 16 at Wed May  5 22:47:33 2021.
