 Gaussian 16, Revision A.03,
 Gaussian 16:  EM64L-G16RevA.03 25-Dec-2016

 -------------
 #p 6-31g* mp2
 -------------

 ------------------------------------------------------
 Input file generated by CHIRIPA (05-May-2021 14:57:26)
 ------------------------------------------------------
 Symbolic Z-matrix:
 Charge =  0 Multiplicity = 1

                         Standard orientation:
 ---------------------------------------------------------------------
 Center     Atomic      Atomic             Coordinates (Angstroms)
 Number     Number       Type             X           Y           Z
 ---------------------------------------------------------------------
      1          6           0        1.768939   -1.614661    1.585432
      2          6           0        3.121882   -1.895918    1.368729
      3          6           0        3.921029   -1.015867    0.632915
      4          6           0        3.331875    0.141414    0.126076
      5          6           0        1.986953    0.449535    0.324917
      6          6           0        1.206783   -0.444894    1.063754
      7          1           0        1.155513   -2.303890    2.158204
      8          1           0        3.561147   -2.803618    1.772676
      9          1           0        4.971123   -1.208992    0.450094
     10          1           0        1.577397    1.362352   -0.090350
     11          1           0        0.156352   -0.223886    1.230469
     12          7           0        4.167851    1.080696   -0.654498
     13          8           0        3.624891    2.093527   -1.090392
     14          8           0        5.350219    0.786288   -0.815636
     15          6           0       -4.274738    1.914998    1.003060
     16          6           0       -5.000876    0.749422    0.737213
     17          6           0       -4.412275   -0.310553    0.041117
     18          6           0       -3.089623   -0.170450   -0.376321
     19          6           0       -2.340042    0.978085   -0.126752
     20          6           0       -2.948976    2.025415    0.570992
     21          1           0       -4.739876    2.733501    1.544445
     22          1           0       -6.030643    0.660887    1.071557
     23          1           0       -4.951385   -1.224162   -0.178195
     24          1           0       -1.315235    1.037014   -0.472753
     25          1           0       -2.382632    2.929438    0.776038
     26          7           0       -2.455734   -1.285905   -1.114119
     27          8           0       -1.289028   -1.137714   -1.471152
     28          8           0       -3.137602   -2.287268   -1.321402
 ---------------------------------------------------------------------

 SCF Done:  E(RHF) =  -868.337182947     A.U. after   16 cycles
 E2 =    -0.2601268659D+01 EUMP2 =    -0.87093845160601D+03

 The electronic state is 1-A.
 Alpha  occ. eigenvalues --  -20.61494 -20.61480 -20.60492 -20.60482 -15.86528
 Alpha  occ. eigenvalues --  -15.85541 -11.31989 -11.30826 -11.28581 -11.28475
 Alpha  occ. eigenvalues --  -11.28197 -11.27549 -11.27499 -11.27440 -11.27348
 Alpha  occ. eigenvalues --  -11.27059 -11.26386 -11.26358  -1.60564  -1.59563
 Alpha  occ. eigenvalues --   -1.40114  -1.39122  -1.20135  -1.18969  -1.09496
 Alpha  occ. eigenvalues --   -1.08373  -1.05543  -1.04383  -0.96327  -0.95236
 Alpha  occ. eigenvalues --   -0.86930  -0.85783  -0.83148  -0.82095  -0.78224
 Alpha  occ. eigenvalues --   -0.77151  -0.72734  -0.71904  -0.71766  -0.71214
 Alpha  occ. eigenvalues --   -0.70878  -0.70099  -0.65768  -0.65534  -0.64640
 Alpha  occ. eigenvalues --   -0.64416  -0.62925  -0.61715  -0.55984  -0.54874
 Alpha  occ. eigenvalues --   -0.53870  -0.53610  -0.52661  -0.52490  -0.49510
 Alpha  occ. eigenvalues --   -0.49498  -0.48527  -0.48512  -0.45488  -0.44548
 Alpha  occ. eigenvalues --   -0.38084  -0.37144  -0.36897  -0.35923
 Alpha virt. eigenvalues --    0.04284   0.05397   0.10358   0.11723   0.15813
 Alpha virt. eigenvalues --    0.16899   0.19732   0.21992   0.25089   0.27210
 Alpha virt. eigenvalues --    0.28119   0.29224   0.30704   0.30926   0.31744

 Mulliken charges:
               1
     1  C   -0.169936
     2  C   -0.217532
     3  C   -0.171071
     4  C    0.159176
     5  C   -0.170568
     6  C   -0.205128
     7  H    0.225734
     8  H    0.222886
     9  H    0.274638
    10  H    0.265863
    11  H    0.217713
    12  N    0.488725
    13  O   -0.463449
    14  O   -0.460547
    15  C   -0.170706
    16  C   -0.217403
    17  C   -0.170858
    18  C    0.158156
    19  C   -0.182085
    20  C   -0.219285
    21  H    0.228979
    22  H    0.226471
    23  H    0.277574
    24  H    0.275730
    25  H    0.227082
    26  N    0.486584
    27  O   -0.458908
    28  O   -0.457835
 Sum of Mulliken charges =  -0.00000

 Dipole moment (field-independent basis, Debye):
    X=             -5.4502    Y=              0.5109    Z=              5.3324  Tot=              7.6420
 Quadrupole moment (field-independent basis, Debye-Ang):
   XX=           -103.3255   YY=           -104.5769   ZZ=           -107.5761
   XY=            -24.0917   XZ=              1.6438   YZ=             -2.5175

 Normal termination of Gaussian 16 at Thu May  6 19:47:37 2021.
