 Gaussian 16, Revision A.03,
 Gaussian 16:  EM64L-G16RevA.03 25-Dec-2016

 -------------
 #p 6-31g* mp2
 -------------

 ------------------------------------------------------
 Input file generated by CHIRIPA (05-May-2021 14:53:12)
 ------------------------------------------------------
 Symbolic Z-matrix:
 Charge =  0 Multiplicity = 1

                         Standard orientation:
 ---------------------------------------------------------------------
 Center     Atomic      Atomic             Coordinates (Angstroms)
 Number     Number       Type             X           Y           Z
 ---------------------------------------------------------------------
      1          6           0       -3.001443    0.879123    0.616030
      2          6           0       -2.241351    1.994313   -0.102715
      3          6           0       -1.177968    2.648791    0.779708
      4          1           0       -3.473950    1.289162    1.519109
      5          1           0       -2.286129    0.117410    0.955904
      6          1           0       -2.958036    2.753016   -0.442343
      7          1           0       -1.770757    1.581613   -1.004290
      8          1           0       -0.440886    1.908764    1.107840
      9          1           0       -1.634911    3.086823    1.672979
     10          1           0       -0.646808    3.443136    0.246093
     11          6           0       -4.067919    0.215169   -0.253177
     12          6           0       -4.828011   -0.900021    0.465568
     13          6           0       -5.891394   -1.554499   -0.416854
     14          1           0       -4.783233    0.976882   -0.593050
     15          1           0       -3.595412   -0.194870   -1.156255
     16          1           0       -5.298605   -0.487321    1.367143
     17          1           0       -4.111326   -1.658725    0.805197
     18          1           0       -5.434451   -1.992531   -1.310125
     19          1           0       -6.628476   -0.814472   -0.744986
     20          1           0       -6.422554   -2.348844    0.116760
     21          6           0        5.159549    0.281334    0.194050
     22          6           0        4.661716   -0.842437    0.861750
     23          6           0        3.334635   -1.244355    0.683233
     24          6           0        2.529632   -0.495981   -0.174203
     25          6           0        2.996341    0.628268   -0.853567
     26          6           0        4.326740    1.011812   -0.659971
     27          1           0        6.191746    0.586416    0.338584
     28          1           0        5.306196   -1.411640    1.525601
     29          1           0        2.923382   -2.110275    1.187685
     30          1           0        2.329776    1.175620   -1.508940
     31          1           0        4.710655    1.884973   -1.179821
     32          7           0        1.122954   -0.911747   -0.371172
     33          8           0        0.434105   -0.235496   -1.131965
     34          8           0        0.735887   -1.906004    0.238966
 ---------------------------------------------------------------------

 SCF Done:  E(RHF) =  -669.536587224     A.U. after   15 cycles
 E2 =    -0.2091887547D+01 EUMP2 =    -0.67162847477106D+03

 The electronic state is 1-A.
 Alpha  occ. eigenvalues --  -20.61074 -20.61059 -15.86085 -11.31344 -11.27900
 Alpha  occ. eigenvalues --  -11.27894 -11.27628 -11.26893 -11.26882 -11.20500
 Alpha  occ. eigenvalues --  -11.20256 -11.20173 -11.20147 -11.20133 -11.20018
 Alpha  occ. eigenvalues --   -1.60120  -1.39677  -1.19506  -1.08924  -1.07185
 Alpha  occ. eigenvalues --   -1.04892  -1.02408  -0.95775  -0.94902  -0.86296
 Alpha  occ. eigenvalues --   -0.85927  -0.82613  -0.78473  -0.77672  -0.76993
 Alpha  occ. eigenvalues --   -0.72317  -0.71436  -0.70615  -0.65167  -0.64896
 Alpha  occ. eigenvalues --   -0.63766  -0.62240  -0.59775  -0.58282  -0.56521
 Alpha  occ. eigenvalues --   -0.55401  -0.54184  -0.53226  -0.52984  -0.51650
 Alpha  occ. eigenvalues --   -0.51348  -0.49140  -0.49063  -0.48764  -0.46817
 Alpha  occ. eigenvalues --   -0.45467  -0.45083  -0.44532  -0.44389  -0.42644
 Alpha  occ. eigenvalues --   -0.37481  -0.36488
 Alpha virt. eigenvalues --    0.04828   0.11158   0.16308   0.21247   0.24095
 Alpha virt. eigenvalues --    0.25165   0.27222   0.27692   0.28293   0.28760
 Alpha virt. eigenvalues --    0.28957   0.30933   0.32206   0.32381   0.32724

 Mulliken charges:
               1
     1  C   -0.298689
     2  C   -0.302692
     3  C   -0.472510
     4  H    0.141643
     5  H    0.160614
     6  H    0.143455
     7  H    0.172121
     8  H    0.151626
     9  H    0.150289
    10  H    0.151961
    11  C   -0.298696
    12  C   -0.300032
    13  C   -0.475235
    14  H    0.143508
    15  H    0.157657
    16  H    0.147491
    17  H    0.157081
    18  H    0.156273
    19  H    0.151997
    20  H    0.156977
    21  C   -0.170314
    22  C   -0.218604
    23  C   -0.170569
    24  C    0.157390
    25  C   -0.169960
    26  C   -0.218540
    27  H    0.226249
    28  H    0.224006
    29  H    0.275870
    30  H    0.276176
    31  H    0.224136
    32  N    0.490676
    33  O   -0.462028
    34  O   -0.459327
 Sum of Mulliken charges =  -0.00000

 Dipole moment (field-independent basis, Debye):
    X=              5.2691    Y=              1.2608    Z=              0.5676  Tot=              5.4475
 Quadrupole moment (field-independent basis, Debye-Ang):
   XX=            -71.3817   YY=            -94.1828   ZZ=            -93.8068
   XY=              0.1719   XZ=              1.1038   YZ=             -3.7714

 Normal termination of Gaussian 16 at Wed May  5 15:29:30 2021.
