 Gaussian 16, Revision A.03,
 Gaussian 16:  EM64L-G16RevA.03 25-Dec-2016

 -------------
 #p 6-31g* mp2
 -------------

 ------------------------------------------------------
 Input file generated by CHIRIPA (05-May-2021 14:55:19)
 ------------------------------------------------------
 Symbolic Z-matrix:
 Charge =  0 Multiplicity = 1

                         Standard orientation:
 ---------------------------------------------------------------------
 Center     Atomic      Atomic             Coordinates (Angstroms)
 Number     Number       Type             X           Y           Z
 ---------------------------------------------------------------------
      1          6           0        1.598173    1.949717    1.291046
      2          6           0        2.763068    2.025025    0.520417
      3          6           0        3.292792    0.878756   -0.079589
      4          6           0        2.628900   -0.331841    0.112748
      5          6           0        1.466593   -0.439175    0.874858
      6          6           0        0.954787    0.720025    1.465499
      7          1           0        1.193630    2.845189    1.753507
      8          1           0        3.264845    2.978672    0.383221
      9          1           0        4.193122    0.908552   -0.681201
     10          1           0        0.988687   -1.404023    0.993569
     11          1           0        0.049958    0.658553    2.063454
     12          7           0        3.180210   -1.552190   -0.517494
     13          8           0        2.576502   -2.606733   -0.332803
     14          8           0        4.205597   -1.431048   -1.184235
     15          6           0       -3.318619    0.923108   -0.362792
     16          6           0       -2.036702    1.599411   -0.849912
     17          6           0       -2.192405    3.111334   -1.016156
     18          1           0       -4.129548    1.133701   -1.073417
     19          1           0       -3.618969    1.369273    0.595396
     20          1           0       -1.738099    1.151148   -1.806214
     21          1           0       -1.228683    1.387024   -0.138143
     22          1           0       -2.467248    3.577271   -0.064334
     23          1           0       -2.979558    3.340055   -1.741883
     24          1           0       -1.264224    3.574548   -1.365117
     25          6           0       -3.178756   -0.588484   -0.191756
     26          6           0       -4.460674   -1.264787    0.295365
     27          6           0       -4.304969   -2.776711    0.461610
     28          1           0       -2.878407   -1.034650   -1.149942
     29          1           0       -2.367827   -0.799077    0.518870
     30          1           0       -5.268692   -1.052401   -0.416404
     31          1           0       -4.759277   -0.816525    1.251667
     32          1           0       -3.517817   -3.005431    1.187336
     33          1           0       -4.030127   -3.242648   -0.490212
     34          1           0       -5.233151   -3.239924    0.810570
 ---------------------------------------------------------------------

 SCF Done:  E(RHF) =  -669.534878756     A.U. after   15 cycles
 E2 =    -0.2092926186D+01 EUMP2 =    -0.67162780494276D+03

 The electronic state is 1-A.
 Alpha  occ. eigenvalues --  -20.60799 -20.60794 -15.85854 -11.31247 -11.27820
 Alpha  occ. eigenvalues --  -11.27815 -11.27570 -11.26846 -11.26833 -11.21938
 Alpha  occ. eigenvalues --  -11.21905 -11.21838 -11.21778 -11.21559 -11.21298
 Alpha  occ. eigenvalues --   -1.59874  -1.39427  -1.19431  -1.08861  -1.08795
 Alpha  occ. eigenvalues --   -1.04845  -1.03895  -0.96362  -0.95645  -0.87374
 Alpha  occ. eigenvalues --   -0.86240  -0.82481  -0.79955  -0.78652  -0.77517
 Alpha  occ. eigenvalues --   -0.72073  -0.71197  -0.70526  -0.65528  -0.65084
 Alpha  occ. eigenvalues --   -0.64823  -0.62189  -0.61307  -0.59730  -0.57964
 Alpha  occ. eigenvalues --   -0.55668  -0.55331  -0.53237  -0.53008  -0.52933
 Alpha  occ. eigenvalues --   -0.52763  -0.50305  -0.48835  -0.48825  -0.48262
 Alpha  occ. eigenvalues --   -0.46998  -0.46191  -0.46120  -0.44825  -0.44165
 Alpha  occ. eigenvalues --   -0.37369  -0.36368
 Alpha virt. eigenvalues --    0.05001   0.11117   0.16409   0.19931   0.22968
 Alpha virt. eigenvalues --    0.23816   0.25230   0.26682   0.27437   0.28272
 Alpha virt. eigenvalues --    0.29345   0.30995   0.31194   0.31575   0.31652

 Mulliken charges:
               1
     1  C   -0.169426
     2  C   -0.218432
     3  C   -0.170549
     4  C    0.158640
     5  C   -0.169832
     6  C   -0.220015
     7  H    0.226652
     8  H    0.223873
     9  H    0.275924
    10  H    0.276358
    11  H    0.224726
    12  N    0.488073
    13  O   -0.460019
    14  O   -0.460320
    15  C   -0.298413
    16  C   -0.307376
    17  C   -0.475749
    18  H    0.151873
    19  H    0.145571
    20  H    0.155339
    21  H    0.155651
    22  H    0.150437
    23  H    0.157808
    24  H    0.159262
    25  C   -0.296691
    26  C   -0.300042
    27  C   -0.475707
    28  H    0.154608
    29  H    0.140030
    30  H    0.153830
    31  H    0.150283
    32  H    0.153765
    33  H    0.158425
    34  H    0.161442
 Sum of Mulliken charges =  -0.00000

 Dipole moment (field-independent basis, Debye):
    X=             -1.9103    Y=              4.2414    Z=              2.1515  Tot=              5.1252
 Quadrupole moment (field-independent basis, Debye-Ang):
   XX=           -102.2518   YY=            -97.8591   ZZ=            -93.1898
   XY=             14.6991   XZ=              4.5306   YZ=             -1.0570

 Normal termination of Gaussian 16 at Thu May  6 12:23:49 2021.
