 Gaussian 16, Revision A.03,
 Gaussian 16:  EM64L-G16RevA.03 25-Dec-2016

 -------------
 #p 6-31g* mp2
 -------------

 ------------------------------------------------------
 Input file generated by CHIRIPA (05-May-2021 14:51:09)
 ------------------------------------------------------
 Symbolic Z-matrix:
 Charge =  0 Multiplicity = 1

                         Standard orientation:
 ---------------------------------------------------------------------
 Center     Atomic      Atomic             Coordinates (Angstroms)
 Number     Number       Type             X           Y           Z
 ---------------------------------------------------------------------
      1          6           0       -4.506322   -0.304152   -0.353574
      2          6           0       -5.902042   -0.217130    0.264793
      3          6           0       -7.015847   -0.468789   -0.752016
      4          1           0       -4.428854    0.424364   -1.172237
      5          1           0       -4.374252   -1.297104   -0.805237
      6          1           0       -6.030932    0.774881    0.716365
      7          1           0       -5.976131   -0.945805    1.082204
      8          1           0       -6.915307   -1.464965   -1.194877
      9          1           0       -6.970419    0.265497   -1.562794
     10          1           0       -8.005118   -0.401777   -0.288647
     11          6           0       -3.382264   -0.054882    0.650461
     12          6           0       -1.986544   -0.141904    0.032094
     13          6           0       -0.872739    0.109755    1.048903
     14          1           0       -3.514333    0.938070    1.102124
     15          1           0       -3.459731   -0.783398    1.469124
     16          1           0       -1.912454    0.586771   -0.785316
     17          1           0       -1.857653   -1.133915   -0.419478
     18          1           0       -0.918166   -0.624531    1.859682
     19          1           0       -0.973278    1.105931    1.491764
     20          1           0        0.116533    0.042744    0.585534
     21          6           0        3.963522   -0.542769   -0.396164
     22          6           0        5.038823   -1.389284    0.285837
     23          6           0        5.064848   -2.831818   -0.220339
     24          1           0        2.981642   -1.007832   -0.233152
     25          1           0        4.135792   -0.548487   -1.481376
     26          1           0        4.865388   -1.380839    1.369563
     27          1           0        6.018236   -0.922048    0.121344
     28          1           0        5.260791   -2.858767   -1.297132
     29          1           0        4.101391   -3.320164   -0.041820
     30          1           0        5.840827   -3.419083    0.280497
     31          6           0        3.925063    0.901803    0.099277
     32          6           0        2.849762    1.748317   -0.582723
     33          6           0        2.823737    3.190851   -0.076548
     34          1           0        3.752794    0.907521    1.184489
     35          1           0        4.906944    1.366866   -0.063735
     36          1           0        1.870349    1.281082   -0.418231
     37          1           0        3.023198    1.739872   -1.666451
     38          1           0        3.787194    3.679198   -0.255067
     39          1           0        2.627796    3.217800    1.000245
     40          1           0        2.047759    3.778117   -0.577384
 ---------------------------------------------------------------------

 SCF Done:  E(RHF) =  -470.733306966     A.U. after   11 cycles
 E2 =    -0.1582557565D+01 EUMP2 =    -0.47231586453167D+03

 The electronic state is 1-A.
 Alpha  occ. eigenvalues --  -11.21642 -11.21616 -11.21592 -11.21557 -11.21429
 Alpha  occ. eigenvalues --  -11.21394 -11.21369 -11.21332 -11.21129 -11.21082
 Alpha  occ. eigenvalues --  -11.21063 -11.21044  -1.08458  -1.08414  -1.03567
 Alpha  occ. eigenvalues --   -1.03505  -0.96016  -0.95960  -0.87040  -0.86971
 Alpha  occ. eigenvalues --   -0.79643  -0.79557  -0.78267  -0.78230  -0.65093
 Alpha  occ. eigenvalues --   -0.65055  -0.60994  -0.60904  -0.59432  -0.59274
 Alpha  occ. eigenvalues --   -0.57635  -0.57561  -0.55314  -0.55229  -0.52765
 Alpha  occ. eigenvalues --   -0.52635  -0.52450  -0.52373  -0.49957  -0.49892
 Alpha  occ. eigenvalues --   -0.48003  -0.47846  -0.46662  -0.46586  -0.45816
 Alpha  occ. eigenvalues --   -0.45763  -0.45732  -0.45686  -0.43792  -0.43743
 Alpha virt. eigenvalues --    0.20855   0.23020   0.23869   0.24748   0.25931
 Alpha virt. eigenvalues --    0.26628   0.27125   0.27532   0.27887   0.28824
 Alpha virt. eigenvalues --    0.31089   0.31369   0.31715   0.31826   0.32026

 Mulliken charges:
               1
     1  C   -0.298304
     2  C   -0.299682
     3  C   -0.475725
     4  H    0.149763
     5  H    0.149591
     6  H    0.151974
     7  H    0.151950
     8  H    0.155214
     9  H    0.155226
    10  H    0.160304
    11  C   -0.298476
    12  C   -0.299416
    13  C   -0.483009
    14  H    0.149654
    15  H    0.149703
    16  H    0.152461
    17  H    0.152019
    18  H    0.155337
    19  H    0.155665
    20  H    0.166112
    21  C   -0.299652
    22  C   -0.299619
    23  C   -0.475731
    24  H    0.149916
    25  H    0.149602
    26  H    0.152146
    27  H    0.152015
    28  H    0.155132
    29  H    0.155200
    30  H    0.160234
    31  C   -0.297877
    32  C   -0.307247
    33  C   -0.475178
    34  H    0.149868
    35  H    0.149643
    36  H    0.159164
    37  H    0.151704
    38  H    0.155009
    39  H    0.155433
    40  H    0.159879
 Sum of Mulliken charges =  -0.00000

 Dipole moment (field-independent basis, Debye):
    X=             -0.0182    Y=             -0.0014    Z=              0.0048  Tot=              0.0188
 Quadrupole moment (field-independent basis, Debye-Ang):
   XX=            -85.1913   YY=            -84.9007   ZZ=            -84.6710
   XY=              0.1382   XZ=             -0.9838   YZ=             -0.7872

 Normal termination of Gaussian 16 at Wed May  5 21:20:51 2021.
