 Gaussian 16, Revision A.03,
 Gaussian 16:  EM64L-G16RevA.03 25-Dec-2016

 -------------
 #p 6-31g* mp2
 -------------

 ------------------------------------------------------
 Input file generated by CHIRIPA (05-May-2021 14:51:09)
 ------------------------------------------------------
 Symbolic Z-matrix:
 Charge =  0 Multiplicity = 1

                         Standard orientation:
 ---------------------------------------------------------------------
 Center     Atomic      Atomic             Coordinates (Angstroms)
 Number     Number       Type             X           Y           Z
 ---------------------------------------------------------------------
      1          6           0       -3.780723   -0.495919   -0.057863
      2          6           0       -5.091334   -1.152423   -0.492935
      3          6           0       -5.132303   -2.649996   -0.187333
      4          1           0       -2.942335   -0.997251   -0.560572
      5          1           0       -3.639143   -0.655119    1.020100
      6          1           0       -5.231082   -0.990842   -1.569493
      7          1           0       -5.926713   -0.649345    0.010721
      8          1           0       -5.018000   -2.827212    0.886971
      9          1           0       -4.318417   -3.170649   -0.702222
     10          1           0       -6.077936   -3.099152   -0.506547
     11          6           0       -3.724649    1.001169   -0.356711
     12          6           0       -2.414038    1.657673    0.078361
     13          6           0       -2.373068    3.155245   -0.227241
     14          1           0       -3.866229    1.160369   -1.434675
     15          1           0       -4.563037    1.502501    0.145998
     16          1           0       -1.578658    1.154595   -0.425295
     17          1           0       -2.274289    1.496092    1.154919
     18          1           0       -3.186955    3.675898    0.287648
     19          1           0       -2.487372    3.332461   -1.301545
     20          1           0       -1.427435    3.604402    0.091973
     21          6           0        4.506974   -0.322547    0.305224
     22          6           0        5.297441   -0.249692   -1.001619
     23          6           0        6.804990   -0.391160   -0.789304
     24          1           0        4.858816    0.466698    0.983637
     25          1           0        4.720086   -1.279374    0.801673
     26          1           0        5.081832    0.706123   -1.496135
     27          1           0        4.943546   -1.039081   -1.677073
     28          1           0        7.039230   -1.351100   -0.317873
     29          1           0        7.178303    0.404019   -0.135907
     30          1           0        7.350708   -0.336207   -1.736422
     31          6           0        2.998398   -0.182703    0.109350
     32          6           0        2.207930   -0.255558    1.416193
     33          6           0        0.700382   -0.114090    1.203878
     34          1           0        2.785285    0.774124   -0.387099
     35          1           0        2.646555   -0.971947   -0.569063
     36          1           0        2.561826    0.533831    2.091647
     37          1           0        2.423539   -1.211373    1.910708
     38          1           0        0.327069   -0.909270    0.550481
     39          1           0        0.466142    0.845851    0.732448
     40          1           0        0.154664   -0.169044    2.150996
 ---------------------------------------------------------------------

 SCF Done:  E(RHF) =  -470.732577369     A.U. after   11 cycles
 E2 =    -0.1583013581D+01 EUMP2 =    -0.47231559094977D+03

 The electronic state is 1-A.
 Alpha  occ. eigenvalues --  -11.21599 -11.21564 -11.21552 -11.21459 -11.21396
 Alpha  occ. eigenvalues --  -11.21341 -11.21337 -11.21279 -11.21070 -11.21046
 Alpha  occ. eigenvalues --  -11.21034 -11.20976  -1.08421  -1.08364  -1.03537
 Alpha  occ. eigenvalues --   -1.03449  -0.95976  -0.95917  -0.87021  -0.86910
 Alpha  occ. eigenvalues --   -0.79730  -0.79410  -0.78282  -0.78106  -0.65049
 Alpha  occ. eigenvalues --   -0.65002  -0.60943  -0.60857  -0.59340  -0.59302
 Alpha  occ. eigenvalues --   -0.57648  -0.57481  -0.55262  -0.55194  -0.52715
 Alpha  occ. eigenvalues --   -0.52597  -0.52430  -0.52310  -0.49944  -0.49849
 Alpha  occ. eigenvalues --   -0.48116  -0.47667  -0.46639  -0.46504  -0.45909
 Alpha  occ. eigenvalues --   -0.45711  -0.45652  -0.45435  -0.43767  -0.43708
 Alpha virt. eigenvalues --    0.22095   0.23020   0.23688   0.24762   0.25910
 Alpha virt. eigenvalues --    0.26381   0.26508   0.27508   0.27734   0.29427
 Alpha virt. eigenvalues --    0.30735   0.30950   0.31608   0.31788   0.32499

 Mulliken charges:
               1
     1  C   -0.298236
     2  C   -0.299591
     3  C   -0.475597
     4  H    0.149750
     5  H    0.149588
     6  H    0.151763
     7  H    0.151849
     8  H    0.155137
     9  H    0.154957
    10  H    0.160098
    11  C   -0.298033
    12  C   -0.302942
    13  C   -0.476625
    14  H    0.148897
    15  H    0.149010
    16  H    0.157030
    17  H    0.153488
    18  H    0.155102
    19  H    0.154897
    20  H    0.159292
    21  C   -0.298176
    22  C   -0.299629
    23  C   -0.475695
    24  H    0.149637
    25  H    0.149566
    26  H    0.151864
    27  H    0.151842
    28  H    0.155189
    29  H    0.155185
    30  H    0.160216
    31  C   -0.298264
    32  C   -0.300569
    33  C   -0.476727
    34  H    0.149133
    35  H    0.149285
    36  H    0.151545
    37  H    0.151446
    38  H    0.154430
    39  H    0.160244
    40  H    0.159646
 Sum of Mulliken charges =  -0.00000

 Dipole moment (field-independent basis, Debye):
    X=              0.0016    Y=             -0.0007    Z=              0.0071  Tot=              0.0073
 Quadrupole moment (field-independent basis, Debye-Ang):
   XX=            -86.1107   YY=            -85.0041   ZZ=            -83.9718
   XY=             -0.0586   XZ=             -0.3842   YZ=              0.4894

 Normal termination of Gaussian 16 at Thu May  6 05:19:51 2021.
