 Gaussian 16, Revision A.03,
 Gaussian 16:  EM64L-G16RevA.03 25-Dec-2016

 -------------
 #p 6-31g* mp2
 -------------

 ------------------------------------------------------
 Input file generated by CHIRIPA (05-May-2021 14:57:26)
 ------------------------------------------------------
 Symbolic Z-matrix:
 Charge =  0 Multiplicity = 1

                         Standard orientation:
 ---------------------------------------------------------------------
 Center     Atomic      Atomic             Coordinates (Angstroms)
 Number     Number       Type             X           Y           Z
 ---------------------------------------------------------------------
      1          6           0        1.623575   -0.375807    2.286668
      2          6           0        2.506753    0.693568    2.105141
      3          6           0        3.229378    0.823510    0.915404
      4          6           0        3.043559   -0.138416   -0.076292
      5          6           0        2.171097   -1.215133    0.074636
      6          6           0        1.458856   -1.325072    1.272623
      7          1           0        1.066255   -0.468980    3.214089
      8          1           0        2.636684    1.432273    2.890939
      9          1           0        3.919698    1.641439    0.748462
     10          1           0        2.062730   -1.935772   -0.726834
     11          1           0        0.773659   -2.156606    1.410831
     12          7           0        3.803073   -0.011441   -1.340181
     13          8           0        3.621506   -0.872186   -2.198544
     14          8           0        4.565566    0.946424   -1.448522
     15          6           0       -2.517545    2.650211   -0.103275
     16          6           0       -1.595605    1.785882    0.496293
     17          6           0       -1.807465    0.404012    0.486390
     18          6           0       -2.957133   -0.081465   -0.134790
     19          6           0       -3.894236    0.753977   -0.740732
     20          6           0       -3.661900    2.132413   -0.718789
     21          1           0       -2.345015    3.722348   -0.090907
     22          1           0       -0.706003    2.185198    0.975043
     23          1           0       -1.110099   -0.287809    0.942988
     24          1           0       -4.771758    0.326275   -1.210246
     25          1           0       -4.379606    2.801285   -1.185215
     26          7           0       -3.192258   -1.542572   -0.151647
     27          8           0       -4.212948   -1.945250   -0.705432
     28          8           0       -2.351406   -2.257443    0.389246
 ---------------------------------------------------------------------

 SCF Done:  E(RHF) =  -868.338725300     A.U. after   16 cycles
 E2 =    -0.2601762692D+01 EUMP2 =    -0.87094048799167D+03

 The electronic state is 1-A.
 Alpha  occ. eigenvalues --  -20.61308 -20.61254 -20.61080 -20.61061 -15.86325
 Alpha  occ. eigenvalues --  -15.86127 -11.31624 -11.31477 -11.28244 -11.28107
 Alpha  occ. eigenvalues --  -11.28031 -11.27977 -11.27966 -11.27754 -11.27320
 Alpha  occ. eigenvalues --  -11.27060 -11.27011 -11.26997  -1.60346  -1.60146
 Alpha  occ. eigenvalues --   -1.39912  -1.39694  -1.19824  -1.19640  -1.09203
 Alpha  occ. eigenvalues --   -1.09079  -1.05217  -1.05007  -0.96008  -0.95939
 Alpha  occ. eigenvalues --   -0.86632  -0.86400  -0.82821  -0.82765  -0.77924
 Alpha  occ. eigenvalues --   -0.77763  -0.72561  -0.72340  -0.71656  -0.71472
 Alpha  occ. eigenvalues --   -0.70912  -0.70761  -0.65453  -0.65312  -0.65207
 Alpha  occ. eigenvalues --   -0.64965  -0.62562  -0.62334  -0.55705  -0.55564
 Alpha  occ. eigenvalues --   -0.53628  -0.53344  -0.53250  -0.53010  -0.49323
 Alpha  occ. eigenvalues --   -0.49272  -0.49107  -0.49088  -0.45362  -0.45069
 Alpha  occ. eigenvalues --   -0.37846  -0.37626  -0.36875  -0.36537
 Alpha virt. eigenvalues --    0.04528   0.04791   0.10633   0.11038   0.16078
 Alpha virt. eigenvalues --    0.16217   0.20604   0.21689   0.26537   0.27057
 Alpha virt. eigenvalues --    0.27953   0.28708   0.30596   0.31000   0.31854

 Mulliken charges:
               1
     1  C   -0.180275
     2  C   -0.222439
     3  C   -0.172521
     4  C    0.158997
     5  C   -0.169598
     6  C   -0.235254
     7  H    0.229420
     8  H    0.223566
     9  H    0.276235
    10  H    0.282439
    11  H    0.246319
    12  N    0.487883
    13  O   -0.456641
    14  O   -0.460734
    15  C   -0.169563
    16  C   -0.223609
    17  C   -0.174225
    18  C    0.157297
    19  C   -0.169449
    20  C   -0.218866
    21  H    0.226597
    22  H    0.222936
    23  H    0.278474
    24  H    0.276207
    25  H    0.224724
    26  N    0.489457
    27  O   -0.456329
    28  O   -0.471049
 Sum of Mulliken charges =  -0.00000

 Dipole moment (field-independent basis, Debye):
    X=             -1.7689    Y=              4.5917    Z=              4.3752  Tot=              6.5844
 Quadrupole moment (field-independent basis, Debye-Ang):
   XX=           -121.7735   YY=           -102.4546   ZZ=           -104.8634
   XY=            -15.4908   XZ=             16.9728   YZ=             -0.1791

 Normal termination of Gaussian 16 at Thu May  6 14:48:09 2021.
