 Gaussian 16, Revision A.03,
 Gaussian 16:  EM64L-G16RevA.03 25-Dec-2016

 -------------
 #p 6-31g* mp2
 -------------

 ------------------------------------------------------
 Input file generated by CHIRIPA (05-May-2021 14:57:27)
 ------------------------------------------------------
 Symbolic Z-matrix:
 Charge =  0 Multiplicity = 1

                         Standard orientation:
 ---------------------------------------------------------------------
 Center     Atomic      Atomic             Coordinates (Angstroms)
 Number     Number       Type             X           Y           Z
 ---------------------------------------------------------------------
      1          6           0        1.560850   -1.405662    1.718773
      2          6           0        1.117669   -0.196294    1.173299
      3          6           0        1.962464    0.569691    0.364513
      4          6           0        3.249989    0.094142    0.120747
      5          6           0        3.720721   -1.106647    0.649717
      6          6           0        2.858673   -1.856184    1.455705
      7          1           0        0.897891   -1.994309    2.345970
      8          1           0        0.110273    0.156055    1.375905
      9          1           0        1.645115    1.509591   -0.070569
     10          1           0        4.730330   -1.431882    0.429879
     11          1           0        3.205552   -2.795012    1.877986
     12          7           0        4.153469    0.896350   -0.733997
     13          8           0        5.283231    0.455436   -0.933668
     14          8           0        3.714746    1.950844   -1.188090
     15          6           0       -3.672761    2.242713    0.824043
     16          6           0       -4.611111    1.205502    0.809391
     17          6           0       -4.305223   -0.020274    0.210681
     18          6           0       -3.045818   -0.175065   -0.366577
     19          6           0       -2.089575    0.839276   -0.368103
     20          6           0       -2.417201    2.056618    0.236286
     21          1           0       -3.918826    3.191649    1.291342
     22          1           0       -5.586978    1.347195    1.265079
     23          1           0       -5.012830   -0.840065    0.185109
     24          1           0       -1.125028    0.668188   -0.830484
     25          1           0       -1.686493    2.860367    0.246174
     26          7           0       -2.710480   -1.468275   -1.003411
     27          8           0       -1.593982   -1.579451   -1.505115
     28          8           0       -3.570493   -2.346228   -0.988800
 ---------------------------------------------------------------------

 SCF Done:  E(RHF) =  -868.336917658     A.U. after   16 cycles
 E2 =    -0.2601576907D+01 EUMP2 =    -0.87093849456494D+03

 The electronic state is 1-A.
 Alpha  occ. eigenvalues --  -20.61401 -20.61382 -20.60746 -20.60730 -15.86449
 Alpha  occ. eigenvalues --  -15.85794 -11.31951 -11.31133 -11.28524 -11.28489
 Alpha  occ. eigenvalues --  -11.28229 -11.27782 -11.27645 -11.27573 -11.27498
 Alpha  occ. eigenvalues --  -11.27360 -11.26685 -11.26639  -1.60474  -1.59814
 Alpha  occ. eigenvalues --   -1.40019  -1.39371  -1.20134  -1.19279  -1.09479
 Alpha  occ. eigenvalues --   -1.08664  -1.05564  -1.04702  -0.96298  -0.95520
 Alpha  occ. eigenvalues --   -0.86927  -0.86091  -0.83129  -0.82378  -0.78183
 Alpha  occ. eigenvalues --   -0.77430  -0.72654  -0.72017  -0.71814  -0.71201
 Alpha  occ. eigenvalues --   -0.71129  -0.70391  -0.65764  -0.65542  -0.64945
 Alpha  occ. eigenvalues --   -0.64722  -0.62951  -0.62000  -0.55988  -0.55169
 Alpha  occ. eigenvalues --   -0.53924  -0.53637  -0.52954  -0.52732  -0.49431
 Alpha  occ. eigenvalues --   -0.49409  -0.48779  -0.48763  -0.45392  -0.44786
 Alpha  occ. eigenvalues --   -0.38093  -0.37240  -0.37125  -0.36257
 Alpha virt. eigenvalues --    0.04321   0.05095   0.10368   0.11462   0.15753
 Alpha virt. eigenvalues --    0.16533   0.19864   0.21939   0.25196   0.27484
 Alpha virt. eigenvalues --    0.27977   0.29592   0.30432   0.31176   0.31795

 Mulliken charges:
               1
     1  C   -0.167604
     2  C   -0.216751
     3  C   -0.174774
     4  C    0.160305
     5  C   -0.170033
     6  C   -0.216820
     7  H    0.227403
     8  H    0.223168
     9  H    0.265689
    10  H    0.276039
    11  H    0.224697
    12  N    0.488520
    13  O   -0.459109
    14  O   -0.463534
    15  C   -0.170240
    16  C   -0.218118
    17  C   -0.170772
    18  C    0.157619
    19  C   -0.184041
    20  C   -0.222347
    21  H    0.229099
    22  H    0.226442
    23  H    0.277734
    24  H    0.280825
    25  H    0.225954
    26  N    0.487048
    27  O   -0.457234
    28  O   -0.459164
 Sum of Mulliken charges =  -0.00000

 Dipole moment (field-independent basis, Debye):
    X=             -4.5151    Y=              1.5624    Z=              5.2707  Tot=              7.1139
 Quadrupole moment (field-independent basis, Debye-Ang):
   XX=           -110.9489   YY=           -104.6086   ZZ=           -106.8465
   XY=            -24.9921   XZ=              2.2289   YZ=             -3.1365

 Normal termination of Gaussian 16 at Fri May  7 09:44:33 2021.
