 Gaussian 16, Revision A.03,
 Gaussian 16:  EM64L-G16RevA.03 25-Dec-2016

 -------------
 #p 6-31g* mp2
 -------------

 ------------------------------------------------------
 Input file generated by CHIRIPA (05-May-2021 14:55:24)
 ------------------------------------------------------
 Symbolic Z-matrix:
 Charge =  0 Multiplicity = 1

                         Standard orientation:
 ---------------------------------------------------------------------
 Center     Atomic      Atomic             Coordinates (Angstroms)
 Number     Number       Type             X           Y           Z
 ---------------------------------------------------------------------
      1          6           0        1.811131    1.229884    0.297752
      2          6           0        2.897043    1.841976   -0.336801
      3          6           0        4.098419    1.149301   -0.514130
      4          6           0        4.179414   -0.159999   -0.042470
      5          6           0        3.115212   -0.797212    0.593707
      6          6           0        1.923483   -0.085438    0.760166
      7          1           0        0.881621    1.775389    0.431283
      8          1           0        2.812652    2.863363   -0.696930
      9          1           0        4.954730    1.599012   -1.001890
     10          1           0        3.229494   -1.816538    0.942034
     11          1           0        1.081788   -0.563329    1.253335
     12          7           0        5.446151   -0.903412   -0.224446
     13          8           0        5.492047   -2.055930    0.200094
     14          8           0        6.369136   -0.319506   -0.788173
     15          6           0       -5.651055   -0.429214    0.195927
     16          6           0       -6.830626   -0.360176   -0.774553
     17          6           0       -7.960256   -1.320583   -0.401258
     18          1           0       -5.266008   -1.457796    0.222469
     19          1           0       -6.006311   -0.202170    1.210638
     20          1           0       -6.472993   -0.585927   -1.787347
     21          1           0       -7.212788    0.668402   -0.798933
     22          1           0       -8.344700   -1.093193    0.598290
     23          1           0       -7.600703   -2.354648   -0.395739
     24          1           0       -8.793196   -1.254788   -1.108181
     25          6           0       -4.513786    0.525150   -0.163984
     26          6           0       -3.334215    0.456113    0.806496
     27          6           0       -2.204585    1.416518    0.433201
     28          1           0       -4.158530    0.298106   -1.178695
     29          1           0       -4.898833    1.553731   -0.190527
     30          1           0       -2.952053   -0.572466    0.830876
     31          1           0       -3.691848    0.681863    1.819290
     32          1           0       -2.564139    2.450584    0.427683
     33          1           0       -1.820140    1.189129   -0.566348
     34          1           0       -1.371645    1.350724    1.140124
 ---------------------------------------------------------------------

 SCF Done:  E(RHF) =  -669.535478741     A.U. after   15 cycles
 E2 =    -0.2090929980D+01 EUMP2 =    -0.67162640872102D+03

 The electronic state is 1-A.
 Alpha  occ. eigenvalues --  -20.60705 -20.60700 -15.85759 -11.31104 -11.27680
 Alpha  occ. eigenvalues --  -11.27675 -11.27345 -11.26676 -11.26664 -11.22611
 Alpha  occ. eigenvalues --  -11.22419 -11.22154 -11.22095 -11.21974 -11.21475
 Alpha  occ. eigenvalues --   -1.59782  -1.39336  -1.19274  -1.09168  -1.08666
 Alpha  occ. eigenvalues --   -1.04679  -1.04318  -0.96796  -0.95504  -0.87823
 Alpha  occ. eigenvalues --   -0.86073  -0.82344  -0.80397  -0.78927  -0.77398
 Alpha  occ. eigenvalues --   -0.71977  -0.71105  -0.70387  -0.65789  -0.64925
 Alpha  occ. eigenvalues --   -0.64693  -0.62036  -0.61699  -0.60230  -0.58373
 Alpha  occ. eigenvalues --   -0.56071  -0.55220  -0.53431  -0.53210  -0.53004
 Alpha  occ. eigenvalues --   -0.52766  -0.50709  -0.48734  -0.48734  -0.48702
 Alpha  occ. eigenvalues --   -0.47396  -0.46483  -0.46369  -0.44746  -0.44557
 Alpha  occ. eigenvalues --   -0.37241  -0.36290
 Alpha virt. eigenvalues --    0.05137   0.11361   0.16620   0.20012   0.22371
 Alpha virt. eigenvalues --    0.23760   0.25926   0.26078   0.26546   0.27518
 Alpha virt. eigenvalues --    0.28622   0.30120   0.30623   0.31226   0.31889

 Mulliken charges:
               1
     1  C   -0.175765
     2  C   -0.219802
     3  C   -0.170780
     4  C    0.158057
     5  C   -0.170956
     6  C   -0.221276
     7  H    0.235130
     8  H    0.223480
     9  H    0.275207
    10  H    0.275188
    11  H    0.223054
    12  N    0.488075
    13  O   -0.460766
    14  O   -0.460674
    15  C   -0.298994
    16  C   -0.300217
    17  C   -0.476119
    18  H    0.150574
    19  H    0.150526
    20  H    0.152810
    21  H    0.152555
    22  H    0.155734
    23  H    0.155924
    24  H    0.161795
    25  C   -0.299515
    26  C   -0.299272
    27  C   -0.482645
    28  H    0.151114
    29  H    0.151100
    30  H    0.152071
    31  H    0.155017
    32  H    0.160125
    33  H    0.158276
    34  H    0.150970
 Sum of Mulliken charges =  -0.00000

 Dipole moment (field-independent basis, Debye):
    X=             -4.7599    Y=              2.6250    Z=              0.6084  Tot=              5.4697
 Quadrupole moment (field-independent basis, Debye-Ang):
   XX=           -131.5731   YY=            -92.5174   ZZ=            -94.2187
   XY=             12.7001   XZ=              1.7289   YZ=             -1.8425

 Normal termination of Gaussian 16 at Thu May  6 09:29:37 2021.
