 Gaussian 16, Revision A.03,
 Gaussian 16:  EM64L-G16RevA.03 25-Dec-2016

 -------------
 #p 6-31g* mp2
 -------------

 ------------------------------------------------------
 Input file generated by CHIRIPA (05-May-2021 14:51:07)
 ------------------------------------------------------
 Symbolic Z-matrix:
 Charge =  0 Multiplicity = 1

                         Standard orientation:
 ---------------------------------------------------------------------
 Center     Atomic      Atomic             Coordinates (Angstroms)
 Number     Number       Type             X           Y           Z
 ---------------------------------------------------------------------
      1          6           0        4.532407    0.598330    0.199684
      2          6           0        3.125990    0.444692   -0.380291
      3          6           0        2.180066    1.562815    0.058827
      4          1           0        4.469772    0.618003    1.296331
      5          1           0        4.943993    1.569779   -0.107364
      6          1           0        2.717717   -0.526770   -0.073387
      7          1           0        3.191999    0.425190   -1.475681
      8          1           0        2.561541    2.537917   -0.260946
      9          1           0        2.084563    1.580548    1.149316
     10          1           0        1.180283    1.433317   -0.367229
     11          6           0        5.489623   -0.511902   -0.230258
     12          6           0        6.896040   -0.358265    0.349717
     13          6           0        7.841963   -1.476387   -0.089401
     14          1           0        5.078036   -1.483351    0.076790
     15          1           0        5.552258   -0.531576   -1.326905
     16          1           0        6.830030   -0.338762    1.445107
     17          1           0        7.304313    0.613198    0.042813
     18          1           0        7.937466   -1.494121   -1.179890
     19          1           0        7.460489   -2.451489    0.230372
     20          1           0        8.841746   -1.346889    0.336656
     21          6           0       -5.679624   -0.134809   -0.342489
     22          6           0       -6.751028   -0.786830    0.532124
     23          6           0       -8.082976   -0.963357   -0.197634
     24          1           0       -6.042441    0.842907   -0.688005
     25          1           0       -5.527619   -0.747464   -1.241901
     26          1           0       -6.899979   -0.173857    1.430285
     27          1           0       -6.385542   -1.763023    0.875755
     28          1           0       -7.956013   -1.593034   -1.084194
     29          1           0       -8.473374    0.005162   -0.526513
     30          1           0       -8.834457   -1.431211    0.445988
     31          6           0       -4.342405    0.048381    0.373062
     32          6           0       -3.271001    0.700402   -0.501550
     33          6           0       -1.939053    0.876929    0.228208
     34          1           0       -4.494411    0.661037    1.272475
     35          1           0       -3.979589   -0.929334    0.718579
     36          1           0       -3.636488    1.676595   -0.845181
     37          1           0       -3.122050    0.087429   -1.399711
     38          1           0       -1.548656   -0.091590    0.557087
     39          1           0       -2.066016    1.506606    1.114768
     40          1           0       -1.187573    1.344783   -0.415414
 ---------------------------------------------------------------------

 SCF Done:  E(RHF) =  -470.733188717     A.U. after   11 cycles
 E2 =    -0.1582124286D+01 EUMP2 =    -0.47231531300260D+03

 The electronic state is 1-A.
 Alpha  occ. eigenvalues --  -11.21601 -11.21599 -11.21581 -11.21551 -11.21405
 Alpha  occ. eigenvalues --  -11.21373 -11.21345 -11.21312 -11.21071 -11.21063
 Alpha  occ. eigenvalues --  -11.21056 -11.20969  -1.08430  -1.08394  -1.03536
 Alpha  occ. eigenvalues --   -1.03483  -0.96008  -0.95912  -0.87053  -0.86902
 Alpha  occ. eigenvalues --   -0.79624  -0.79522  -0.78242  -0.78208  -0.65059
 Alpha  occ. eigenvalues --   -0.65025  -0.60926  -0.60883  -0.59603  -0.59125
 Alpha  occ. eigenvalues --   -0.57678  -0.57457  -0.55266  -0.55219  -0.53016
 Alpha  occ. eigenvalues --   -0.52445  -0.52417  -0.52182  -0.49919  -0.49875
 Alpha  occ. eigenvalues --   -0.47946  -0.47830  -0.46624  -0.46587  -0.45784
 Alpha  occ. eigenvalues --   -0.45749  -0.45709  -0.45676  -0.43973  -0.43525
 Alpha virt. eigenvalues --    0.22381   0.22978   0.23532   0.24822   0.26644
 Alpha virt. eigenvalues --    0.26684   0.26825   0.27496   0.27554   0.28785
 Alpha virt. eigenvalues --    0.29740   0.31382   0.31446   0.31926   0.31968

 Mulliken charges:
               1
     1  C   -0.298485
     2  C   -0.298976
     3  C   -0.481772
     4  H    0.149620
     5  H    0.149404
     6  H    0.151800
     7  H    0.151421
     8  H    0.154348
     9  H    0.155393
    10  H    0.166934
    11  C   -0.298179
    12  C   -0.299606
    13  C   -0.475677
    14  H    0.149417
    15  H    0.149531
    16  H    0.151919
    17  H    0.151889
    18  H    0.155128
    19  H    0.155129
    20  H    0.160184
    21  C   -0.298238
    22  C   -0.299622
    23  C   -0.475700
    24  H    0.149673
    25  H    0.149513
    26  H    0.151940
    27  H    0.151919
    28  H    0.155178
    29  H    0.155190
    30  H    0.160248
    31  C   -0.298674
    32  C   -0.299380
    33  C   -0.479371
    34  H    0.149572
    35  H    0.149598
    36  H    0.151975
    37  H    0.151828
    38  H    0.155229
    39  H    0.155750
    40  H    0.163952
 Sum of Mulliken charges =  -0.00000

 Dipole moment (field-independent basis, Debye):
    X=             -0.0257    Y=              0.0047    Z=              0.0061  Tot=              0.0269
 Quadrupole moment (field-independent basis, Debye-Ang):
   XX=            -86.4744   YY=            -84.2044   ZZ=            -84.2190
   XY=              0.2346   XZ=             -0.5438   YZ=             -0.4013

 Normal termination of Gaussian 16 at Thu May  6 00:29:27 2021.
