 Gaussian 16, Revision A.03,
 Gaussian 16:  EM64L-G16RevA.03 25-Dec-2016

 -------------
 #p 6-31g* mp2
 -------------

 ------------------------------------------------------
 Input file generated by CHIRIPA (05-May-2021 14:57:22)
 ------------------------------------------------------
 Symbolic Z-matrix:
 Charge =  0 Multiplicity = 1

                         Standard orientation:
 ---------------------------------------------------------------------
 Center     Atomic      Atomic             Coordinates (Angstroms)
 Number     Number       Type             X           Y           Z
 ---------------------------------------------------------------------
      1          6           0       -5.445501    1.500692   -0.225766
      2          6           0       -5.054375    0.643865   -1.259879
      3          6           0       -3.979241   -0.232941   -1.087122
      4          6           0       -3.314633   -0.226497    0.138253
      5          6           0       -3.680419    0.615140    1.187605
      6          6           0       -4.758486    1.483624    0.992528
      7          1           0       -6.281830    2.178583   -0.368637
      8          1           0       -5.586082    0.654951   -2.207091
      9          1           0       -3.655355   -0.906891   -1.870899
     10          1           0       -3.131011    0.581236    2.120568
     11          1           0       -5.060028    2.147933    1.797395
     12          7           0       -2.174884   -1.150327    0.332958
     13          8           0       -1.605722   -1.125357    1.422026
     14          8           0       -1.872292   -1.881903   -0.607186
     15          6           0        5.598671    1.470693    0.041514
     16          6           0        4.371546    2.078184   -0.244207
     17          6           0        3.203679    1.314289   -0.328458
     18          6           0        3.299825   -0.060766   -0.120440
     19          6           0        4.507592   -0.695274    0.165892
     20          6           0        5.662666    0.088340    0.245292
     21          1           0        6.500929    2.071763    0.105079
     22          1           0        4.318851    3.151533   -0.402925
     23          1           0        2.240577    1.758780   -0.548189
     24          1           0        4.528558   -1.767403    0.319248
     25          1           0        6.614294   -0.386152    0.467341
     26          7           0        2.070229   -0.879905   -0.207066
     27          8           0        2.181581   -2.089504   -0.019698
     28          8           0        1.018400   -0.296836   -0.460692
 ---------------------------------------------------------------------

 SCF Done:  E(RHF) =  -868.334883401     A.U. after   16 cycles
 E2 =    -0.2601446258D+01 EUMP2 =    -0.87093632965956D+03

 The electronic state is 1-A.
 Alpha  occ. eigenvalues --  -20.59623 -20.59617 -20.59158 -20.59099 -15.84712
 Alpha  occ. eigenvalues --  -15.84214 -11.30478 -11.30159 -11.27112 -11.27077
 Alpha  occ. eigenvalues --  -11.26916 -11.26809 -11.26782 -11.26658 -11.26216
 Alpha  occ. eigenvalues --  -11.26189 -11.25960 -11.25940  -1.58665  -1.58151
 Alpha  occ. eigenvalues --   -1.38227  -1.37721  -1.18685  -1.18385  -1.08002
 Alpha  occ. eigenvalues --   -1.07668  -1.04153  -1.03879  -0.94774  -0.94408
 Alpha  occ. eigenvalues --   -0.85533  -0.85250  -0.81619  -0.81264  -0.76589
 Alpha  occ. eigenvalues --   -0.76196  -0.71019  -0.70469  -0.70020  -0.69799
 Alpha  occ. eigenvalues --   -0.69498  -0.69376  -0.64334  -0.64162  -0.64030
 Alpha  occ. eigenvalues --   -0.63894  -0.61501  -0.61225  -0.54644  -0.54370
 Alpha  occ. eigenvalues --   -0.52456  -0.52258  -0.52171  -0.51985  -0.47861
 Alpha  occ. eigenvalues --   -0.47623  -0.47153  -0.46969  -0.43633  -0.42912
 Alpha  occ. eigenvalues --   -0.36687  -0.36392  -0.35776  -0.35512
 Alpha virt. eigenvalues --    0.05965   0.06373   0.11873   0.12136   0.17386
 Alpha virt. eigenvalues --    0.17763   0.21941   0.22174   0.27818   0.28041
 Alpha virt. eigenvalues --    0.28864   0.29117   0.31453   0.31675   0.33114

 Mulliken charges:
               1
     1  C   -0.173082
     2  C   -0.218789
     3  C   -0.171223
     4  C    0.162420
     5  C   -0.172161
     6  C   -0.218836
     7  H    0.221297
     8  H    0.219963
     9  H    0.275625
    10  H    0.273574
    11  H    0.219232
    12  N    0.494002
    13  O   -0.461614
    14  O   -0.450966
    15  C   -0.172228
    16  C   -0.218482
    17  C   -0.171355
    18  C    0.160258
    19  C   -0.171212
    20  C   -0.218467
    21  H    0.222773
    22  H    0.220191
    23  H    0.272978
    24  H    0.276029
    25  H    0.221462
    26  N    0.489893
    27  O   -0.453272
    28  O   -0.458008
 Sum of Mulliken charges =  -0.00000

 Dipole moment (field-independent basis, Debye):
    X=              0.4581    Y=              5.8031    Z=             -0.4169  Tot=              5.8361
 Quadrupole moment (field-independent basis, Debye-Ang):
   XX=            -52.1416   YY=           -103.6650   ZZ=           -101.7219
   XY=             -2.9017   XZ=              3.7376   YZ=              1.2146

 Normal termination of Gaussian 16 at Thu May  6 09:40:10 2021.
