 Gaussian 16, Revision A.03,
 Gaussian 16:  EM64L-G16RevA.03 25-Dec-2016

 -------------
 #p 6-31g* mp2
 -------------

 ------------------------------------------------------
 Input file generated by CHIRIPA (05-May-2021 14:57:22)
 ------------------------------------------------------
 Symbolic Z-matrix:
 Charge =  0 Multiplicity = 1

                         Standard orientation:
 ---------------------------------------------------------------------
 Center     Atomic      Atomic             Coordinates (Angstroms)
 Number     Number       Type             X           Y           Z
 ---------------------------------------------------------------------
      1          6           0        5.209353    1.309400    0.521896
      2          6           0        3.872360    1.651119    0.750365
      3          6           0        2.846115    0.758615    0.426626
      4          6           0        3.194377   -0.472638   -0.126565
      5          6           0        4.516993   -0.842175   -0.366189
      6          6           0        5.526843    0.066036   -0.034671
      7          1           0        6.000196    2.008820    0.776406
      8          1           0        3.622839    2.616034    1.182480
      9          1           0        1.802709    0.997508    0.592916
     10          1           0        4.734601   -1.811400   -0.798238
     11          1           0        6.564294   -0.202036   -0.213212
     12          7           0        2.116616   -1.425806   -0.473412
     13          8           0        2.449715   -2.504335   -0.959680
     14          8           0        0.959177   -1.076321   -0.252434
     15          6           0       -4.613301   -1.815588    0.601738
     16          6           0       -5.188074   -0.864160   -0.247346
     17          6           0       -4.509398    0.320237   -0.549256
     18          6           0       -3.252001    0.521574    0.017936
     19          6           0       -2.652870   -0.407238    0.867431
     20          6           0       -3.349762   -1.584498    1.155440
     21          1           0       -5.147589   -2.732884    0.830870
     22          1           0       -6.169216   -1.040955   -0.678794
     23          1           0       -4.931008    1.073670   -1.203474
     24          1           0       -1.673357   -0.202832    1.282389
     25          1           0       -2.900939   -2.321620    1.815177
     26          7           0       -2.523875    1.771664   -0.294324
     27          8           0       -1.417342    1.925261    0.218148
     28          8           0       -3.073491    2.574218   -1.045635
 ---------------------------------------------------------------------

 SCF Done:  E(RHF) =  -868.340285997     A.U. after   16 cycles
 E2 =    -0.2598816456D+01 EUMP2 =    -0.87093910245265D+03

 The electronic state is 1-A.
 Alpha  occ. eigenvalues --  -20.60649 -20.60632 -20.60316 -20.60306 -15.85688
 Alpha  occ. eigenvalues --  -15.85357 -11.30825 -11.30433 -11.27440 -11.27266
 Alpha  occ. eigenvalues --  -11.27138 -11.27062 -11.26916 -11.26765 -11.26417
 Alpha  occ. eigenvalues --  -11.26305 -11.26035 -11.25922  -1.59717  -1.59373
 Alpha  occ. eigenvalues --   -1.39274  -1.38936  -1.18997  -1.18608  -1.08446
 Alpha  occ. eigenvalues --   -1.08070  -1.04357  -1.03972  -0.95309  -0.94943
 Alpha  occ. eigenvalues --   -0.85771  -0.85395  -0.82142  -0.81793  -0.77212
 Alpha  occ. eigenvalues --   -0.76836  -0.71936  -0.71598  -0.71030  -0.70664
 Alpha  occ. eigenvalues --   -0.70106  -0.69740  -0.64655  -0.64364  -0.64276
 Alpha  occ. eigenvalues --   -0.63995  -0.61682  -0.61318  -0.54898  -0.54535
 Alpha  occ. eigenvalues --   -0.52720  -0.52439  -0.52312  -0.52076  -0.48671
 Alpha  occ. eigenvalues --   -0.48658  -0.48334  -0.48321  -0.44733  -0.44396
 Alpha  occ. eigenvalues --   -0.36998  -0.36602  -0.35955  -0.35542
 Alpha virt. eigenvalues --    0.05296   0.05666   0.11695   0.12099   0.16809
 Alpha virt. eigenvalues --    0.17184   0.21584   0.22273   0.27163   0.27979
 Alpha virt. eigenvalues --    0.28347   0.29455   0.30992   0.31770   0.32379

 Mulliken charges:
               1
     1  C   -0.170373
     2  C   -0.220125
     3  C   -0.174671
     4  C    0.155785
     5  C   -0.171325
     6  C   -0.219386
     7  H    0.224852
     8  H    0.226944
     9  H    0.290349
    10  H    0.273492
    11  H    0.221797
    12  N    0.490178
    13  O   -0.462284
    14  O   -0.465551
    15  C   -0.170101
    16  C   -0.219439
    17  C   -0.171219
    18  C    0.156069
    19  C   -0.160046
    20  C   -0.218260
    21  H    0.223627
    22  H    0.220553
    23  H    0.272683
    24  H    0.281096
    25  H    0.224346
    26  N    0.491523
    27  O   -0.467888
    28  O   -0.462626
 Sum of Mulliken charges =  -0.00000

 Dipole moment (field-independent basis, Debye):
    X=              1.2982    Y=             -1.0323    Z=              2.3803  Tot=              2.9012
 Quadrupole moment (field-independent basis, Debye-Ang):
   XX=            -60.3497   YY=           -111.2026   ZZ=           -104.2603
   XY=             18.9867   XZ=              1.0946   YZ=             -0.2894

 Normal termination of Gaussian 16 at Thu May  6 01:47:00 2021.
