 Gaussian 16, Revision A.03,
 Gaussian 16:  EM64L-G16RevA.03 25-Dec-2016

 -------------
 #p 6-31g* mp2
 -------------

 ------------------------------------------------------
 Input file generated by CHIRIPA (05-May-2021 14:55:25)
 ------------------------------------------------------
 Symbolic Z-matrix:
 Charge =  0 Multiplicity = 1

                         Standard orientation:
 ---------------------------------------------------------------------
 Center     Atomic      Atomic             Coordinates (Angstroms)
 Number     Number       Type             X           Y           Z
 ---------------------------------------------------------------------
      1          6           0        0.962936    1.577799   -0.528744
      2          6           0        1.889659    1.936978    0.455480
      3          6           0        3.077135    1.215418    0.609754
      4          6           0        3.306709    0.135447   -0.241274
      5          6           0        2.402938   -0.247065   -1.231310
      6          6           0        1.222077    0.488844   -1.367519
      7          1           0        0.043046    2.143897   -0.641571
      8          1           0        1.691053    2.782214    1.108302
      9          1           0        3.811818    1.471728    1.363388
     10          1           0        2.628803   -1.094494   -1.867130
     11          1           0        0.504180    0.207621   -2.132753
     12          7           0        4.560335   -0.636031   -0.087513
     13          8           0        4.739048   -1.583387   -0.849888
     14          8           0        5.340478   -0.278751    0.792467
     15          6           0       -3.382935   -0.124455    0.784194
     16          6           0       -2.221057   -1.118345    0.769779
     17          6           0       -1.057930   -0.681002    1.660656
     18          1           0       -3.019363    0.859645    0.458148
     19          1           0       -3.737341   -0.000326    1.816853
     20          1           0       -1.869851   -1.241614   -0.262730
     21          1           0       -2.587479   -2.100240    1.095714
     22          1           0       -1.386670   -0.576433    2.699692
     23          1           0       -0.664964    0.287071    1.333529
     24          1           0       -0.238321   -1.405892    1.635455
     25          6           0       -4.553311   -0.547792   -0.101658
     26          6           0       -5.715190    0.446099   -0.087243
     27          6           0       -6.878317    0.008755   -0.978120
     28          1           0       -4.198906   -0.671920   -1.134317
     29          1           0       -4.916884   -1.531892    0.224388
     30          1           0       -5.348768    1.427993   -0.413177
     31          1           0       -6.066396    0.569367    0.945266
     32          1           0       -7.271283   -0.959318   -0.650993
     33          1           0       -6.549577   -0.095814   -2.017156
     34          1           0       -7.697927    0.733645   -0.952919
 ---------------------------------------------------------------------

 SCF Done:  E(RHF) =  -669.534661293     A.U. after   15 cycles
 E2 =    -0.2092812685D+01 EUMP2 =    -0.67162747397843D+03

 The electronic state is 1-A.
 Alpha  occ. eigenvalues --  -20.60796 -20.60790 -15.85851 -11.31235 -11.27820
 Alpha  occ. eigenvalues --  -11.27811 -11.27563 -11.26828 -11.26816 -11.22124
 Alpha  occ. eigenvalues --  -11.22121 -11.22015 -11.21927 -11.21517 -11.21340
 Alpha  occ. eigenvalues --   -1.59871  -1.39424  -1.19420  -1.08989  -1.08815
 Alpha  occ. eigenvalues --   -1.04821  -1.04011  -0.96451  -0.95646  -0.87462
 Alpha  occ. eigenvalues --   -0.86223  -0.82475  -0.80078  -0.78808  -0.77509
 Alpha  occ. eigenvalues --   -0.72069  -0.71195  -0.70552  -0.65634  -0.65075
 Alpha  occ. eigenvalues --   -0.64822  -0.62167  -0.61439  -0.59814  -0.58065
 Alpha  occ. eigenvalues --   -0.55847  -0.55338  -0.53318  -0.53011  -0.52917
 Alpha  occ. eigenvalues --   -0.52773  -0.50349  -0.48830  -0.48822  -0.48390
 Alpha  occ. eigenvalues --   -0.47128  -0.46341  -0.46288  -0.44826  -0.44279
 Alpha  occ. eigenvalues --   -0.37302  -0.36417
 Alpha virt. eigenvalues --    0.04997   0.11141   0.16415   0.20174   0.22709
 Alpha virt. eigenvalues --    0.24029   0.25754   0.25990   0.27452   0.27815
 Alpha virt. eigenvalues --    0.28747   0.30260   0.31282   0.31578   0.31998

 Mulliken charges:
               1
     1  C   -0.173390
     2  C   -0.216910
     3  C   -0.169983
     4  C    0.158628
     5  C   -0.171247
     6  C   -0.215224
     7  H    0.226533
     8  H    0.224104
     9  H    0.276027
    10  H    0.275914
    11  H    0.223591
    12  N    0.488047
    13  O   -0.460362
    14  O   -0.460207
    15  C   -0.296876
    16  C   -0.300051
    17  C   -0.477108
    18  H    0.140869
    19  H    0.152107
    20  H    0.145978
    21  H    0.155043
    22  H    0.154075
    23  H    0.154884
    24  H    0.163784
    25  C   -0.298028
    26  C   -0.299578
    27  C   -0.475874
    28  H    0.147136
    29  H    0.152338
    30  H    0.149610
    31  H    0.153308
    32  H    0.156680
    33  H    0.154809
    34  H    0.161373
 Sum of Mulliken charges =  -0.00000

 Dipole moment (field-independent basis, Debye):
    X=             -4.4017    Y=              2.6942    Z=             -0.5169  Tot=              5.1866
 Quadrupole moment (field-independent basis, Debye-Ang):
   XX=           -124.6237   YY=            -92.4482   ZZ=            -91.7681
   XY=              9.6076   XZ=             -0.4574   YZ=              1.3426

 Normal termination of Gaussian 16 at Thu May  6 06:24:15 2021.
