 Gaussian 16, Revision A.03,
 Gaussian 16:  EM64L-G16RevA.03 25-Dec-2016

 -------------
 #p 6-31g* mp2
 -------------

 ------------------------------------------------------
 Input file generated by CHIRIPA (05-May-2021 14:53:15)
 ------------------------------------------------------
 Symbolic Z-matrix:
 Charge =  0 Multiplicity = 1

                         Standard orientation:
 ---------------------------------------------------------------------
 Center     Atomic      Atomic             Coordinates (Angstroms)
 Number     Number       Type             X           Y           Z
 ---------------------------------------------------------------------
      1          6           0        3.375061    0.607755   -0.039806
      2          6           0        3.499414   -0.904964   -0.224742
      3          6           0        4.918265   -1.416534    0.026159
      4          1           0        4.074132    1.112656   -0.720483
      5          1           0        3.686141    0.872217    0.980333
      6          1           0        3.186875   -1.166655   -1.243787
      7          1           0        2.799829   -1.406317    0.456318
      8          1           0        5.236576   -1.184136    1.047565
      9          1           0        5.625822   -0.943113   -0.662200
     10          1           0        4.984494   -2.500284   -0.111538
     11          6           0        1.962488    1.134229   -0.287177
     12          6           0        1.838136    2.646948   -0.102241
     13          6           0        0.419284    3.158518   -0.353142
     14          1           0        1.651408    0.869767   -1.307316
     15          1           0        1.263418    0.629328    0.393500
     16          1           0        2.537721    3.148301   -0.783301
     17          1           0        2.150674    2.908639    0.916804
     18          1           0       -0.288272    2.685097    0.335217
     19          1           0        0.100973    2.926120   -1.374548
     20          1           0        0.353056    4.242267   -0.215445
     21          6           0       -3.577118    1.353803    0.092890
     22          6           0       -2.566380    1.243429    1.053488
     23          6           0       -1.733696    0.120771    1.082213
     24          6           0       -1.940726   -0.877127    0.131096
     25          6           0       -2.939044   -0.796247   -0.838497
     26          6           0       -3.759902    0.335408   -0.848377
     27          1           0       -4.219374    2.229403    0.077895
     28          1           0       -2.422124    2.032778    1.785720
     29          1           0       -0.943535    0.009658    1.814824
     30          1           0       -3.058561   -1.599437   -1.555449
     31          1           0       -4.544049    0.418435   -1.595548
     32          7           0       -1.065460   -2.070397    0.151531
     33          8           0       -1.268356   -2.935764   -0.697357
     34          8           0       -0.193103   -2.117720    1.016048
 ---------------------------------------------------------------------

 SCF Done:  E(RHF) =  -669.534788021     A.U. after   15 cycles
 E2 =    -0.2094795519D+01 EUMP2 =    -0.67162958354027D+03

 The electronic state is 1-A.
 Alpha  occ. eigenvalues --  -20.60950 -20.60941 -15.85966 -11.31289 -11.27854
 Alpha  occ. eigenvalues --  -11.27840 -11.27572 -11.26854 -11.26843 -11.21540
 Alpha  occ. eigenvalues --  -11.21138 -11.21083 -11.20876 -11.20667 -11.20336
 Alpha  occ. eigenvalues --   -1.59993  -1.39552  -1.19463  -1.08858  -1.08036
 Alpha  occ. eigenvalues --   -1.04876  -1.03122  -0.95702  -0.95625  -0.86669
 Alpha  occ. eigenvalues --   -0.86248  -0.82549  -0.79227  -0.77836  -0.77543
 Alpha  occ. eigenvalues --   -0.72193  -0.71294  -0.70567  -0.65121  -0.64883
 Alpha  occ. eigenvalues --   -0.64687  -0.62226  -0.60529  -0.59030  -0.57210
 Alpha  occ. eigenvalues --   -0.55355  -0.54984  -0.53242  -0.52966  -0.52319
 Alpha  occ. eigenvalues --   -0.51989  -0.49595  -0.48959  -0.48948  -0.47502
 Alpha  occ. eigenvalues --   -0.46262  -0.45553  -0.45281  -0.44627  -0.43380
 Alpha  occ. eigenvalues --   -0.37411  -0.36341
 Alpha virt. eigenvalues --    0.04881   0.11053   0.16280   0.20778   0.23290
 Alpha virt. eigenvalues --    0.24706   0.26188   0.27231   0.27476   0.28480
 Alpha virt. eigenvalues --    0.29252   0.30815   0.31844   0.32122   0.32413

 Mulliken charges:
               1
     1  C   -0.297281
     2  C   -0.306909
     3  C   -0.475627
     4  H    0.146853
     5  H    0.146992
     6  H    0.151013
     7  H    0.172605
     8  H    0.152797
     9  H    0.150979
    10  H    0.162510
    11  C   -0.302500
    12  C   -0.299215
    13  C   -0.478681
    14  H    0.148990
    15  H    0.152289
    16  H    0.152302
    17  H    0.149208
    18  H    0.152699
    19  H    0.155587
    20  H    0.156126
    21  C   -0.170083
    22  C   -0.218766
    23  C   -0.168755
    24  C    0.160761
    25  C   -0.170991
    26  C   -0.218399
    27  H    0.226454
    28  H    0.224761
    29  H    0.275156
    30  H    0.275780
    31  H    0.223899
    32  N    0.489435
    33  O   -0.458504
    34  O   -0.461482
 Sum of Mulliken charges =  -0.00000

 Dipole moment (field-independent basis, Debye):
    X=             -3.2661    Y=              3.9825    Z=             -0.0674  Tot=              5.1509
 Quadrupole moment (field-independent basis, Debye-Ang):
   XX=            -83.2559   YY=           -102.6662   ZZ=            -91.0813
   XY=             -4.3893   XZ=              1.7506   YZ=              2.2711

 Normal termination of Gaussian 16 at Thu May  6 13:49:49 2021.
