 Gaussian 16, Revision A.03,
 Gaussian 16:  EM64L-G16RevA.03 25-Dec-2016

 -------------
 #p 6-31g* mp2
 -------------

 ------------------------------------------------------
 Input file generated by CHIRIPA (05-May-2021 14:57:25)
 ------------------------------------------------------
 Symbolic Z-matrix:
 Charge =  0 Multiplicity = 1

                         Standard orientation:
 ---------------------------------------------------------------------
 Center     Atomic      Atomic             Coordinates (Angstroms)
 Number     Number       Type             X           Y           Z
 ---------------------------------------------------------------------
      1          6           0       -1.895469   -2.212313    0.341939
      2          6           0       -1.491646   -1.002030    0.915232
      3          6           0       -2.280181    0.144719    0.782088
      4          6           0       -3.471923    0.044860    0.065800
      5          6           0       -3.901361   -1.146469   -0.516959
      6          6           0       -3.096919   -2.280549   -0.371069
      7          1           0       -1.276737   -3.098214    0.450319
      8          1           0       -0.559074   -0.946089    1.469510
      9          1           0       -1.991467    1.094479    1.215700
     10          1           0       -4.836154   -1.171172   -1.063741
     11          1           0       -3.413039   -3.219129   -0.817366
     12          7           0       -4.315130    1.252165   -0.081900
     13          8           0       -5.360702    1.137964   -0.717805
     14          8           0       -3.914498    2.289793    0.441034
     15          6           0        3.445238    2.674623   -0.109533
     16          6           0        2.204371    2.029114   -0.118949
     17          6           0        2.130168    0.633073   -0.108352
     18          6           0        3.322097   -0.089554   -0.088268
     19          6           0        4.573572    0.524453   -0.078466
     20          6           0        4.623800    1.921560   -0.089357
     21          1           0        3.493568    3.759515   -0.117878
     22          1           0        1.287447    2.611394   -0.134616
     23          1           0        1.182914    0.107640   -0.115272
     24          1           0        5.470360   -0.082956   -0.062832
     25          1           0        5.588877    2.420176   -0.082005
     26          7           0        3.256233   -1.568044   -0.076895
     27          8           0        4.320886   -2.181915   -0.059216
     28          8           0        2.141202   -2.085018   -0.085875
 ---------------------------------------------------------------------

 SCF Done:  E(RHF) =  -868.339728901     A.U. after   16 cycles
 E2 =    -0.2599945579D+01 EUMP2 =    -0.87093967447910D+03

 The electronic state is 1-A.
 Alpha  occ. eigenvalues --  -20.61574 -20.61511 -20.60874 -20.60854 -15.86584
 Alpha  occ. eigenvalues --  -15.85919 -11.31735 -11.31171 -11.28264 -11.28252
 Alpha  occ. eigenvalues --  -11.27936 -11.27812 -11.27726 -11.27279 -11.27223
 Alpha  occ. eigenvalues --  -11.27213 -11.26647 -11.26614  -1.60609  -1.59946
 Alpha  occ. eigenvalues --   -1.40174  -1.39504  -1.19878  -1.19326  -1.09305
 Alpha  occ. eigenvalues --   -1.08686  -1.05252  -1.04731  -0.96181  -0.95550
 Alpha  occ. eigenvalues --   -0.86660  -0.86086  -0.83026  -0.82410  -0.78122
 Alpha  occ. eigenvalues --   -0.77500  -0.72820  -0.72135  -0.71919  -0.71272
 Alpha  occ. eigenvalues --   -0.70978  -0.70314  -0.65532  -0.65281  -0.64951
 Alpha  occ. eigenvalues --   -0.64657  -0.62656  -0.62017  -0.55736  -0.55055
 Alpha  occ. eigenvalues --   -0.53590  -0.53409  -0.52992  -0.52735  -0.49579
 Alpha  occ. eigenvalues --   -0.49535  -0.48904  -0.48876  -0.45624  -0.44937
 Alpha  occ. eigenvalues --   -0.37832  -0.37201  -0.36850  -0.36359
 Alpha virt. eigenvalues --    0.04388   0.05027   0.10761   0.11226   0.15963
 Alpha virt. eigenvalues --    0.16435   0.20428   0.22115   0.26075   0.27357
 Alpha virt. eigenvalues --    0.28459   0.29193   0.30147   0.31254   0.32149

 Mulliken charges:
               1
     1  C   -0.167693
     2  C   -0.225198
     3  C   -0.177279
     4  C    0.158520
     5  C   -0.170085
     6  C   -0.219786
     7  H    0.240501
     8  H    0.229040
     9  H    0.269652
    10  H    0.275551
    11  H    0.225460
    12  N    0.488353
    13  O   -0.459569
    14  O   -0.464381
    15  C   -0.169712
    16  C   -0.221559
    17  C   -0.179106
    18  C    0.157237
    19  C   -0.170096
    20  C   -0.218500
    21  H    0.229111
    22  H    0.228128
    23  H    0.277515
    24  H    0.276396
    25  H    0.225604
    26  N    0.489176
    27  O   -0.456077
    28  O   -0.471203
 Sum of Mulliken charges =  -0.00000

 Dipole moment (field-independent basis, Debye):
    X=              3.3749    Y=              0.8065    Z=              0.4323  Tot=              3.4968
 Quadrupole moment (field-independent basis, Debye-Ang):
   XX=           -116.4411   YY=           -104.9056   ZZ=           -104.8552
   XY=             35.1168   XZ=              0.3499   YZ=              0.7631

 Normal termination of Gaussian 16 at Wed May  5 17:56:27 2021.
