 Gaussian 16, Revision A.03,
 Gaussian 16:  EM64L-G16RevA.03 25-Dec-2016

 -------------
 #p 6-31g* mp2
 -------------

 ------------------------------------------------------
 Input file generated by CHIRIPA (05-May-2021 14:51:13)
 ------------------------------------------------------
 Symbolic Z-matrix:
 Charge =  0 Multiplicity = 1

                         Standard orientation:
 ---------------------------------------------------------------------
 Center     Atomic      Atomic             Coordinates (Angstroms)
 Number     Number       Type             X           Y           Z
 ---------------------------------------------------------------------
      1          6           0       -4.059405   -0.680693    0.028327
      2          6           0       -4.780834    0.182534   -1.007223
      3          6           0       -6.051334   -0.476860   -1.544646
      4          1           0       -3.808250   -1.650361   -0.422905
      5          1           0       -4.744597   -0.891543    0.861062
      6          1           0       -4.094042    0.392846   -1.837103
      7          1           0       -5.030130    1.150331   -0.553532
      8          1           0       -6.757801   -0.671816   -0.731321
      9          1           0       -5.816394   -1.433604   -2.022185
     10          1           0       -6.551139    0.157373   -2.283432
     11          6           0       -2.787391   -0.034989    0.574932
     12          6           0       -2.065962   -0.898215    1.610483
     13          6           0       -0.795462   -0.238822    2.147906
     14          1           0       -2.102199    0.175862   -0.257803
     15          1           0       -3.038546    0.934679    1.026164
     16          1           0       -1.816666   -1.866012    1.156792
     17          1           0       -2.752754   -1.108528    2.440363
     18          1           0       -1.030402    0.717923    2.625445
     19          1           0       -0.088995   -0.043865    1.334581
     20          1           0       -0.295657   -0.873054    2.886691
     21          6           0        3.910999   -0.060086   -0.715169
     22          6           0        4.435886   -1.289855    0.026551
     23          6           0        5.410259   -2.115827   -0.813782
     24          1           0        3.416477   -0.382051   -1.641847
     25          1           0        4.760680    0.568196   -1.016330
     26          1           0        3.585380   -1.914936    0.327434
     27          1           0        4.929047   -0.964939    0.951665
     28          1           0        6.277126   -1.512653   -1.102445
     29          1           0        4.925824   -2.468049   -1.730224
     30          1           0        5.773070   -2.990054   -0.264278
     31          6           0        2.935797    0.775767    0.111910
     32          6           0        2.410911    2.005536   -0.629810
     33          6           0        1.436537    2.831508    0.210522
     34          1           0        2.086116    0.147484    0.413071
     35          1           0        3.430318    1.097732    1.038587
     36          1           0        1.917749    1.680620   -1.554925
     37          1           0        3.261416    2.630617   -0.930693
     38          1           0        1.920971    3.183730    1.126963
     39          1           0        0.569670    2.228335    0.499185
     40          1           0        1.073727    3.705736   -0.338982
 ---------------------------------------------------------------------

 SCF Done:  E(RHF) =  -470.732807278     A.U. after   11 cycles
 E2 =    -0.1583325486D+01 EUMP2 =    -0.47231613276462D+03

 The electronic state is 1-A.
 Alpha  occ. eigenvalues --  -11.21640 -11.21622 -11.21589 -11.21568 -11.21445
 Alpha  occ. eigenvalues --  -11.21384 -11.21380 -11.21316 -11.21088 -11.21086
 Alpha  occ. eigenvalues --  -11.21064 -11.20970  -1.08470  -1.08406  -1.03574
 Alpha  occ. eigenvalues --   -1.03491  -0.96017  -0.95944  -0.87036  -0.86962
 Alpha  occ. eigenvalues --   -0.79683  -0.79517  -0.78312  -0.78187  -0.65162
 Alpha  occ. eigenvalues --   -0.64998  -0.61056  -0.60828  -0.59393  -0.59310
 Alpha  occ. eigenvalues --   -0.57662  -0.57519  -0.55332  -0.55222  -0.52706
 Alpha  occ. eigenvalues --   -0.52641  -0.52483  -0.52342  -0.50019  -0.49874
 Alpha  occ. eigenvalues --   -0.48128  -0.47749  -0.46794  -0.46515  -0.45927
 Alpha  occ. eigenvalues --   -0.45769  -0.45732  -0.45348  -0.43816  -0.43755
 Alpha virt. eigenvalues --    0.21135   0.23146   0.23580   0.24897   0.25945
 Alpha virt. eigenvalues --    0.26788   0.27166   0.27299   0.27964   0.29233
 Alpha virt. eigenvalues --    0.30944   0.31452   0.31668   0.31817   0.31920

 Mulliken charges:
               1
     1  C   -0.298258
     2  C   -0.299697
     3  C   -0.475741
     4  H    0.149606
     5  H    0.149770
     6  H    0.151936
     7  H    0.152151
     8  H    0.155242
     9  H    0.155155
    10  H    0.160365
    11  C   -0.298914
    12  C   -0.299396
    13  C   -0.484771
    14  H    0.149101
    15  H    0.150147
    16  H    0.151592
    17  H    0.152198
    18  H    0.156410
    19  H    0.163441
    20  H    0.160743
    21  C   -0.297594
    22  C   -0.299642
    23  C   -0.475682
    24  H    0.149113
    25  H    0.149576
    26  H    0.151871
    27  H    0.152091
    28  H    0.155200
    29  H    0.155016
    30  H    0.160213
    31  C   -0.305264
    32  C   -0.299487
    33  C   -0.480667
    34  H    0.155739
    35  H    0.150009
    36  H    0.150863
    37  H    0.151862
    38  H    0.154965
    39  H    0.161083
    40  H    0.159655
 Sum of Mulliken charges =  -0.00000

 Dipole moment (field-independent basis, Debye):
    X=             -0.0263    Y=             -0.0088    Z=              0.0296  Tot=              0.0405
 Quadrupole moment (field-independent basis, Debye-Ang):
   XX=            -85.2803   YY=            -84.9721   ZZ=            -84.5389
   XY=              0.3378   XZ=             -0.1955   YZ=              0.0678

 Normal termination of Gaussian 16 at Thu May  6 05:32:50 2021.
