 Gaussian 16, Revision A.03,
 Gaussian 16:  EM64L-G16RevA.03 25-Dec-2016

 -------------
 #p 6-31g* mp2
 -------------

 ------------------------------------------------------
 Input file generated by CHIRIPA (05-May-2021 14:51:14)
 ------------------------------------------------------
 Symbolic Z-matrix:
 Charge =  0 Multiplicity = 1

                         Standard orientation:
 ---------------------------------------------------------------------
 Center     Atomic      Atomic             Coordinates (Angstroms)
 Number     Number       Type             X           Y           Z
 ---------------------------------------------------------------------
      1          6           0        3.641515    0.796061    0.043106
      2          6           0        4.943022    1.596479   -0.015158
      3          6           0        4.752477    3.063677    0.370606
      4          1           0        2.903212    1.259558   -0.625491
      5          1           0        3.226133    0.858216    1.058483
      6          1           0        5.356544    1.531689   -1.029760
      7          1           0        5.678375    1.130910    0.653511
      8          1           0        4.362416    3.146397    1.390219
      9          1           0        4.038756    3.549452   -0.302616
     10          1           0        5.695381    3.617249    0.322132
     11          6           0        3.815801   -0.672503   -0.339874
     12          6           0        2.514293   -1.472921   -0.281609
     13          6           0        2.704839   -2.940119   -0.667373
     14          1           0        4.231183   -0.734658   -1.355250
     15          1           0        4.554104   -1.136000    0.328724
     16          1           0        1.778941   -1.007352   -0.950278
     17          1           0        2.100772   -1.408131    0.732993
     18          1           0        3.418559   -3.425894    0.005848
     19          1           0        3.094900   -3.022838   -1.686987
     20          1           0        1.761935   -3.493691   -0.618899
     21          6           0       -4.099099    0.430033   -0.303641
     22          6           0       -5.525519    0.724891    0.161515
     23          6           0       -6.253689    1.710437   -0.752958
     24          1           0       -3.534738    1.371253   -0.354094
     25          1           0       -4.129863    0.028833   -1.326132
     26          1           0       -5.492175    1.124118    1.183337
     27          1           0       -6.086496   -0.217165    0.211049
     28          1           0       -6.316508    1.315884   -1.772263
     29          1           0       -5.718811    2.664788   -0.794452
     30          1           0       -7.271530    1.906972   -0.401914
     31          6           0       -3.358216   -0.553592    0.600408
     32          6           0       -1.931797   -0.848448    0.135253
     33          6           0       -1.203627   -1.833995    1.049726
     34          1           0       -3.327454   -0.152392    1.622899
     35          1           0       -3.922579   -1.494811    0.650861
     36          1           0       -1.370820    0.093607    0.085718
     37          1           0       -1.965141   -1.247676   -0.886570
     38          1           0       -1.738505   -2.788346    1.091219
     39          1           0       -1.140807   -1.439442    2.069030
     40          1           0       -0.185785   -2.030530    0.698681
 ---------------------------------------------------------------------

 SCF Done:  E(RHF) =  -470.732877603     A.U. after   11 cycles
 E2 =    -0.1582986872D+01 EUMP2 =    -0.47231586447491D+03

 The electronic state is 1-A.
 Alpha  occ. eigenvalues --  -11.21617 -11.21613 -11.21585 -11.21554 -11.21420
 Alpha  occ. eigenvalues --  -11.21376 -11.21361 -11.21316 -11.21104 -11.21083
 Alpha  occ. eigenvalues --  -11.21059 -11.20941  -1.08457  -1.08393  -1.03583
 Alpha  occ. eigenvalues --   -1.03468  -0.96031  -0.95913  -0.87017  -0.86959
 Alpha  occ. eigenvalues --   -0.79658  -0.79530  -0.78273  -0.78211  -0.65082
 Alpha  occ. eigenvalues --   -0.65027  -0.60965  -0.60883  -0.59698  -0.59096
 Alpha  occ. eigenvalues --   -0.57816  -0.57302  -0.55288  -0.55224  -0.52766
 Alpha  occ. eigenvalues --   -0.52576  -0.52422  -0.52332  -0.49945  -0.49876
 Alpha  occ. eigenvalues --   -0.48003  -0.47795  -0.46662  -0.46577  -0.45794
 Alpha  occ. eigenvalues --   -0.45770  -0.45711  -0.45676  -0.43822  -0.43689
 Alpha virt. eigenvalues --    0.21774   0.23074   0.23375   0.25091   0.26374
 Alpha virt. eigenvalues --    0.26640   0.26773   0.27316   0.27810   0.28993
 Alpha virt. eigenvalues --    0.30874   0.31077   0.31453   0.31631   0.32071

 Mulliken charges:
               1
     1  C   -0.298445
     2  C   -0.299678
     3  C   -0.475714
     4  H    0.149621
     5  H    0.149593
     6  H    0.151990
     7  H    0.152002
     8  H    0.155148
     9  H    0.155152
    10  H    0.160321
    11  C   -0.297178
    12  C   -0.304741
    13  C   -0.478475
    14  H    0.149523
    15  H    0.149750
    16  H    0.153449
    17  H    0.154213
    18  H    0.155687
    19  H    0.155710
    20  H    0.161865
    21  C   -0.298215
    22  C   -0.299607
    23  C   -0.475683
    24  H    0.149543
    25  H    0.149353
    26  H    0.151904
    27  H    0.151907
    28  H    0.155117
    29  H    0.155136
    30  H    0.160198
    31  C   -0.298330
    32  C   -0.298852
    33  C   -0.486687
    34  H    0.149434
    35  H    0.149558
    36  H    0.152074
    37  H    0.151196
    38  H    0.154076
    39  H    0.153988
    40  H    0.174095
 Sum of Mulliken charges =  -0.00000

 Dipole moment (field-independent basis, Debye):
    X=              0.0451    Y=             -0.0028    Z=             -0.0062  Tot=              0.0456
 Quadrupole moment (field-independent basis, Debye-Ang):
   XX=            -85.1516   YY=            -85.7969   ZZ=            -83.8976
   XY=              0.6045   XZ=              0.0415   YZ=              0.3610

 Normal termination of Gaussian 16 at Thu May  6 02:25:08 2021.
