 Gaussian 16, Revision A.03,
 Gaussian 16:  EM64L-G16RevA.03 25-Dec-2016

 -------------
 #p 6-31g* mp2
 -------------

 ------------------------------------------------------
 Input file generated by CHIRIPA (05-May-2021 14:55:22)
 ------------------------------------------------------
 Symbolic Z-matrix:
 Charge =  0 Multiplicity = 1

                         Standard orientation:
 ---------------------------------------------------------------------
 Center     Atomic      Atomic             Coordinates (Angstroms)
 Number     Number       Type             X           Y           Z
 ---------------------------------------------------------------------
      1          6           0       -1.643544   -2.456543    0.600204
      2          6           0       -2.825519   -1.921911    1.123296
      3          6           0       -3.240510   -0.634828    0.768688
      4          6           0       -2.445716    0.093089   -0.115466
      5          6           0       -1.263027   -0.411884   -0.653553
      6          6           0       -0.867439   -1.701155   -0.284990
      7          1           0       -1.328706   -3.457230    0.881093
      8          1           0       -3.430245   -2.506272    1.810954
      9          1           0       -4.151092   -0.196498    1.158720
     10          1           0       -0.681199    0.194702   -1.336889
     11          1           0        0.050967   -2.113795   -0.692795
     12          7           0       -2.874778    1.456825   -0.498261
     13          8           0       -2.156839    2.077802   -1.279022
     14          8           0       -3.920891    1.878921   -0.010285
     15          6           0        3.076741    0.900293   -0.148869
     16          6           0        3.041639    1.880985    1.023733
     17          6           0        3.115933    3.340982    0.575753
     18          1           0        3.997353    1.061776   -0.726226
     19          1           0        2.240177    1.119865   -0.826619
     20          1           0        3.877210    1.658743    1.699784
     21          1           0        2.121095    1.717020    1.598476
     22          1           0        2.274991    3.585643   -0.081179
     23          1           0        4.041085    3.527035    0.020705
     24          1           0        3.089354    4.024839    1.429857
     25          6           0        3.003262   -0.563216    0.282954
     26          6           0        3.038365   -1.543909   -0.889647
     27          6           0        2.964072   -3.003905   -0.441668
     28          1           0        3.839826   -0.782788    0.960703
     29          1           0        2.082650   -0.724698    0.860312
     30          1           0        3.958908   -1.379944   -1.464390
     31          1           0        2.202793   -1.321666   -1.565699
     32          1           0        2.038919   -3.189958    0.113380
     33          1           0        3.805012   -3.248566    0.215264
     34          1           0        2.990649   -3.687762   -1.295772
 ---------------------------------------------------------------------

 SCF Done:  E(RHF) =  -669.535088546     A.U. after   15 cycles
 E2 =    -0.2093209007D+01 EUMP2 =    -0.67162829755377D+03

 The electronic state is 1-A.
 Alpha  occ. eigenvalues --  -20.60800 -20.60794 -15.85852 -11.31219 -11.27787
 Alpha  occ. eigenvalues --  -11.27784 -11.27517 -11.26799 -11.26734 -11.22549
 Alpha  occ. eigenvalues --  -11.22150 -11.21979 -11.21782 -11.21721 -11.21001
 Alpha  occ. eigenvalues --   -1.59875  -1.39429  -1.19390  -1.08991  -1.08776
 Alpha  occ. eigenvalues --   -1.04797  -1.04060  -0.96498  -0.95618  -0.87514
 Alpha  occ. eigenvalues --   -0.86191  -0.82453  -0.80161  -0.78703  -0.77510
 Alpha  occ. eigenvalues --   -0.72071  -0.71198  -0.70498  -0.65848  -0.65037
 Alpha  occ. eigenvalues --   -0.64723  -0.62270  -0.61248  -0.59915  -0.58072
 Alpha  occ. eigenvalues --   -0.55826  -0.55270  -0.53199  -0.53116  -0.52964
 Alpha  occ. eigenvalues --   -0.52756  -0.50476  -0.48831  -0.48827  -0.48428
 Alpha  occ. eigenvalues --   -0.47233  -0.46244  -0.46140  -0.44834  -0.44283
 Alpha  occ. eigenvalues --   -0.37364  -0.36374
 Alpha virt. eigenvalues --    0.05014   0.11168   0.16415   0.18917   0.22791
 Alpha virt. eigenvalues --    0.23789   0.24660   0.26050   0.27273   0.28615
 Alpha virt. eigenvalues --    0.29781   0.30213   0.30986   0.31686   0.32069

 Mulliken charges:
               1
     1  C   -0.173931
     2  C   -0.218334
     3  C   -0.170946
     4  C    0.158919
     5  C   -0.175294
     6  C   -0.225193
     7  H    0.226145
     8  H    0.223621
     9  H    0.275725
    10  H    0.276311
    11  H    0.237490
    12  N    0.488047
    13  O   -0.460743
    14  O   -0.460221
    15  C   -0.299390
    16  C   -0.300031
    17  C   -0.477483
    18  H    0.151407
    19  H    0.149251
    20  H    0.151308
    21  H    0.153791
    22  H    0.162084
    23  H    0.154319
    24  H    0.161707
    25  C   -0.301851
    26  C   -0.304739
    27  C   -0.479226
    28  H    0.152305
    29  H    0.151163
    30  H    0.159743
    31  H    0.143191
    32  H    0.145351
    33  H    0.162412
    34  H    0.163091
 Sum of Mulliken charges =  -0.00000

 Dipole moment (field-independent basis, Debye):
    X=              1.6390    Y=             -4.7178    Z=              1.3902  Tot=              5.1843
 Quadrupole moment (field-independent basis, Debye-Ang):
   XX=            -97.4370   YY=            -97.2230   ZZ=            -94.0075
   XY=             12.3430   XZ=             -6.2056   YZ=              0.5006

 Normal termination of Gaussian 16 at Thu May  6 09:22:40 2021.
