 Gaussian 16, Revision A.03,
 Gaussian 16:  EM64L-G16RevA.03 25-Dec-2016

 -------------
 #p 6-31g* mp2
 -------------

 ------------------------------------------------------
 Input file generated by CHIRIPA (05-May-2021 14:55:22)
 ------------------------------------------------------
 Symbolic Z-matrix:
 Charge =  0 Multiplicity = 1

                         Standard orientation:
 ---------------------------------------------------------------------
 Center     Atomic      Atomic             Coordinates (Angstroms)
 Number     Number       Type             X           Y           Z
 ---------------------------------------------------------------------
      1          6           0       -3.571199    1.369274    1.113548
      2          6           0       -3.821078    0.033418    1.444560
      3          6           0       -3.141979   -0.999047    0.790810
      4          6           0       -2.215460   -0.658097   -0.193367
      5          6           0       -1.944516    0.663200   -0.545578
      6          6           0       -2.635365    1.679355    0.121285
      7          1           0       -4.103303    2.164982    1.626489
      8          1           0       -4.547316   -0.210356    2.214754
      9          1           0       -3.316031   -2.041736    1.027291
     10          1           0       -1.214841    0.875012   -1.317671
     11          1           0       -2.439272    2.715906   -0.137857
     12          7           0       -1.490308   -1.742488   -0.892403
     13          8           0       -0.678877   -1.415775   -1.755812
     14          8           0       -1.747096   -2.898614   -0.563663
     15          6           0        2.613318    1.258733    0.262142
     16          6           0        1.880236    1.852399   -0.941244
     17          6           0        1.133846    3.142752   -0.601117
     18          1           0        1.889249    1.064387    1.065197
     19          1           0        3.322397    2.001284    0.653576
     20          1           0        1.173741    1.108450   -1.331141
     21          1           0        2.606105    2.045178   -1.741598
     22          1           0        1.828907    3.904169   -0.232694
     23          1           0        0.388405    2.962118    0.180095
     24          1           0        0.616924    3.549977   -1.475657
     25          6           0        3.364214   -0.031529   -0.062059
     26          6           0        4.097296   -0.625195    1.141327
     27          6           0        4.843685   -1.915548    0.801199
     28          1           0        2.655135   -0.774079   -0.453493
     29          1           0        4.088282    0.162818   -0.865114
     30          1           0        3.371427   -0.817974    1.941681
     31          1           0        4.803790    0.118755    1.531224
     32          1           0        5.589127   -1.734914    0.019989
     33          1           0        4.148624   -2.676965    0.432777
     34          1           0        5.360607   -2.322773    1.675739
 ---------------------------------------------------------------------

 SCF Done:  E(RHF) =  -669.535923059     A.U. after   15 cycles
 E2 =    -0.2092915596D+01 EUMP2 =    -0.67162883865483D+03

 The electronic state is 1-A.
 Alpha  occ. eigenvalues --  -20.60930 -20.60924 -15.85959 -11.31261 -11.27834
 Alpha  occ. eigenvalues --  -11.27796 -11.27558 -11.26835 -11.26801 -11.21599
 Alpha  occ. eigenvalues --  -11.21473 -11.21242 -11.21230 -11.20922 -11.20622
 Alpha  occ. eigenvalues --   -1.59989  -1.39545  -1.19434  -1.08840  -1.08219
 Alpha  occ. eigenvalues --   -1.04828  -1.03405  -0.95877  -0.95678  -0.86889
 Alpha  occ. eigenvalues --   -0.86226  -0.82514  -0.79473  -0.77978  -0.77569
 Alpha  occ. eigenvalues --   -0.72180  -0.71304  -0.70552  -0.65087  -0.64966
 Alpha  occ. eigenvalues --   -0.64733  -0.62249  -0.60724  -0.59269  -0.57458
 Alpha  occ. eigenvalues --   -0.55370  -0.55117  -0.53149  -0.52929  -0.52594
 Alpha  occ. eigenvalues --   -0.52278  -0.49798  -0.48947  -0.48933  -0.47772
 Alpha  occ. eigenvalues --   -0.46479  -0.45547  -0.45442  -0.44877  -0.43622
 Alpha  occ. eigenvalues --   -0.37413  -0.36405
 Alpha virt. eigenvalues --    0.04897   0.11166   0.16327   0.20364   0.23231
 Alpha virt. eigenvalues --    0.24199   0.26476   0.26778   0.27291   0.28293
 Alpha virt. eigenvalues --    0.29704   0.30339   0.31560   0.31628   0.31930

 Mulliken charges:
               1
     1  C   -0.170921
     2  C   -0.218686
     3  C   -0.170587
     4  C    0.156442
     5  C   -0.172103
     6  C   -0.221740
     7  H    0.226116
     8  H    0.223736
     9  H    0.275668
    10  H    0.282713
    11  H    0.226510
    12  N    0.488469
    13  O   -0.462787
    14  O   -0.459083
    15  C   -0.297228
    16  C   -0.309949
    17  C   -0.483031
    18  H    0.147729
    19  H    0.147723
    20  H    0.163524
    21  H    0.155060
    22  H    0.158695
    23  H    0.151439
    24  H    0.155129
    25  C   -0.302895
    26  C   -0.299277
    27  C   -0.476400
    28  H    0.163393
    29  H    0.149127
    30  H    0.150692
    31  H    0.149139
    32  H    0.154583
    33  H    0.160438
    34  H    0.158357
 Sum of Mulliken charges =  -0.00000

 Dipole moment (field-independent basis, Debye):
    X=             -2.5770    Y=              3.6677    Z=              2.4187  Tot=              5.0934
 Quadrupole moment (field-independent basis, Debye-Ang):
   XX=            -82.3252   YY=            -98.6679   ZZ=            -94.8171
   XY=             -4.1520   XZ=             -7.1043   YZ=             -4.6122

 Normal termination of Gaussian 16 at Thu May  6 04:39:51 2021.
