 Gaussian 16, Revision A.03,
 Gaussian 16:  EM64L-G16RevA.03 25-Dec-2016

 -------------
 #p 6-31g* mp2
 -------------

 ------------------------------------------------------
 Input file generated by CHIRIPA (05-May-2021 14:55:20)
 ------------------------------------------------------
 Symbolic Z-matrix:
 Charge =  0 Multiplicity = 1

                         Standard orientation:
 ---------------------------------------------------------------------
 Center     Atomic      Atomic             Coordinates (Angstroms)
 Number     Number       Type             X           Y           Z
 ---------------------------------------------------------------------
      1          6           0       -0.714389   -0.214734    0.047151
      2          6           0       -1.396668   -0.203275   -1.173867
      3          6           0       -2.794306   -0.213376   -1.206355
      4          6           0       -3.481017   -0.235052    0.006594
      5          6           0       -2.829909   -0.246904    1.239156
      6          6           0       -1.431922   -0.236474    1.247649
      7          1           0        0.371465   -0.206760    0.063069
      8          1           0       -0.842029   -0.186391   -2.107749
      9          1           0       -3.347795   -0.204888   -2.137482
     10          1           0       -3.410268   -0.263719    2.153660
     11          1           0       -0.904706   -0.245413    2.197390
     12          7           0       -4.960819   -0.245920   -0.015099
     13          8           0       -5.542623   -0.265030    1.067387
     14          8           0       -5.510862   -0.235121   -1.114177
     15          6           0        4.802700   -0.067191    0.110008
     16          6           0        4.730420   -1.564722   -0.190260
     17          6           0        6.056846   -2.282649    0.060670
     18          1           0        5.589542    0.386648   -0.507936
     19          1           0        5.105761    0.075643    1.156502
     20          1           0        4.426243   -1.704700   -1.235487
     21          1           0        3.943529   -2.015013    0.428332
     22          1           0        6.362720   -2.172572    1.106100
     23          1           0        6.848176   -1.860496   -0.567172
     24          1           0        5.982633   -3.352007   -0.160303
     25          6           0        3.484348    0.664339   -0.136042
     26          6           0        3.556629    2.161870    0.164227
     27          6           0        2.230203    2.879798   -0.086704
     28          1           0        3.181288    0.521505   -1.182536
     29          1           0        2.697506    0.210501    0.481902
     30          1           0        4.343519    2.612162   -0.454366
     31          1           0        3.860805    2.301849    1.209453
     32          1           0        1.438873    2.457645    0.541138
     33          1           0        1.924329    2.769721   -1.132135
     34          1           0        2.304415    3.949155    0.134269
 ---------------------------------------------------------------------

 SCF Done:  E(RHF) =  -669.535555586     A.U. after   15 cycles
 E2 =    -0.2091640143D+01 EUMP2 =    -0.67162719572911D+03

 The electronic state is 1-A.
 Alpha  occ. eigenvalues --  -20.60710 -20.60704 -15.85764 -11.31115 -11.27692
 Alpha  occ. eigenvalues --  -11.27684 -11.27365 -11.26698 -11.26678 -11.22655
 Alpha  occ. eigenvalues --  -11.22559 -11.22468 -11.22316 -11.22001 -11.21757
 Alpha  occ. eigenvalues --   -1.59786  -1.39340  -1.19286  -1.09446  -1.08677
 Alpha  occ. eigenvalues --   -1.04691  -1.04436  -0.96891  -0.95516  -0.87900
 Alpha  occ. eigenvalues --   -0.86086  -0.82358  -0.80506  -0.79300  -0.77406
 Alpha  occ. eigenvalues --   -0.71981  -0.71109  -0.70393  -0.66070  -0.64936
 Alpha  occ. eigenvalues --   -0.64697  -0.62044  -0.61822  -0.60265  -0.58511
 Alpha  occ. eigenvalues --   -0.56192  -0.55201  -0.53528  -0.53330  -0.52999
 Alpha  occ. eigenvalues --   -0.52783  -0.50831  -0.48815  -0.48737  -0.48731
 Alpha  occ. eigenvalues --   -0.47540  -0.46786  -0.46730  -0.44749  -0.44724
 Alpha  occ. eigenvalues --   -0.37244  -0.36300
 Alpha virt. eigenvalues --    0.05115   0.11341   0.16546   0.19668   0.22455
 Alpha virt. eigenvalues --    0.23744   0.24869   0.25936   0.27111   0.27398
 Alpha virt. eigenvalues --    0.29587   0.30348   0.30642   0.31236   0.31484

 Mulliken charges:
               1
     1  C   -0.176714
     2  C   -0.221686
     3  C   -0.170647
     4  C    0.158162
     5  C   -0.170533
     6  C   -0.222542
     7  H    0.239009
     8  H    0.223648
     9  H    0.275271
    10  H    0.275298
    11  H    0.222512
    12  N    0.488021
    13  O   -0.460697
    14  O   -0.460628
    15  C   -0.297584
    16  C   -0.300408
    17  C   -0.476230
    18  H    0.153569
    19  H    0.151976
    20  H    0.151953
    21  H    0.149591
    22  H    0.156584
    23  H    0.157051
    24  H    0.162547
    25  C   -0.303658
    26  C   -0.300050
    27  C   -0.478017
    28  H    0.148363
    29  H    0.141907
    30  H    0.156213
    31  H    0.154447
    32  H    0.152796
    33  H    0.154635
    34  H    0.165837
 Sum of Mulliken charges =  -0.00000

 Dipole moment (field-independent basis, Debye):
    X=              5.4904    Y=              0.1021    Z=              0.0588  Tot=              5.4917
 Quadrupole moment (field-independent basis, Debye-Ang):
   XX=           -131.3548   YY=            -95.6402   ZZ=            -88.8217
   XY=             -0.6092   XZ=             -0.7086   YZ=             -0.1798

 Normal termination of Gaussian 16 at Thu May  6 19:05:41 2021.
