 Gaussian 16, Revision A.03,
 Gaussian 16:  EM64L-G16RevA.03 25-Dec-2016

 -------------
 #p 6-31g* mp2
 -------------

 ------------------------------------------------------
 Input file generated by CHIRIPA (05-May-2021 14:57:26)
 ------------------------------------------------------
 Symbolic Z-matrix:
 Charge =  0 Multiplicity = 1

                         Standard orientation:
 ---------------------------------------------------------------------
 Center     Atomic      Atomic             Coordinates (Angstroms)
 Number     Number       Type             X           Y           Z
 ---------------------------------------------------------------------
      1          6           0        0.499102   -0.226657    1.794281
      2          6           0        0.980695   -1.426031    1.259406
      3          6           0        2.154976   -1.444307    0.500936
      4          6           0        2.825403   -0.239370    0.296131
      5          6           0        2.370931    0.971715    0.815766
      6          6           0        1.194531    0.966285    1.571147
      7          1           0       -0.413931   -0.221668    2.382279
      8          1           0        0.442692   -2.354001    1.431075
      9          1           0        2.550180   -2.358600    0.075141
     10          1           0        2.929116    1.880798    0.627574
     11          1           0        0.822864    1.899225    1.985310
     12          7           0        4.069683   -0.246169   -0.505193
     13          8           0        4.641860    0.828859   -0.671219
     14          8           0        4.449213   -1.326398   -0.952070
     15          6           0       -4.577908   -1.271565    0.076059
     16          6           0       -4.553933    0.034326    0.576654
     17          6           0       -3.474413    0.879681    0.303599
     18          6           0       -2.431079    0.384213   -0.476948
     19          6           0       -2.425856   -0.911918   -0.990085
     20          6           0       -3.515666   -1.739694   -0.704337
     21          1           0       -5.420501   -1.921430    0.293105
     22          1           0       -5.377497    0.400569    1.183000
     23          1           0       -3.430169    1.895036    0.678452
     24          1           0       -1.590265   -1.248685   -1.591579
     25          1           0       -3.531592   -2.753407   -1.094436
     26          7           0       -1.282793    1.269847   -0.772738
     27          8           0       -0.375959    0.809427   -1.462886
     28          8           0       -1.311343    2.407657   -0.308831
 ---------------------------------------------------------------------

 SCF Done:  E(RHF) =  -868.337430949     A.U. after   16 cycles
 E2 =    -0.2604421562D+01 EUMP2 =    -0.87094185251080D+03

 The electronic state is 1-A.
 Alpha  occ. eigenvalues --  -20.61400 -20.61335 -20.59997 -20.59974 -15.86371
 Alpha  occ. eigenvalues --  -15.85034 -11.31848 -11.30329 -11.28445 -11.28385
 Alpha  occ. eigenvalues --  -11.28155 -11.27450 -11.27424 -11.26968 -11.26797
 Alpha  occ. eigenvalues --  -11.26696 -11.26082 -11.25801  -1.60417  -1.59056
 Alpha  occ. eigenvalues --   -1.39976  -1.38615  -1.20031  -1.18496  -1.09399
 Alpha  occ. eigenvalues --   -1.07958  -1.05437  -1.03899  -0.96222  -0.94796
 Alpha  occ. eigenvalues --   -0.86821  -0.85338  -0.83056  -0.81625  -0.78093
 Alpha  occ. eigenvalues --   -0.76653  -0.72636  -0.71809  -0.71269  -0.71108
 Alpha  occ. eigenvalues --   -0.70352  -0.69704  -0.65670  -0.65420  -0.64190
 Alpha  occ. eigenvalues --   -0.63945  -0.62770  -0.61261  -0.55913  -0.54545
 Alpha  occ. eigenvalues --   -0.53747  -0.53510  -0.52217  -0.52027  -0.49392
 Alpha  occ. eigenvalues --   -0.49375  -0.48027  -0.48014  -0.45328  -0.44038
 Alpha  occ. eigenvalues --   -0.38088  -0.37103  -0.36444  -0.35376
 Alpha virt. eigenvalues --    0.04272   0.05981   0.10500   0.12231   0.15883
 Alpha virt. eigenvalues --    0.17332   0.20803   0.22112   0.26692   0.27714
 Alpha virt. eigenvalues --    0.28092   0.28841   0.30391   0.31591   0.31920

 Mulliken charges:
               1
     1  C   -0.186561
     2  C   -0.217008
     3  C   -0.171015
     4  C    0.164626
     5  C   -0.157214
     6  C   -0.212224
     7  H    0.220632
     8  H    0.215558
     9  H    0.270915
    10  H    0.276857
    11  H    0.229391
    12  N    0.488143
    13  O   -0.459419
    14  O   -0.464752
    15  C   -0.171450
    16  C   -0.219192
    17  C   -0.176121
    18  C    0.157189
    19  C   -0.171635
    20  C   -0.220688
    21  H    0.227494
    22  H    0.224898
    23  H    0.274979
    24  H    0.278521
    25  H    0.225238
    26  N    0.490746
    27  O   -0.451538
    28  O   -0.466370
 Sum of Mulliken charges =  -0.00000

 Dipole moment (field-independent basis, Debye):
    X=             -8.4034    Y=             -2.8771    Z=              3.6558  Tot=              9.6052
 Quadrupole moment (field-independent basis, Debye-Ang):
   XX=           -110.1298   YY=           -100.1696   ZZ=           -104.2176
   XY=              6.6929   XZ=              4.8542   YZ=              4.4796

 Normal termination of Gaussian 16 at Thu May  6 09:56:56 2021.
