 Gaussian 16, Revision A.03,
 Gaussian 16:  EM64L-G16RevA.03 25-Dec-2016

 -------------
 #p 6-31g* mp2
 -------------

 ------------------------------------------------------
 Input file generated by CHIRIPA (05-May-2021 14:57:21)
 ------------------------------------------------------
 Symbolic Z-matrix:
 Charge =  0 Multiplicity = 1

                         Standard orientation:
 ---------------------------------------------------------------------
 Center     Atomic      Atomic             Coordinates (Angstroms)
 Number     Number       Type             X           Y           Z
 ---------------------------------------------------------------------
      1          6           0        4.157729   -1.533166   -0.543423
      2          6           0        2.799435   -1.692844   -0.836785
      3          6           0        1.904125   -0.635005   -0.652544
      4          6           0        2.403618    0.574156   -0.171163
      5          6           0        3.751322    0.764308    0.130210
      6          6           0        4.628507   -0.307261   -0.061711
      7          1           0        4.846187   -2.360254   -0.689529
      8          1           0        2.431006   -2.643765   -1.211022
      9          1           0        0.847640   -0.731214   -0.871635
     10          1           0        4.088919    1.724161    0.501864
     11          1           0        5.682859   -0.180381    0.166958
     12          7           0        1.465387    1.701310    0.027950
     13          8           0        1.930490    2.756512    0.453232
     14          8           0        0.282664    1.508229   -0.245038
     15          6           0       -1.247580   -1.197017    2.202526
     16          6           0       -2.165459   -0.151066    2.343963
     17          6           0       -2.897173    0.305126    1.243494
     18          6           0       -2.684959   -0.310212    0.010767
     19          6           0       -1.777692   -1.354369   -0.162121
     20          6           0       -1.056962   -1.794278    0.952140
     21          1           0       -0.683432   -1.545074    3.062753
     22          1           0       -2.315557    0.314649    3.313821
     23          1           0       -3.614152    1.113057    1.324780
     24          1           0       -1.649796   -1.798862   -1.141656
     25          1           0       -0.344795   -2.606767    0.839340
     26          7           0       -3.453780    0.164119   -1.161550
     27          8           0       -3.248474   -0.394674   -2.236836
     28          8           0       -4.247128    1.085710   -0.982930
 ---------------------------------------------------------------------

 SCF Done:  E(RHF) =  -868.335441739     A.U. after   16 cycles
 E2 =    -0.2604361693D+01 EUMP2 =    -0.87093980343219D+03

 The electronic state is 1-A.
 Alpha  occ. eigenvalues --  -20.61013 -20.60990 -20.60236 -20.60207 -15.86055
 Alpha  occ. eigenvalues --  -15.85281 -11.31490 -11.30703 -11.28100 -11.28032
 Alpha  occ. eigenvalues --  -11.27879 -11.27411 -11.27221 -11.27158 -11.27114
 Alpha  occ. eigenvalues --  -11.27102 -11.26507 -11.26307  -1.60075  -1.59284
 Alpha  occ. eigenvalues --   -1.39627  -1.38845  -1.19700  -1.18897  -1.09077
 Alpha  occ. eigenvalues --   -1.08293  -1.05143  -1.04380  -0.95900  -0.95127
 Alpha  occ. eigenvalues --   -0.86514  -0.85775  -0.82752  -0.82000  -0.77788
 Alpha  occ. eigenvalues --   -0.77016  -0.72309  -0.71526  -0.71402  -0.70820
 Alpha  occ. eigenvalues --   -0.70557  -0.70080  -0.65357  -0.65160  -0.64605
 Alpha  occ. eigenvalues --   -0.64444  -0.62550  -0.61701  -0.55630  -0.54893
 Alpha  occ. eigenvalues --   -0.53476  -0.53359  -0.52510  -0.52415  -0.49051
 Alpha  occ. eigenvalues --   -0.49009  -0.48283  -0.48259  -0.44985  -0.44245
 Alpha  occ. eigenvalues --   -0.37719  -0.37022  -0.36643  -0.35756
 Alpha virt. eigenvalues --    0.04708   0.05572   0.10688   0.11857   0.16150
 Alpha virt. eigenvalues --    0.16976   0.20422   0.22048   0.25943   0.27661
 Alpha virt. eigenvalues --    0.28246   0.29544   0.30108   0.31503   0.32257

 Mulliken charges:
               1
     1  C   -0.169905
     2  C   -0.226576
     3  C   -0.169280
     4  C    0.152598
     5  C   -0.169698
     6  C   -0.219773
     7  H    0.226181
     8  H    0.220279
     9  H    0.284184
    10  H    0.276505
    11  H    0.224306
    12  N    0.489200
    13  O   -0.460600
    14  O   -0.460657
    15  C   -0.170724
    16  C   -0.213879
    17  C   -0.161433
    18  C    0.177133
    19  C   -0.180398
    20  C   -0.219761
    21  H    0.222890
    22  H    0.223505
    23  H    0.276989
    24  H    0.268462
    25  H    0.215030
    26  N    0.488747
    27  O   -0.465096
    28  O   -0.458229
 Sum of Mulliken charges =  -0.00000

 Dipole moment (field-independent basis, Debye):
    X=              5.8495    Y=             -5.2637    Z=              3.5278  Tot=              8.6237
 Quadrupole moment (field-independent basis, Debye-Ang):
   XX=            -99.8858   YY=           -105.8257   ZZ=           -103.5789
   XY=             -3.8200   XZ=            -13.7697   YZ=              2.3569

 Normal termination of Gaussian 16 at Thu May  6 17:49:26 2021.
