 Gaussian 16, Revision A.03,
 Gaussian 16:  EM64L-G16RevA.03 25-Dec-2016

 -------------
 #p 6-31g* mp2
 -------------

 ------------------------------------------------------
 Input file generated by CHIRIPA (05-May-2021 14:53:15)
 ------------------------------------------------------
 Symbolic Z-matrix:
 Charge =  0 Multiplicity = 1

                         Standard orientation:
 ---------------------------------------------------------------------
 Center     Atomic      Atomic             Coordinates (Angstroms)
 Number     Number       Type             X           Y           Z
 ---------------------------------------------------------------------
      1          6           0        3.275000    0.622416   -0.856643
      2          6           0        2.646483    1.936032   -0.390418
      3          6           0        2.408708    2.917747   -1.538238
      4          1           0        4.227362    0.837437   -1.360347
      5          1           0        2.621773    0.157917   -1.608262
      6          1           0        3.300024    2.397230    0.361112
      7          1           0        1.695600    1.717843    0.112404
      8          1           0        1.738638    2.481230   -2.285942
      9          1           0        3.352179    3.164477   -2.035821
     10          1           0        1.958842    3.849929   -1.182546
     11          6           0        3.518830   -0.369312    0.279470
     12          6           0        4.147346   -1.682927   -0.186756
     13          6           0        4.385122   -2.664642    0.961065
     14          1           0        4.172056    0.095187    1.031089
     15          1           0        2.566468   -0.584332    0.783174
     16          1           0        5.098230   -1.464739   -0.689578
     17          1           0        3.493805   -2.144125   -0.938285
     18          1           0        3.441651   -2.911372    1.458648
     19          1           0        5.055192   -2.228125    1.708768
     20          1           0        4.834988   -3.596825    0.605373
     21          6           0       -1.238691    1.429739    1.649057
     22          6           0       -2.554440    1.785305    1.334576
     23          6           0       -3.347700    0.946052    0.546580
     24          6           0       -2.790652   -0.246649    0.087830
     25          6           0       -1.483142   -0.628722    0.384022
     26          6           0       -0.708176    0.225983    1.173614
     27          1           0       -0.629573    2.087692    2.261812
     28          1           0       -2.969079    2.719545    1.702430
     29          1           0       -4.369313    1.196777    0.288001
     30          1           0       -1.097569   -1.566481    0.002762
     31          1           0        0.313337   -0.052727    1.416259
     32          7           0       -3.620756   -1.143308   -0.747232
     33          8           0       -3.106559   -2.188622   -1.139093
     34          8           0       -4.769872   -0.783816   -0.994080
 ---------------------------------------------------------------------

 SCF Done:  E(RHF) =  -669.535104839     A.U. after   15 cycles
 E2 =    -0.2092694414D+01 EUMP2 =    -0.67162779925355D+03

 The electronic state is 1-A.
 Alpha  occ. eigenvalues --  -20.60798 -20.60793 -15.85852 -11.31232 -11.27800
 Alpha  occ. eigenvalues --  -11.27796 -11.27538 -11.26808 -11.26783 -11.22279
 Alpha  occ. eigenvalues --  -11.22273 -11.22199 -11.22036 -11.21621 -11.21593
 Alpha  occ. eigenvalues --   -1.59873  -1.39426  -1.19406  -1.09146  -1.08793
 Alpha  occ. eigenvalues --   -1.04812  -1.04153  -0.96602  -0.95627  -0.87611
 Alpha  occ. eigenvalues --   -0.86212  -0.82461  -0.80231  -0.78997  -0.77502
 Alpha  occ. eigenvalues --   -0.72070  -0.71196  -0.70504  -0.65888  -0.65056
 Alpha  occ. eigenvalues --   -0.64740  -0.62156  -0.61545  -0.59971  -0.58223
 Alpha  occ. eigenvalues --   -0.55898  -0.55294  -0.53285  -0.53142  -0.53036
 Alpha  occ. eigenvalues --   -0.52881  -0.50539  -0.48836  -0.48824  -0.48544
 Alpha  occ. eigenvalues --   -0.47273  -0.46488  -0.46407  -0.44829  -0.44438
 Alpha  occ. eigenvalues --   -0.37358  -0.36392
 Alpha virt. eigenvalues --    0.05021   0.11079   0.16487   0.19537   0.22858
 Alpha virt. eigenvalues --    0.23628   0.24841   0.26446   0.27105   0.28122
 Alpha virt. eigenvalues --    0.29430   0.30682   0.31104   0.31398   0.31756

 Mulliken charges:
               1
     1  C   -0.299006
     2  C   -0.305124
     3  C   -0.475269
     4  H    0.153375
     5  H    0.152711
     6  H    0.150758
     7  H    0.148858
     8  H    0.158974
     9  H    0.157098
    10  H    0.159292
    11  C   -0.302343
    12  C   -0.300285
    13  C   -0.475844
    14  H    0.151536
    15  H    0.140198
    16  H    0.155280
    17  H    0.154446
    18  H    0.152814
    19  H    0.155810
    20  H    0.163991
    21  C   -0.172600
    22  C   -0.218515
    23  C   -0.170761
    24  C    0.158604
    25  C   -0.174926
    26  C   -0.223194
    27  H    0.227379
    28  H    0.223724
    29  H    0.275833
    30  H    0.275409
    31  H    0.234304
    32  N    0.488138
    33  O   -0.460376
    34  O   -0.460287
 Sum of Mulliken charges =  -0.00000

 Dipole moment (field-independent basis, Debye):
    X=              3.0205    Y=              3.1499    Z=              2.8535  Tot=              5.2141
 Quadrupole moment (field-independent basis, Debye-Ang):
   XX=           -106.9664   YY=            -95.0079   ZZ=            -95.3874
   XY=            -12.1380   XZ=             -8.6454   YZ=              0.4777

 Normal termination of Gaussian 16 at Thu May  6 17:10:37 2021.
