 Gaussian 16, Revision A.03,
 Gaussian 16:  EM64L-G16RevA.03 25-Dec-2016

 -------------
 #p 6-31g* mp2
 -------------

 ------------------------------------------------------
 Input file generated by CHIRIPA (05-May-2021 14:51:12)
 ------------------------------------------------------
 Symbolic Z-matrix:
 Charge =  0 Multiplicity = 1

                         Standard orientation:
 ---------------------------------------------------------------------
 Center     Atomic      Atomic             Coordinates (Angstroms)
 Number     Number       Type             X           Y           Z
 ---------------------------------------------------------------------
      1          6           0       -3.630132    0.809638   -0.336946
      2          6           0       -4.362218    1.922256    0.414131
      3          6           0       -3.945227    3.319526   -0.045815
      4          1           0       -2.547273    0.934397   -0.199841
      5          1           0       -3.823084    0.915076   -1.413536
      6          1           0       -4.169065    1.813928    1.489107
      7          1           0       -5.443467    1.794722    0.275380
      8          1           0       -4.153665    3.452196   -1.112376
      9          1           0       -2.872023    3.471510    0.108247
     10          1           0       -4.480745    4.099680    0.504130
     11          6           0       -4.036288   -0.593028    0.111710
     12          6           0       -3.304203   -1.705646   -0.639367
     13          6           0       -3.721194   -3.102916   -0.179421
     14          1           0       -3.843336   -0.698466    1.188300
     15          1           0       -5.119147   -0.717787   -0.025395
     16          1           0       -2.222954   -1.578113   -0.500617
     17          1           0       -3.497355   -1.597318   -1.714343
     18          1           0       -4.794398   -3.254901   -0.333483
     19          1           0       -3.512755   -3.235586    0.887140
     20          1           0       -3.185675   -3.883070   -0.729366
     21          6           0        4.355540    0.315193   -0.249671
     22          6           0        5.789650    0.012842    0.186102
     23          6           0        6.823171    0.868035   -0.547571
     24          1           0        4.266076    0.152472   -1.332474
     25          1           0        4.143172    1.379024   -0.074861
     26          1           0        5.998795   -1.050406    0.011809
     27          1           0        5.875662    0.176117    1.268026
     28          1           0        6.642602    1.932191   -0.364358
     29          1           0        6.766434    0.698700   -1.627713
     30          1           0        7.841494    0.635526   -0.220743
     31          6           0        3.310880   -0.531802    0.474907
     32          6           0        1.876770   -0.229452    0.039134
     33          6           0        0.843250   -1.084644    0.772806
     34          1           0        3.523249   -1.595634    0.300098
     35          1           0        3.400345   -0.369082    1.557711
     36          1           0        1.790759   -0.392727   -1.042790
     37          1           0        1.667625    0.833797    0.213427
     38          1           0        0.899985   -0.915310    1.852949
     39          1           0        1.023818   -2.148801    0.589595
     40          1           0       -0.175074   -0.852135    0.445980
 ---------------------------------------------------------------------

 SCF Done:  E(RHF) =  -470.733304774     A.U. after   11 cycles
 E2 =    -0.1582614177D+01 EUMP2 =    -0.47231591895093D+03

 The electronic state is 1-A.
 Alpha  occ. eigenvalues --  -11.21648 -11.21618 -11.21599 -11.21557 -11.21432
 Alpha  occ. eigenvalues --  -11.21400 -11.21372 -11.21336 -11.21130 -11.21083
 Alpha  occ. eigenvalues --  -11.21068 -11.21036  -1.08461  -1.08419  -1.03568
 Alpha  occ. eigenvalues --   -1.03508  -0.96017  -0.95962  -0.87043  -0.86972
 Alpha  occ. eigenvalues --   -0.79650  -0.79556  -0.78271  -0.78234  -0.65089
 Alpha  occ. eigenvalues --   -0.65068  -0.60977  -0.60922  -0.59432  -0.59279
 Alpha  occ. eigenvalues --   -0.57628  -0.57571  -0.55308  -0.55240  -0.52773
 Alpha  occ. eigenvalues --   -0.52633  -0.52447  -0.52378  -0.49959  -0.49895
 Alpha  occ. eigenvalues --   -0.48001  -0.47852  -0.46667  -0.46593  -0.45818
 Alpha  occ. eigenvalues --   -0.45768  -0.45736  -0.45691  -0.43793  -0.43739
 Alpha virt. eigenvalues --    0.20806   0.23027   0.23974   0.24550   0.25986
 Alpha virt. eigenvalues --    0.26630   0.27146   0.27508   0.27923   0.28905
 Alpha virt. eigenvalues --    0.30904   0.31384   0.31744   0.31894   0.31958

 Mulliken charges:
               1
     1  C   -0.300203
     2  C   -0.299596
     3  C   -0.475707
     4  H    0.150385
     5  H    0.149671
     6  H    0.152042
     7  H    0.152058
     8  H    0.155197
     9  H    0.155145
    10  H    0.160229
    11  C   -0.297811
    12  C   -0.307566
    13  C   -0.475125
    14  H    0.149682
    15  H    0.149699
    16  H    0.159192
    17  H    0.151747
    18  H    0.154941
    19  H    0.155487
    20  H    0.160095
    21  C   -0.298284
    22  C   -0.299672
    23  C   -0.475725
    24  H    0.149783
    25  H    0.149565
    26  H    0.151979
    27  H    0.151950
    28  H    0.155216
    29  H    0.155235
    30  H    0.160310
    31  C   -0.298591
    32  C   -0.298971
    33  C   -0.484368
    34  H    0.149679
    35  H    0.149681
    36  H    0.152462
    37  H    0.151687
    38  H    0.155366
    39  H    0.155750
    40  H    0.167385
 Sum of Mulliken charges =  -0.00000

 Dipole moment (field-independent basis, Debye):
    X=              0.0178    Y=             -0.0030    Z=              0.0014  Tot=              0.0181
 Quadrupole moment (field-independent basis, Debye-Ang):
   XX=            -85.0223   YY=            -85.7310   ZZ=            -83.9922
   XY=             -0.7435   XZ=              0.8827   YZ=              1.0185

 Normal termination of Gaussian 16 at Wed May  5 19:53:21 2021.
