 Gaussian 16, Revision A.03,
 Gaussian 16:  EM64L-G16RevA.03 25-Dec-2016

 -------------
 #p 6-31g* mp2
 -------------

 ------------------------------------------------------
 Input file generated by CHIRIPA (05-May-2021 14:57:26)
 ------------------------------------------------------
 Symbolic Z-matrix:
 Charge =  0 Multiplicity = 1

                         Standard orientation:
 ---------------------------------------------------------------------
 Center     Atomic      Atomic             Coordinates (Angstroms)
 Number     Number       Type             X           Y           Z
 ---------------------------------------------------------------------
      1          6           0        2.381360    2.420985   -0.786264
      2          6           0        1.640659    1.282125   -1.119253
      3          6           0        2.128137    0.006041   -0.821725
      4          6           0        3.365614   -0.094859   -0.187881
      5          6           0        4.127149    1.020793    0.156612
      6          6           0        3.620057    2.286920   -0.150515
      7          1           0        1.995057    3.408410   -1.021119
      8          1           0        0.678362    1.383219   -1.613024
      9          1           0        1.575497   -0.892411   -1.068284
     10          1           0        5.083167    0.888176    0.648406
     11          1           0        4.197474    3.169614    0.109266
     12          7           0        3.892068   -1.440522    0.132180
     13          8           0        4.985029   -1.502533    0.690953
     14          8           0        3.201773   -2.407761   -0.181791
     15          6           0       -0.919705   -0.094212    1.134664
     16          6           0       -1.834570    0.884192    1.537490
     17          6           0       -3.144315    0.875852    1.048569
     18          6           0       -3.506922   -0.130085    0.154199
     19          6           0       -2.618463   -1.118675   -0.266062
     20          6           0       -1.313876   -1.090766    0.235758
     21          1           0        0.095734   -0.080133    1.519479
     22          1           0       -1.531237    1.659335    2.235477
     23          1           0       -3.872907    1.621138    1.343734
     24          1           0       -2.950191   -1.878663   -0.963050
     25          1           0       -0.605511   -1.851883   -0.078831
     26          7           0       -4.890761   -0.149272   -0.370228
     27          8           0       -5.185437   -1.046237   -1.157156
     28          8           0       -5.654533    0.733018    0.015586
 ---------------------------------------------------------------------

 SCF Done:  E(RHF) =  -868.337409856     A.U. after   16 cycles
 E2 =    -0.2601955064D+01 EUMP2 =    -0.87093936492049D+03

 The electronic state is 1-A.
 Alpha  occ. eigenvalues --  -20.61693 -20.61661 -20.61075 -20.61068 -15.86729
 Alpha  occ. eigenvalues --  -15.86133 -11.32125 -11.31545 -11.28669 -11.28600
 Alpha  occ. eigenvalues --  -11.28301 -11.28162 -11.28149 -11.27828 -11.27624
 Alpha  occ. eigenvalues --  -11.27598 -11.27127 -11.27109  -1.60753  -1.60152
 Alpha  occ. eigenvalues --   -1.40308  -1.39703  -1.20271  -1.19746  -1.09637
 Alpha  occ. eigenvalues --   -1.09118  -1.05654  -1.05153  -0.96482  -0.95930
 Alpha  occ. eigenvalues --   -0.87045  -0.86535  -0.83295  -0.82761  -0.78373
 Alpha  occ. eigenvalues --   -0.77808  -0.72936  -0.72347  -0.72090  -0.71482
 Alpha  occ. eigenvalues --   -0.71354  -0.70790  -0.65891  -0.65666  -0.65372
 Alpha  occ. eigenvalues --   -0.65108  -0.63015  -0.62435  -0.56103  -0.55672
 Alpha  occ. eigenvalues --   -0.54024  -0.53731  -0.53392  -0.53188  -0.49708
 Alpha  occ. eigenvalues --   -0.49686  -0.49108  -0.49099  -0.45703  -0.45098
 Alpha  occ. eigenvalues --   -0.38274  -0.38074  -0.36895  -0.36721
 Alpha virt. eigenvalues --    0.04033   0.04825   0.10186   0.10881   0.15499
 Alpha virt. eigenvalues --    0.16372   0.19951   0.21489   0.25132   0.26999
 Alpha virt. eigenvalues --    0.27953   0.28324   0.29880   0.30784   0.31631

 Mulliken charges:
               1
     1  C   -0.173503
     2  C   -0.217041
     3  C   -0.182692
     4  C    0.157886
     5  C   -0.171869
     6  C   -0.218243
     7  H    0.229145
     8  H    0.231045
     9  H    0.273206
    10  H    0.277835
    11  H    0.226572
    12  N    0.488124
    13  O   -0.455998
    14  O   -0.463793
    15  C   -0.169133
    16  C   -0.222336
    17  C   -0.171064
    18  C    0.157231
    19  C   -0.171228
    20  C   -0.233004
    21  H    0.231636
    22  H    0.223669
    23  H    0.276103
    24  H    0.277781
    25  H    0.231080
    26  N    0.488058
    27  O   -0.459232
    28  O   -0.460233
 Sum of Mulliken charges =  -0.00000

 Dipole moment (field-independent basis, Debye):
    X=              3.1309    Y=              4.9221    Z=              0.7227  Tot=              5.8781
 Quadrupole moment (field-independent basis, Debye-Ang):
   XX=           -148.2558   YY=           -101.9968   ZZ=           -102.6947
   XY=             16.6777   XZ=             -8.0100   YZ=              2.3340

 Normal termination of Gaussian 16 at Wed May  5 19:37:06 2021.
