 Gaussian 16, Revision A.03,
 Gaussian 16:  EM64L-G16RevA.03 25-Dec-2016

 -------------
 #p 6-31g* mp2
 -------------

 ------------------------------------------------------
 Input file generated by CHIRIPA (05-May-2021 14:57:27)
 ------------------------------------------------------
 Symbolic Z-matrix:
 Charge =  0 Multiplicity = 1

                         Standard orientation:
 ---------------------------------------------------------------------
 Center     Atomic      Atomic             Coordinates (Angstroms)
 Number     Number       Type             X           Y           Z
 ---------------------------------------------------------------------
      1          6           0        3.739663   -2.401443    0.026717
      2          6           0        2.659733   -1.694190    0.565294
      3          6           0        2.658175   -0.296148    0.570271
      4          6           0        3.757851    0.365497    0.026002
      5          6           0        4.848731   -0.310828   -0.517921
      6          6           0        4.828796   -1.708725   -0.512222
      7          1           0        3.732525   -3.487419    0.026997
      8          1           0        1.812553   -2.229525    0.984517
      9          1           0        1.835294    0.276379    0.980755
     10          1           0        5.679066    0.250621   -0.928698
     11          1           0        5.668864   -2.255367   -0.931166
     12          7           0        3.767578    1.845465    0.025620
     13          8           0        4.748362    2.404906   -0.459897
     14          8           0        2.794235    2.418001    0.510846
     15          6           0       -1.579265   -1.384628    0.151094
     16          6           0       -1.587062    0.011721    0.232787
     17          6           0       -2.787388    0.721919    0.135922
     18          6           0       -3.966710    0.000526   -0.043193
     19          6           0       -3.991568   -1.390668   -0.128358
     20          6           0       -2.779427   -2.080139   -0.028899
     21          1           0       -0.642234   -1.928276    0.227349
     22          1           0       -0.656521    0.554493    0.372552
     23          1           0       -2.822214    1.802945    0.195835
     24          1           0       -4.935189   -1.904015   -0.267896
     25          1           0       -2.776389   -3.164558   -0.092692
     26          7           0       -5.243695    0.741410   -0.147112
     27          8           0       -6.269161    0.082462   -0.304732
     28          8           0       -5.194951    1.967035   -0.068976
 ---------------------------------------------------------------------

 SCF Done:  E(RHF) =  -868.336426450     A.U. after   16 cycles
 E2 =    -0.2600609370D+01 EUMP2 =    -0.87093703581935D+03

 The electronic state is 1-A.
 Alpha  occ. eigenvalues --  -20.61606 -20.61578 -20.60892 -20.60881 -15.86654
 Alpha  occ. eigenvalues --  -15.85946 -11.32153 -11.31425 -11.28866 -11.28675
 Alpha  occ. eigenvalues --  -11.28482 -11.28017 -11.27969 -11.27904 -11.27895
 Alpha  occ. eigenvalues --  -11.27689 -11.27110 -11.27083  -1.60663  -1.59962
 Alpha  occ. eigenvalues --   -1.40217  -1.39512  -1.20340  -1.19624  -1.09697
 Alpha  occ. eigenvalues --   -1.09031  -1.05785  -1.05033  -0.96514  -0.95839
 Alpha  occ. eigenvalues --   -0.87172  -0.86452  -0.83363  -0.82653  -0.78407
 Alpha  occ. eigenvalues --   -0.77653  -0.72869  -0.72165  -0.71986  -0.71449
 Alpha  occ. eigenvalues --   -0.71286  -0.70823  -0.66000  -0.65815  -0.65290
 Alpha  occ. eigenvalues --   -0.65084  -0.63148  -0.62337  -0.56246  -0.55688
 Alpha  occ. eigenvalues --   -0.54065  -0.53865  -0.53367  -0.53107  -0.49637
 Alpha  occ. eigenvalues --   -0.49616  -0.48934  -0.48908  -0.45593  -0.44891
 Alpha  occ. eigenvalues --   -0.38290  -0.37664  -0.37375  -0.36621
 Alpha virt. eigenvalues --    0.04143   0.04867   0.10198   0.11005   0.15483
 Alpha virt. eigenvalues --    0.16295   0.17719   0.22276   0.24213   0.24984
 Alpha virt. eigenvalues --    0.27830   0.28925   0.30542   0.31408   0.33061

 Mulliken charges:
               1
     1  C   -0.169772
     2  C   -0.223312
     3  C   -0.176323
     4  C    0.160497
     5  C   -0.168579
     6  C   -0.217783
     7  H    0.228098
     8  H    0.218989
     9  H    0.274195
    10  H    0.279150
    11  H    0.227349
    12  N    0.488137
    13  O   -0.455700
    14  O   -0.462712
    15  C   -0.174012
    16  C   -0.224788
    17  C   -0.170328
    18  C    0.159208
    19  C   -0.170410
    20  C   -0.218837
    21  H    0.217955
    22  H    0.229347
    23  H    0.280978
    24  H    0.276402
    25  H    0.222459
    26  N    0.487785
    27  O   -0.460259
    28  O   -0.457732
 Sum of Mulliken charges =  -0.00000

 Dipole moment (field-independent basis, Debye):
    X=              4.6624    Y=             -7.6930    Z=              0.2601  Tot=              8.9994
 Quadrupole moment (field-independent basis, Debye-Ang):
   XX=           -133.8471   YY=           -105.4977   ZZ=           -105.4253
   XY=             -7.3031   XZ=             -3.9176   YZ=              0.6179

 Normal termination of Gaussian 16 at Fri May  7 00:31:05 2021.
