 Gaussian 16, Revision A.03,
 Gaussian 16:  EM64L-G16RevA.03 25-Dec-2016

 -------------
 #p 6-31g* mp2
 -------------

 ------------------------------------------------------
 Input file generated by CHIRIPA (05-May-2021 14:55:24)
 ------------------------------------------------------
 Symbolic Z-matrix:
 Charge =  0 Multiplicity = 1

                         Standard orientation:
 ---------------------------------------------------------------------
 Center     Atomic      Atomic             Coordinates (Angstroms)
 Number     Number       Type             X           Y           Z
 ---------------------------------------------------------------------
      1          6           0       -5.501265    1.300481   -0.792091
      2          6           0       -5.066771    0.126679   -1.416529
      3          6           0       -3.957833   -0.569563   -0.926576
      4          6           0       -3.304013   -0.061293    0.194794
      5          6           0       -3.712688    1.105470    0.838950
      6          6           0       -4.824031    1.785276    0.331675
      7          1           0       -6.363649    1.834955   -1.179426
      8          1           0       -5.590784   -0.252155   -2.289420
      9          1           0       -3.600089   -1.480686   -1.390572
     10          1           0       -3.169932    1.458497    1.707401
     11          1           0       -5.159224    2.696615    0.818657
     12          7           0       -2.128757   -0.789673    0.722654
     13          8           0       -1.569958   -0.321107    1.712011
     14          8           0       -1.788644   -1.815351    0.137040
     15          6           0        5.202901   -0.014551   -0.368020
     16          6           0        5.883674    1.270158    0.105327
     17          6           0        7.335290    1.377020   -0.362842
     18          1           0        5.772304   -0.879932   -0.002177
     19          1           0        5.239342   -0.057679   -1.465384
     20          1           0        5.844736    1.311522    1.201406
     21          1           0        5.312475    2.132579   -0.261525
     22          1           0        7.389602    1.361212   -1.456186
     23          1           0        7.924885    0.535490    0.015056
     24          1           0        7.802732    2.302857   -0.013294
     25          6           0        3.751234   -0.135855    0.092061
     26          6           0        3.070462   -1.420565   -0.381285
     27          6           0        1.618845   -1.527425    0.086884
     28          1           0        3.714794   -0.092727    1.189425
     29          1           0        3.181832    0.729526   -0.273781
     30          1           0        3.641659   -2.282986   -0.014434
     31          1           0        3.109400   -1.461928   -1.477364
     32          1           0        1.029249   -0.685896   -0.291014
     33          1           0        1.564534   -1.511619    1.180228
     34          1           0        1.151404   -2.453263   -0.262665
 ---------------------------------------------------------------------

 SCF Done:  E(RHF) =  -669.535708966     A.U. after   15 cycles
 E2 =    -0.2091589834D+01 EUMP2 =    -0.67162729880012D+03

 The electronic state is 1-A.
 Alpha  occ. eigenvalues --  -20.60873 -20.60862 -15.85890 -11.31262 -11.27826
 Alpha  occ. eigenvalues --  -11.27823 -11.27569 -11.26840 -11.26830 -11.20994
 Alpha  occ. eigenvalues --  -11.20617 -11.20583 -11.20379 -11.20277 -11.19151
 Alpha  occ. eigenvalues --   -1.59918  -1.39475  -1.19430  -1.08826  -1.07515
 Alpha  occ. eigenvalues --   -1.04832  -1.02501  -0.95666  -0.94900  -0.86230
 Alpha  occ. eigenvalues --   -0.85903  -0.82494  -0.78599  -0.77542  -0.77277
 Alpha  occ. eigenvalues --   -0.72108  -0.71238  -0.70537  -0.65084  -0.64833
 Alpha  occ. eigenvalues --   -0.64164  -0.62178  -0.59916  -0.58367  -0.56508
 Alpha  occ. eigenvalues --   -0.55335  -0.54212  -0.53164  -0.52924  -0.51586
 Alpha  occ. eigenvalues --   -0.51336  -0.48913  -0.48857  -0.48785  -0.46862
 Alpha  occ. eigenvalues --   -0.45687  -0.44901  -0.44788  -0.44703  -0.42702
 Alpha  occ. eigenvalues --   -0.37409  -0.36435
 Alpha virt. eigenvalues --    0.04970   0.11220   0.16462   0.21355   0.23686
 Alpha virt. eigenvalues --    0.25360   0.27270   0.27498   0.28205   0.28332
 Alpha virt. eigenvalues --    0.29137   0.30921   0.32357   0.32469   0.32577

 Mulliken charges:
               1
     1  C   -0.170706
     2  C   -0.218566
     3  C   -0.170918
     4  C    0.158943
     5  C   -0.170929
     6  C   -0.218581
     7  H    0.225844
     8  H    0.223683
     9  H    0.275727
    10  H    0.275834
    11  H    0.223703
    12  N    0.487967
    13  O   -0.459317
    14  O   -0.457804
    15  C   -0.297153
    16  C   -0.298785
    17  C   -0.475118
    18  H    0.148423
    19  H    0.147184
    20  H    0.151623
    21  H    0.150298
    22  H    0.153928
    23  H    0.154612
    24  H    0.158166
    25  C   -0.296624
    26  C   -0.303326
    27  C   -0.464519
    28  H    0.150018
    29  H    0.146873
    30  H    0.147566
    31  H    0.145527
    32  H    0.147939
    33  H    0.161647
    34  H    0.166838
 Sum of Mulliken charges =  -0.00000

 Dipole moment (field-independent basis, Debye):
    X=             -4.4995    Y=              2.4881    Z=             -1.7648  Tot=              5.4360
 Quadrupole moment (field-independent basis, Debye-Ang):
   XX=            -70.4497   YY=            -92.9138   ZZ=            -92.6503
   XY=             -8.5238   XZ=              6.7603   YZ=              3.0584

 Normal termination of Gaussian 16 at Thu May  6 04:46:10 2021.
