 Gaussian 16, Revision A.03,
 Gaussian 16:  EM64L-G16RevA.03 25-Dec-2016

 -------------
 #p 6-31g* mp2
 -------------

 ------------------------------------------------------
 Input file generated by CHIRIPA (05-May-2021 14:53:16)
 ------------------------------------------------------
 Symbolic Z-matrix:
 Charge =  0 Multiplicity = 1

                         Standard orientation:
 ---------------------------------------------------------------------
 Center     Atomic      Atomic             Coordinates (Angstroms)
 Number     Number       Type             X           Y           Z
 ---------------------------------------------------------------------
      1          6           0        3.417280   -0.356120   -0.789838
      2          6           0        1.923756   -0.225075   -0.489506
      3          6           0        1.049977   -0.462155   -1.721617
      4          1           0        3.690442    0.358902   -1.577919
      5          1           0        3.616297   -1.358210   -1.194316
      6          1           0        1.727835    0.775993   -0.084420
      7          1           0        1.654157   -0.940358    0.298087
      8          1           0        1.216230   -1.466544   -2.124314
      9          1           0        1.290326    0.259559   -2.508994
     10          1           0       -0.013898   -0.363599   -1.484307
     11          6           0        4.303764   -0.121864    0.432045
     12          6           0        5.797288   -0.252909    0.131713
     13          6           0        6.671066   -0.015828    1.363824
     14          1           0        4.104747    0.880226    0.836523
     15          1           0        4.030602   -0.836885    1.220126
     16          1           0        6.066887    0.462375   -0.655880
     17          1           0        5.993209   -1.253976   -0.273373
     18          1           0        6.430718   -0.737542    2.151201
     19          1           0        6.504814    0.988560    1.766521
     20          1           0        7.734942   -0.114384    1.126514
     21          6           0       -4.031619   -2.085586    0.553488
     22          6           0       -4.074298   -1.107381    1.552396
     23          6           0       -3.514791    0.155112    1.334193
     24          6           0       -2.917850    0.406390    0.099765
     25          6           0       -2.859478   -0.547342   -0.915261
     26          6           0       -3.425414   -1.802942   -0.674986
     27          1           0       -4.468755   -3.063643    0.731567
     28          1           0       -4.544434   -1.324081    2.507413
     29          1           0       -3.533846    0.930826    2.090051
     30          1           0       -2.383967   -0.301770   -1.857068
     31          1           0       -3.390804   -2.560698   -1.452581
     32          7           0       -2.322122    1.739285   -0.142920
     33          8           0       -1.802004    1.935710   -1.239064
     34          8           0       -2.386588    2.562347    0.767602
 ---------------------------------------------------------------------

 SCF Done:  E(RHF) =  -669.535189444     A.U. after   15 cycles
 E2 =    -0.2092370691D+01 EUMP2 =    -0.67162756013509D+03

 The electronic state is 1-A.
 Alpha  occ. eigenvalues --  -20.60869 -20.60850 -15.85894 -11.31252 -11.27812
 Alpha  occ. eigenvalues --  -11.27800 -11.27554 -11.26829 -11.26819 -11.21347
 Alpha  occ. eigenvalues --  -11.21180 -11.21083 -11.21012 -11.20850 -11.20618
 Alpha  occ. eigenvalues --   -1.59926  -1.39481  -1.19425  -1.08819  -1.08097
 Alpha  occ. eigenvalues --   -1.04826  -1.03194  -0.95707  -0.95605  -0.86692
 Alpha  occ. eigenvalues --   -0.86215  -0.82486  -0.79272  -0.77912  -0.77537
 Alpha  occ. eigenvalues --   -0.72117  -0.71249  -0.70539  -0.65077  -0.64836
 Alpha  occ. eigenvalues --   -0.64722  -0.62208  -0.60580  -0.59025  -0.57274
 Alpha  occ. eigenvalues --   -0.55326  -0.54929  -0.53202  -0.52967  -0.52267
 Alpha  occ. eigenvalues --   -0.52059  -0.49590  -0.48879  -0.48870  -0.47582
 Alpha  occ. eigenvalues --   -0.46287  -0.45457  -0.45369  -0.44870  -0.43431
 Alpha  occ. eigenvalues --   -0.37396  -0.36400
 Alpha virt. eigenvalues --    0.04972   0.11109   0.16481   0.21286   0.23217
 Alpha virt. eigenvalues --    0.24659   0.26930   0.26990   0.27816   0.27894
 Alpha virt. eigenvalues --    0.28770   0.30542   0.31668   0.31747   0.32176

 Mulliken charges:
               1
     1  C   -0.298340
     2  C   -0.300914
     3  C   -0.477657
     4  H    0.151351
     5  H    0.146702
     6  H    0.160038
     7  H    0.147306
     8  H    0.146646
     9  H    0.161108
    10  H    0.160313
    11  C   -0.298348
    12  C   -0.299441
    13  C   -0.475579
    14  H    0.151884
    15  H    0.147757
    16  H    0.152550
    17  H    0.150508
    18  H    0.154120
    19  H    0.156017
    20  H    0.159438
    21  C   -0.170787
    22  C   -0.218206
    23  C   -0.170899
    24  C    0.160430
    25  C   -0.172647
    26  C   -0.219332
    27  H    0.225876
    28  H    0.223712
    29  H    0.275768
    30  H    0.277335
    31  H    0.224231
    32  N    0.488245
    33  O   -0.459522
    34  O   -0.459663
 Sum of Mulliken charges =  -0.00000

 Dipole moment (field-independent basis, Debye):
    X=             -2.2098    Y=             -4.5819    Z=              0.8684  Tot=              5.1606
 Quadrupole moment (field-independent basis, Debye-Ang):
   XX=            -83.5954   YY=            -97.8303   ZZ=            -91.0927
   XY=             12.9137   XZ=             -4.8799   YZ=              0.9142

 Normal termination of Gaussian 16 at Wed May  5 15:41:20 2021.
