 Gaussian 16, Revision A.03,
 Gaussian 16:  EM64L-G16RevA.03 25-Dec-2016

 -------------
 #p 6-31g* mp2
 -------------

 ------------------------------------------------------
 Input file generated by CHIRIPA (05-May-2021 14:57:23)
 ------------------------------------------------------
 Symbolic Z-matrix:
 Charge =  0 Multiplicity = 1

                         Standard orientation:
 ---------------------------------------------------------------------
 Center     Atomic      Atomic             Coordinates (Angstroms)
 Number     Number       Type             X           Y           Z
 ---------------------------------------------------------------------
      1          6           0       -1.282641   -1.110181   -0.104376
      2          6           0       -2.300922   -1.629058   -0.910845
      3          6           0       -3.609149   -1.148752   -0.799508
      4          6           0       -3.864798   -0.144564    0.132983
      5          6           0       -2.871829    0.392694    0.950698
      6          6           0       -1.570837   -0.102737    0.822188
      7          1           0       -0.269189   -1.489170   -0.197536
      8          1           0       -2.080018   -2.411494   -1.631290
      9          1           0       -4.416500   -1.532548   -1.411311
     10          1           0       -3.122724    1.172230    1.659778
     11          1           0       -0.782021    0.302106    1.449816
     12          7           0       -5.245930    0.371922    0.259941
     13          8           0       -5.445249    1.256980    1.089145
     14          8           0       -6.102989   -0.118096   -0.472158
     15          6           0        4.826628   -1.851244    0.675876
     16          6           0        5.343989   -0.589281    0.986211
     17          6           0        4.693326    0.570516    0.554869
     18          6           0        3.522178    0.430863   -0.188234
     19          6           0        2.981806   -0.812317   -0.513491
     20          6           0        3.649263   -1.958545   -0.071666
     21          1           0        5.338602   -2.746932    1.015024
     22          1           0        6.258171   -0.502922    1.566606
     23          1           0        5.071868    1.559967    0.780947
     24          1           0        2.068661   -0.866491   -1.093707
     25          1           0        3.245169   -2.937293   -0.314163
     26          7           0        2.824460    1.651506   -0.650425
     27          8           0        1.794234    1.501529   -1.303707
     28          8           0        3.321027    2.735110   -0.350656
 ---------------------------------------------------------------------

 SCF Done:  E(RHF) =  -868.337038178     A.U. after   16 cycles
 E2 =    -0.2600033218D+01 EUMP2 =    -0.87093707139647D+03

 The electronic state is 1-A.
 Alpha  occ. eigenvalues --  -20.61597 -20.61582 -20.60495 -20.60486 -15.86644
 Alpha  occ. eigenvalues --  -15.85545 -11.32117 -11.30907 -11.28761 -11.28613
 Alpha  occ. eigenvalues --  -11.28365 -11.27744 -11.27634 -11.27489 -11.27435
 Alpha  occ. eigenvalues --  -11.27316 -11.26564 -11.26479  -1.60668  -1.59567
 Alpha  occ. eigenvalues --   -1.40218  -1.39121  -1.20277  -1.19080  -1.09636
 Alpha  occ. eigenvalues --   -1.08498  -1.05699  -1.04481  -0.96464  -0.95336
 Alpha  occ. eigenvalues --   -0.87080  -0.85894  -0.83293  -0.82166  -0.78347
 Alpha  occ. eigenvalues --   -0.77191  -0.72850  -0.72005  -0.71768  -0.71385
 Alpha  occ. eigenvalues --   -0.70886  -0.70259  -0.65919  -0.65682  -0.64751
 Alpha  occ. eigenvalues --   -0.64506  -0.63052  -0.61834  -0.56158  -0.55098
 Alpha  occ. eigenvalues --   -0.54000  -0.53751  -0.52796  -0.52593  -0.49622
 Alpha  occ. eigenvalues --   -0.49607  -0.48527  -0.48520  -0.45598  -0.44527
 Alpha  occ. eigenvalues --   -0.38228  -0.37308  -0.37066  -0.36056
 Alpha virt. eigenvalues --    0.04156   0.05327   0.10288   0.11593   0.15659
 Alpha virt. eigenvalues --    0.16747   0.19401   0.21897   0.25306   0.27106
 Alpha virt. eigenvalues --    0.27529   0.29327   0.30417   0.30938   0.32706

 Mulliken charges:
               1
     1  C   -0.165577
     2  C   -0.218227
     3  C   -0.170683
     4  C    0.159086
     5  C   -0.170222
     6  C   -0.212637
     7  H    0.214752
     8  H    0.219996
     9  H    0.274775
    10  H    0.276306
    11  H    0.224250
    12  N    0.488084
    13  O   -0.459974
    14  O   -0.461310
    15  C   -0.170478
    16  C   -0.217502
    17  C   -0.170504
    18  C    0.159086
    19  C   -0.179733
    20  C   -0.218350
    21  H    0.228720
    22  H    0.227044
    23  H    0.278452
    24  H    0.271994
    25  H    0.222894
    26  N    0.486871
    27  O   -0.460648
    28  O   -0.456465
 Sum of Mulliken charges =  -0.00000

 Dipole moment (field-independent basis, Debye):
    X=              7.5712    Y=             -5.9629    Z=              1.2685  Tot=              9.7205
 Quadrupole moment (field-independent basis, Debye-Ang):
   XX=           -121.8641   YY=           -105.2858   ZZ=           -103.1104
   XY=             -4.6750   XZ=             11.0295   YZ=              5.3240

 Normal termination of Gaussian 16 at Wed May  5 19:24:48 2021.
