 Gaussian 16, Revision A.03,
 Gaussian 16:  EM64L-G16RevA.03 25-Dec-2016

 -------------
 #p 6-31g* mp2
 -------------

 ------------------------------------------------------
 Input file generated by CHIRIPA (05-May-2021 14:57:22)
 ------------------------------------------------------
 Symbolic Z-matrix:
 Charge =  0 Multiplicity = 1

                         Standard orientation:
 ---------------------------------------------------------------------
 Center     Atomic      Atomic             Coordinates (Angstroms)
 Number     Number       Type             X           Y           Z
 ---------------------------------------------------------------------
      1          6           0        1.286832    2.461684   -0.726904
      2          6           0        0.573933    1.451514   -0.072798
      3          6           0        1.220704    0.287297    0.352448
      4          6           0        2.587390    0.165821    0.106072
      5          6           0        3.325184    1.154523   -0.543095
      6          6           0        2.657764    2.310231   -0.959555
      7          1           0        0.776385    3.362770   -1.053833
      8          1           0       -0.490824    1.566413    0.109230
      9          1           0        0.693081   -0.510409    0.861072
     10          1           0        4.385815    1.011315   -0.710340
     11          1           0        3.213955    3.093100   -1.467308
     12          7           0        3.283027   -1.062180    0.551610
     13          8           0        4.487731   -1.144994    0.322555
     14          8           0        2.610391   -1.918620    1.121442
     15          6           0       -3.204695    1.620241    1.337115
     16          6           0       -3.319164    1.649990   -0.056633
     17          6           0       -2.916746    0.553980   -0.825640
     18          6           0       -2.401978   -0.560446   -0.165065
     19          6           0       -2.275369   -0.620387    1.221899
     20          6           0       -2.684080    0.487145    1.970815
     21          1           0       -3.519746    2.476123    1.926693
     22          1           0       -3.723116    2.528624   -0.551474
     23          1           0       -2.994281    0.550272   -1.906099
     24          1           0       -1.868857   -1.510391    1.686720
     25          1           0       -2.594020    0.461239    3.053064
     26          7           0       -1.972625   -1.726842   -0.968543
     27          8           0       -1.522351   -2.696716   -0.362548
     28          8           0       -2.094503   -1.649101   -2.189092
 ---------------------------------------------------------------------

 SCF Done:  E(RHF) =  -868.335081368     A.U. after   16 cycles
 E2 =    -0.2606303342D+01 EUMP2 =    -0.87094138470989D+03

 The electronic state is 1-A.
 Alpha  occ. eigenvalues --  -20.61408 -20.61369 -20.60410 -20.60384 -15.86443
 Alpha  occ. eigenvalues --  -15.85450 -11.32198 -11.30897 -11.28779 -11.28759
 Alpha  occ. eigenvalues --  -11.28590 -11.27894 -11.27863 -11.27464 -11.27403
 Alpha  occ. eigenvalues --  -11.27236 -11.26545 -11.26329  -1.60454  -1.59471
 Alpha  occ. eigenvalues --   -1.39994  -1.39022  -1.20491  -1.19060  -1.09747
 Alpha  occ. eigenvalues --   -1.08456  -1.05882  -1.04482  -0.96499  -0.95285
 Alpha  occ. eigenvalues --   -0.87221  -0.85882  -0.83297  -0.82123  -0.78292
 Alpha  occ. eigenvalues --   -0.77169  -0.72639  -0.71829  -0.71661  -0.71455
 Alpha  occ. eigenvalues --   -0.70790  -0.70207  -0.66034  -0.65795  -0.64723
 Alpha  occ. eigenvalues --   -0.64572  -0.63161  -0.61968  -0.56290  -0.55214
 Alpha  occ. eigenvalues --   -0.54160  -0.53880  -0.52813  -0.52187  -0.49438
 Alpha  occ. eigenvalues --   -0.49384  -0.48430  -0.48421  -0.45295  -0.44407
 Alpha  occ. eigenvalues --   -0.38568  -0.37616  -0.37033  -0.35950
 Alpha virt. eigenvalues --    0.04143   0.05405   0.09960   0.11612   0.15618
 Alpha virt. eigenvalues --    0.16865   0.20421   0.22018   0.26090   0.27121
 Alpha virt. eigenvalues --    0.28250   0.28448   0.30324   0.31265   0.31775

 Mulliken charges:
               1
     1  C   -0.175719
     2  C   -0.224389
     3  C   -0.180058
     4  C    0.161518
     5  C   -0.171516
     6  C   -0.217653
     7  H    0.220564
     8  H    0.234945
     9  H    0.275245
    10  H    0.275061
    11  H    0.221743
    12  N    0.488095
    13  O   -0.461776
    14  O   -0.457453
    15  C   -0.175200
    16  C   -0.226696
    17  C   -0.176576
    18  C    0.160870
    19  C   -0.185845
    20  C   -0.217169
    21  H    0.230332
    22  H    0.226863
    23  H    0.279786
    24  H    0.284729
    25  H    0.230826
    26  N    0.488707
    27  O   -0.452202
    28  O   -0.457032
 Sum of Mulliken charges =  -0.00000

 Dipole moment (field-independent basis, Debye):
    X=             -4.2615    Y=              8.1661    Z=              1.2990  Tot=              9.3023
 Quadrupole moment (field-independent basis, Debye-Ang):
   XX=           -106.5416   YY=           -107.1918   ZZ=           -102.4151
   XY=              2.6278   XZ=            -11.7302   YZ=             -5.0376

 Normal termination of Gaussian 16 at Thu May  6 09:42:55 2021.
