 Gaussian 16, Revision A.03,
 Gaussian 16:  EM64L-G16RevA.03 25-Dec-2016

 -------------
 #p 6-31g* mp2
 -------------

 ------------------------------------------------------
 Input file generated by CHIRIPA (05-May-2021 14:53:12)
 ------------------------------------------------------
 Symbolic Z-matrix:
 Charge =  0 Multiplicity = 1

                         Standard orientation:
 ---------------------------------------------------------------------
 Center     Atomic      Atomic             Coordinates (Angstroms)
 Number     Number       Type             X           Y           Z
 ---------------------------------------------------------------------
      1          6           0       -3.468288    0.757291    0.344531
      2          6           0       -2.282971    1.667154    0.668812
      3          6           0       -2.701713    2.949740    1.388133
      4          1           0       -4.187175    1.309483   -0.276137
      5          1           0       -3.991360    0.502024    1.276534
      6          1           0       -1.761472    1.919506   -0.263375
      7          1           0       -1.566731    1.112670    1.288621
      8          1           0       -3.202930    2.715507    2.332864
      9          1           0       -3.398777    3.526927    0.772049
     10          1           0       -1.838914    3.585402    1.610333
     11          6           0       -3.065691   -0.528946   -0.374661
     12          6           0       -4.251008   -1.438810   -0.698942
     13          6           0       -3.832266   -2.721396   -1.418262
     14          1           0       -2.542619   -0.273680   -1.306664
     15          1           0       -2.346804   -1.081139    0.246007
     16          1           0       -4.967247   -0.884326   -1.318751
     17          1           0       -4.772507   -1.691162    0.233245
     18          1           0       -3.135202   -3.298583   -0.802179
     19          1           0       -3.331048   -2.487163   -2.362994
     20          1           0       -4.695065   -3.357058   -1.640462
     21          6           0        2.453062   -1.916509    1.748720
     22          6           0        3.504115   -1.883824    0.826363
     23          6           0        3.569262   -0.876038   -0.140420
     24          6           0        2.561933    0.087461   -0.156153
     25          6           0        1.501958    0.081927    0.749228
     26          6           0        1.457094   -0.935260    1.707281
     27          1           0        2.410333   -2.703034    2.496350
     28          1           0        4.278986   -2.644568    0.856181
     29          1           0        4.371671   -0.826883   -0.866466
     30          1           0        0.744169    0.854060    0.694600
     31          1           0        0.639651   -0.958143    2.422339
     32          7           0        2.620165    1.159335   -1.175022
     33          8           0        1.720346    1.996540   -1.167857
     34          8           0        3.564524    1.141970   -1.961483
 ---------------------------------------------------------------------

 SCF Done:  E(RHF) =  -669.535683181     A.U. after   15 cycles
 E2 =    -0.2091862385D+01 EUMP2 =    -0.67162754556586D+03

 The electronic state is 1-A.
 Alpha  occ. eigenvalues --  -20.60752 -20.60747 -15.85800 -11.31123 -11.27719
 Alpha  occ. eigenvalues --  -11.27646 -11.27468 -11.26728 -11.26716 -11.21917
 Alpha  occ. eigenvalues --  -11.21782 -11.21632 -11.21570 -11.21227 -11.21209
 Alpha  occ. eigenvalues --   -1.59824  -1.39378  -1.19309  -1.08716  -1.08660
 Alpha  occ. eigenvalues --   -1.04712  -1.03737  -0.96162  -0.95552  -0.87181
 Alpha  occ. eigenvalues --   -0.86112  -0.82389  -0.79832  -0.78504  -0.77413
 Alpha  occ. eigenvalues --   -0.72021  -0.71144  -0.70427  -0.65299  -0.64960
 Alpha  occ. eigenvalues --   -0.64723  -0.62092  -0.61117  -0.59523  -0.57778
 Alpha  occ. eigenvalues --   -0.55445  -0.55224  -0.53045  -0.52893  -0.52784
 Alpha  occ. eigenvalues --   -0.52568  -0.50105  -0.48778  -0.48777  -0.48108
 Alpha  occ. eigenvalues --   -0.46846  -0.46026  -0.45913  -0.44789  -0.43987
 Alpha  occ. eigenvalues --   -0.37300  -0.36307
 Alpha virt. eigenvalues --    0.05085   0.11333   0.16543   0.20099   0.22850
 Alpha virt. eigenvalues --    0.23978   0.25202   0.26439   0.27542   0.28181
 Alpha virt. eigenvalues --    0.29501   0.30110   0.31529   0.31583   0.32107

 Mulliken charges:
               1
     1  C   -0.297690
     2  C   -0.307157
     3  C   -0.475881
     4  H    0.153315
     5  H    0.147826
     6  H    0.168339
     7  H    0.136600
     8  H    0.152952
     9  H    0.159020
    10  H    0.163912
    11  C   -0.298964
    12  C   -0.299780
    13  C   -0.475707
    14  H    0.155145
    15  H    0.143231
    16  H    0.153929
    17  H    0.150682
    18  H    0.153017
    19  H    0.157542
    20  H    0.160700
    21  C   -0.170401
    22  C   -0.219188
    23  C   -0.170123
    24  C    0.157818
    25  C   -0.177256
    26  C   -0.222313
    27  H    0.225307
    28  H    0.223239
    29  H    0.275354
    30  H    0.287574
    31  H    0.222853
    32  N    0.487986
    33  O   -0.461416
    34  O   -0.460465
 Sum of Mulliken charges =  -0.00000

 Dipole moment (field-independent basis, Debye):
    X=             -0.3040    Y=             -3.6698    Z=              3.4566  Tot=              5.0505
 Quadrupole moment (field-independent basis, Debye-Ang):
   XX=            -92.2406   YY=            -95.6978   ZZ=            -95.4126
   XY=            -11.9652   XZ=              8.0348   YZ=              0.6584

 Normal termination of Gaussian 16 at Thu May  6 15:19:55 2021.
