 Gaussian 16, Revision A.03,
 Gaussian 16:  EM64L-G16RevA.03 25-Dec-2016

 -------------
 #p 6-31g* mp2
 -------------

 ------------------------------------------------------
 Input file generated by CHIRIPA (05-May-2021 14:53:13)
 ------------------------------------------------------
 Symbolic Z-matrix:
 Charge =  0 Multiplicity = 1

                         Standard orientation:
 ---------------------------------------------------------------------
 Center     Atomic      Atomic             Coordinates (Angstroms)
 Number     Number       Type             X           Y           Z
 ---------------------------------------------------------------------
      1          6           0        3.102303    0.578918   -0.604172
      2          6           0        2.967466    2.002668   -0.063120
      3          6           0        1.872903    2.802564   -0.770151
      4          1           0        3.314836    0.621356   -1.681193
      5          1           0        2.139711    0.060217   -0.495729
      6          1           0        3.930412    2.518083   -0.171284
      7          1           0        2.755420    1.956839    1.012776
      8          1           0        0.900625    2.313530   -0.651311
      9          1           0        2.082294    2.877963   -1.842098
     10          1           0        1.793720    3.817287   -0.367750
     11          6           0        4.192478   -0.233270    0.092677
     12          6           0        4.327315   -1.657020   -0.448375
     13          6           0        5.421878   -2.456916    0.258655
     14          1           0        5.155071    0.285431   -0.015766
     15          1           0        3.979946   -0.275708    1.169698
     16          1           0        4.539362   -1.611191   -1.524271
     17          1           0        3.364369   -2.172435   -0.340211
     18          1           0        5.212488   -2.532315    1.330603
     19          1           0        6.394156   -1.967882    0.139815
     20          1           0        5.501062   -3.471639   -0.143746
     21          6           0       -4.858091   -1.379882   -0.684448
     22          6           0       -4.859483    0.018512   -0.652622
     23          6           0       -3.752101    0.718708   -0.164788
     24          6           0       -2.655344   -0.014670    0.285289
     25          6           0       -2.623737   -1.408204    0.266443
     26          6           0       -3.742190   -2.087529   -0.225622
     27          1           0       -5.722632   -1.915703   -1.065054
     28          1           0       -5.724715    0.570701   -1.008299
     29          1           0       -3.726515    1.801051   -0.128799
     30          1           0       -1.746572   -1.931043    0.627883
     31          1           0       -3.738314   -3.173566   -0.249148
     32          7           0       -1.477148    0.715548    0.803977
     33          8           0       -0.523279    0.046132    1.194684
     34          8           0       -1.529857    1.943482    0.809997
 ---------------------------------------------------------------------

 SCF Done:  E(RHF) =  -669.536693890     A.U. after   15 cycles
 E2 =    -0.2091869633D+01 EUMP2 =    -0.67162856352292D+03

 The electronic state is 1-A.
 Alpha  occ. eigenvalues --  -20.61124 -20.61113 -15.86117 -11.31382 -11.27937
 Alpha  occ. eigenvalues --  -11.27931 -11.27664 -11.26927 -11.26918 -11.20831
 Alpha  occ. eigenvalues --  -11.20457 -11.20346 -11.20126 -11.20041 -11.19432
 Alpha  occ. eigenvalues --   -1.60162  -1.39718  -1.19543  -1.08959  -1.07284
 Alpha  occ. eigenvalues --   -1.04929  -1.02381  -0.95809  -0.94836  -0.86332
 Alpha  occ. eigenvalues --   -0.85861  -0.82645  -0.78502  -0.77709  -0.77061
 Alpha  occ. eigenvalues --   -0.72331  -0.71475  -0.70651  -0.65198  -0.64932
 Alpha  occ. eigenvalues --   -0.63894  -0.62276  -0.59756  -0.58272  -0.56449
 Alpha  occ. eigenvalues --   -0.55438  -0.54111  -0.53261  -0.53019  -0.51564
 Alpha  occ. eigenvalues --   -0.51285  -0.49195  -0.49102  -0.48687  -0.46806
 Alpha  occ. eigenvalues --   -0.45550  -0.45080  -0.44611  -0.44431  -0.42635
 Alpha  occ. eigenvalues --   -0.37515  -0.36525
 Alpha virt. eigenvalues --    0.04758   0.11131   0.16246   0.21255   0.23970
 Alpha virt. eigenvalues --    0.25505   0.27188   0.27634   0.28217   0.28665
 Alpha virt. eigenvalues --    0.29127   0.30855   0.32369   0.32522   0.32699

 Mulliken charges:
               1
     1  C   -0.301596
     2  C   -0.296986
     3  C   -0.478584
     4  H    0.141964
     5  H    0.160253
     6  H    0.143596
     7  H    0.160173
     8  H    0.170401
     9  H    0.143684
    10  H    0.157415
    11  C   -0.297630
    12  C   -0.298581
    13  C   -0.475081
    14  H    0.145706
    15  H    0.152689
    16  H    0.148863
    17  H    0.150803
    18  H    0.155158
    19  H    0.154001
    20  H    0.156416
    21  C   -0.170287
    22  C   -0.218604
    23  C   -0.170490
    24  C    0.159145
    25  C   -0.170622
    26  C   -0.218585
    27  H    0.226391
    28  H    0.224225
    29  H    0.276281
    30  H    0.275747
    31  H    0.224190
    32  N    0.487190
    33  O   -0.460372
    34  O   -0.456871
 Sum of Mulliken charges =  -0.00000

 Dipole moment (field-independent basis, Debye):
    X=             -4.5799    Y=             -2.5815    Z=             -1.6611  Tot=              5.5135
 Quadrupole moment (field-independent basis, Debye-Ang):
   XX=            -73.2749   YY=            -91.8555   ZZ=            -96.4194
   XY=              5.4540   XZ=              4.0510   YZ=             -1.2089

 Normal termination of Gaussian 16 at Wed May  5 15:32:11 2021.
