 Gaussian 16, Revision A.03,
 Gaussian 16:  EM64L-G16RevA.03 25-Dec-2016

 -------------
 #p 6-31g* mp2
 -------------

 ------------------------------------------------------
 Input file generated by CHIRIPA (05-May-2021 14:55:19)
 ------------------------------------------------------
 Symbolic Z-matrix:
 Charge =  0 Multiplicity = 1

                         Standard orientation:
 ---------------------------------------------------------------------
 Center     Atomic      Atomic             Coordinates (Angstroms)
 Number     Number       Type             X           Y           Z
 ---------------------------------------------------------------------
      1          6           0       -2.789757    2.790493    0.297188
      2          6           0       -1.671807    2.088006   -0.164573
      3          6           0       -1.742494    0.710096   -0.390217
      4          6           0       -2.952397    0.063503   -0.142544
      5          6           0       -4.083654    0.735562    0.317764
      6          6           0       -3.989996    2.113223    0.536461
      7          1           0       -2.725923    3.860789    0.469775
      8          1           0       -0.738384    2.611376   -0.351254
      9          1           0       -0.892383    0.141685   -0.747482
     10          1           0       -5.000421    0.186371    0.494813
     11          1           0       -4.859821    2.656207    0.895093
     12          7           0       -3.039390   -1.395097   -0.377746
     13          8           0       -4.116896   -1.941553   -0.151911
     14          8           0       -2.028421   -1.964271   -0.783478
     15          6           0        4.045764    0.236777   -0.199724
     16          6           0        5.500916    0.515087    0.178506
     17          6           0        6.057021    1.770203   -0.494712
     18          1           0        3.970550    0.133249   -1.290857
     19          1           0        3.430365    1.104631    0.075064
     20          1           0        6.113165   -0.353593   -0.095652
     21          1           0        5.572706    0.617774    1.268881
     22          1           0        5.470972    2.650718   -0.212153
     23          1           0        6.014500    1.673833   -1.584439
     24          1           0        7.098467    1.950315   -0.210436
     25          6           0        3.475670   -1.014755    0.465401
     26          6           0        2.020517   -1.293065    0.087170
     27          6           0        1.464412   -2.548182    0.760388
     28          1           0        4.091069   -1.882610    0.190613
     29          1           0        3.550884   -0.911227    1.556534
     30          1           0        1.948726   -1.395752   -1.003204
     31          1           0        1.408269   -0.424385    0.361328
     32          1           0        1.506932   -2.451810    1.850115
     33          1           0        2.050462   -3.428697    0.477830
     34          1           0        0.422967   -2.728292    0.476113
 ---------------------------------------------------------------------

 SCF Done:  E(RHF) =  -669.536238503     A.U. after   15 cycles
 E2 =    -0.2091823131D+01 EUMP2 =    -0.67162806163352D+03

 The electronic state is 1-A.
 Alpha  occ. eigenvalues --  -20.60915 -20.60897 -15.85938 -11.31230 -11.27805
 Alpha  occ. eigenvalues --  -11.27761 -11.27541 -11.26809 -11.26792 -11.21718
 Alpha  occ. eigenvalues --  -11.21518 -11.21504 -11.21325 -11.21235 -11.20374
 Alpha  occ. eigenvalues --   -1.59967  -1.39524  -1.19403  -1.08814  -1.08438
 Alpha  occ. eigenvalues --   -1.04796  -1.03444  -0.95859  -0.95651  -0.86864
 Alpha  occ. eigenvalues --   -0.86198  -0.82495  -0.79542  -0.78284  -0.77542
 Alpha  occ. eigenvalues --   -0.72169  -0.71279  -0.70514  -0.65088  -0.65055
 Alpha  occ. eigenvalues --   -0.64797  -0.62157  -0.60847  -0.59226  -0.57449
 Alpha  occ. eigenvalues --   -0.55309  -0.55152  -0.53132  -0.52887  -0.52486
 Alpha  occ. eigenvalues --   -0.52264  -0.49814  -0.48921  -0.48916  -0.47824
 Alpha  occ. eigenvalues --   -0.46600  -0.45799  -0.45737  -0.44938  -0.43652
 Alpha  occ. eigenvalues --   -0.37386  -0.36392
 Alpha virt. eigenvalues --    0.04923   0.11230   0.16398   0.20729   0.22908
 Alpha virt. eigenvalues --    0.24144   0.25900   0.26657   0.27556   0.28138
 Alpha virt. eigenvalues --    0.29170   0.30610   0.31484   0.31595   0.32217

 Mulliken charges:
               1
     1  C   -0.170384
     2  C   -0.220615
     3  C   -0.175321
     4  C    0.157539
     5  C   -0.170482
     6  C   -0.218784
     7  H    0.225781
     8  H    0.224072
     9  H    0.284244
    10  H    0.275589
    11  H    0.223587
    12  N    0.489653
    13  O   -0.458800
    14  O   -0.462317
    15  C   -0.297390
    16  C   -0.299502
    17  C   -0.475521
    18  H    0.149561
    19  H    0.143065
    20  H    0.153552
    21  H    0.152094
    22  H    0.152790
    23  H    0.155326
    24  H    0.160931
    25  C   -0.297343
    26  C   -0.300558
    27  C   -0.487425
    28  H    0.151765
    29  H    0.149525
    30  H    0.153605
    31  H    0.139601
    32  H    0.150482
    33  H    0.154276
    34  H    0.187403
 Sum of Mulliken charges =  -0.00000

 Dipole moment (field-independent basis, Debye):
    X=              0.1830    Y=              5.0122    Z=              0.8015  Tot=              5.0792
 Quadrupole moment (field-independent basis, Debye-Ang):
   XX=            -92.1848   YY=            -94.8383   ZZ=            -95.0277
   XY=            -16.1592   XZ=             -4.2554   YZ=              0.2443

 Normal termination of Gaussian 16 at Thu May  6 17:23:08 2021.
