 Gaussian 16, Revision A.03,
 Gaussian 16:  EM64L-G16RevA.03 25-Dec-2016

 -------------
 #p 6-31g* mp2
 -------------

 ------------------------------------------------------
 Input file generated by CHIRIPA (05-May-2021 14:51:09)
 ------------------------------------------------------
 Symbolic Z-matrix:
 Charge =  0 Multiplicity = 1

                         Standard orientation:
 ---------------------------------------------------------------------
 Center     Atomic      Atomic             Coordinates (Angstroms)
 Number     Number       Type             X           Y           Z
 ---------------------------------------------------------------------
      1          6           0        3.894547    0.770619   -0.162131
      2          6           0        3.042371    2.025921    0.027604
      3          6           0        3.873242    3.309444    0.031495
      4          1           0        4.645511    0.720550    0.638176
      5          1           0        4.449604    0.852063   -1.106945
      6          1           0        2.488028    1.941516    0.971106
      7          1           0        2.293224    2.072907   -0.773138
      8          1           0        4.414586    3.420786   -0.913572
      9          1           0        4.610497    3.288649    0.840583
     10          1           0        3.244141    4.194510    0.168426
     11          6           0        3.078170   -0.520590   -0.168219
     12          6           0        3.930346   -1.775891   -0.357954
     13          6           0        3.099475   -3.059415   -0.361845
     14          1           0        2.523113   -0.602034    0.776595
     15          1           0        2.327206   -0.470520   -0.968526
     16          1           0        4.679493   -1.822877    0.442789
     17          1           0        4.484689   -1.691486   -1.301456
     18          1           0        2.362220   -3.038619   -1.170933
     19          1           0        2.558131   -3.170757    0.583222
     20          1           0        3.728576   -3.944481   -0.498776
     21          6           0       -4.207101    0.039188    0.357526
     22          6           0       -5.106565    0.321892   -0.846231
     23          6           0       -6.545372    0.648772   -0.445264
     24          1           0       -4.627717   -0.796638    0.933221
     25          1           0       -4.213493    0.912525    1.024336
     26          1           0       -5.097386   -0.551187   -1.511262
     27          1           0       -4.683656    1.157017   -1.419232
     28          1           0       -6.574113    1.532810    0.199912
     29          1           0       -6.990194   -0.185099    0.107360
     30          1           0       -7.170930    0.847468   -1.321083
     31          6           0       -2.765616   -0.289217   -0.027176
     32          6           0       -1.866152   -0.571921    1.176580
     33          6           0       -0.427345   -0.898802    0.775615
     34          1           0       -2.759224   -1.162555   -0.693987
     35          1           0       -2.345000    0.546608   -0.602871
     36          1           0       -2.289061   -1.407047    1.749582
     37          1           0       -1.875331    0.301157    1.841611
     38          1           0        0.017477   -0.064930    0.222990
     39          1           0       -0.398604   -1.782839    0.130438
     40          1           0        0.198213   -1.097498    1.651432
 ---------------------------------------------------------------------

 SCF Done:  E(RHF) =  -470.732258449     A.U. after   11 cycles
 E2 =    -0.1583666220D+01 EUMP2 =    -0.47231592466893D+03

 The electronic state is 1-A.
 Alpha  occ. eigenvalues --  -11.21598 -11.21589 -11.21529 -11.21515 -11.21381
 Alpha  occ. eigenvalues --  -11.21321 -11.21321 -11.21191 -11.21069 -11.21062
 Alpha  occ. eigenvalues --  -11.21002 -11.20956  -1.08415  -1.08351  -1.03514
 Alpha  occ. eigenvalues --   -1.03462  -0.95986  -0.95888  -0.87024  -0.86896
 Alpha  occ. eigenvalues --   -0.79679  -0.79484  -0.78297  -0.78041  -0.65033
 Alpha  occ. eigenvalues --   -0.65002  -0.60895  -0.60887  -0.59379  -0.59241
 Alpha  occ. eigenvalues --   -0.57591  -0.57525  -0.55246  -0.55194  -0.52772
 Alpha  occ. eigenvalues --   -0.52613  -0.52417  -0.52248  -0.49895  -0.49850
 Alpha  occ. eigenvalues --   -0.47981  -0.47794  -0.46628  -0.46581  -0.45926
 Alpha  occ. eigenvalues --   -0.45692  -0.45635  -0.45397  -0.43733  -0.43653
 Alpha virt. eigenvalues --    0.21743   0.23070   0.23756   0.24336   0.25698
 Alpha virt. eigenvalues --    0.26248   0.26664   0.27711   0.27781   0.29860
 Alpha virt. eigenvalues --    0.30318   0.31056   0.31679   0.32143   0.32342

 Mulliken charges:
               1
     1  C   -0.297673
     2  C   -0.300600
     3  C   -0.475548
     4  H    0.149048
     5  H    0.148901
     6  H    0.152315
     7  H    0.151127
     8  H    0.155264
     9  H    0.155288
    10  H    0.159956
    11  C   -0.302064
    12  C   -0.299500
    13  C   -0.476036
    14  H    0.156668
    15  H    0.150540
    16  H    0.151120
    17  H    0.151145
    18  H    0.155019
    19  H    0.155997
    20  H    0.159589
    21  C   -0.298174
    22  C   -0.299596
    23  C   -0.475679
    24  H    0.149636
    25  H    0.149461
    26  H    0.151856
    27  H    0.151827
    28  H    0.155155
    29  H    0.155170
    30  H    0.160181
    31  C   -0.298456
    32  C   -0.300892
    33  C   -0.476745
    34  H    0.149291
    35  H    0.149380
    36  H    0.151269
    37  H    0.151357
    38  H    0.160104
    39  H    0.155961
    40  H    0.158339
 Sum of Mulliken charges =  -0.00000

 Dipole moment (field-independent basis, Debye):
    X=              0.0037    Y=             -0.0033    Z=              0.0039  Tot=              0.0063
 Quadrupole moment (field-independent basis, Debye-Ang):
   XX=            -86.3662   YY=            -84.9637   ZZ=            -83.7985
   XY=              0.0538   XZ=              0.3381   YZ=             -0.0842

 Normal termination of Gaussian 16 at Wed May  5 18:08:18 2021.
