 Gaussian 16, Revision A.03,
 Gaussian 16:  EM64L-G16RevA.03 25-Dec-2016

 -------------
 #p 6-31g* mp2
 -------------

 ------------------------------------------------------
 Input file generated by CHIRIPA (05-May-2021 14:55:23)
 ------------------------------------------------------
 Symbolic Z-matrix:
 Charge =  0 Multiplicity = 1

                         Standard orientation:
 ---------------------------------------------------------------------
 Center     Atomic      Atomic             Coordinates (Angstroms)
 Number     Number       Type             X           Y           Z
 ---------------------------------------------------------------------
      1          6           0       -3.832381    1.826088    0.412051
      2          6           0       -3.168743    1.190778    1.466796
      3          6           0       -2.401971    0.044829    1.235689
      4          6           0       -2.320256   -0.440825   -0.068440
      5          6           0       -2.969738    0.169700   -1.140224
      6          6           0       -3.730939    1.314423   -0.885805
      7          1           0       -4.425864    2.715813    0.600635
      8          1           0       -3.245734    1.585912    2.475750
      9          1           0       -1.877867   -0.466815    2.033782
     10          1           0       -2.874128   -0.247705   -2.135237
     11          1           0       -4.245245    1.805737   -1.706868
     12          7           0       -1.511458   -1.653342   -0.325442
     13          8           0       -1.455391   -2.061350   -1.483468
     14          8           0       -0.948904   -2.172744    0.636010
     15          6           0        2.844822   -0.314823    0.361238
     16          6           0        3.473717   -1.617261   -0.134878
     17          6           0        2.871620   -2.855353    0.530256
     18          1           0        2.971099   -0.245695    1.450376
     19          1           0        1.762587   -0.343473    0.173247
     20          1           0        4.554648   -1.585586    0.052738
     21          1           0        3.346096   -1.683207   -1.222987
     22          1           0        1.796476   -2.914559    0.332366
     23          1           0        3.011894   -2.816385    1.615339
     24          1           0        3.335705   -3.775208    0.160995
     25          6           0        3.436281    0.931753   -0.294467
     26          6           0        2.807386    2.234191    0.201650
     27          6           0        3.409483    3.472283   -0.463484
     28          1           0        4.518517    0.960402   -0.106476
     29          1           0        3.310004    0.862624   -1.383605
     30          1           0        2.935007    2.300136    1.289758
     31          1           0        1.726455    2.202516    0.014033
     32          1           0        3.269209    3.433315   -1.548567
     33          1           0        4.484627    3.531489   -0.265594
     34          1           0        2.945398    4.392137   -0.094224
 ---------------------------------------------------------------------

 SCF Done:  E(RHF) =  -669.536607546     A.U. after   15 cycles
 E2 =    -0.2091751312D+01 EUMP2 =    -0.67162835885766D+03

 The electronic state is 1-A.
 Alpha  occ. eigenvalues --  -20.61081 -20.61044 -15.86071 -11.31347 -11.27902
 Alpha  occ. eigenvalues --  -11.27894 -11.27629 -11.26895 -11.26884 -11.21326
 Alpha  occ. eigenvalues --  -11.20894 -11.20867 -11.20621 -11.20553 -11.19540
 Alpha  occ. eigenvalues --   -1.60113  -1.39669  -1.19507  -1.08922  -1.07783
 Alpha  occ. eigenvalues --   -1.04894  -1.02799  -0.95772  -0.95228  -0.86298
 Alpha  occ. eigenvalues --   -0.86243  -0.82604  -0.78926  -0.77670  -0.77529
 Alpha  occ. eigenvalues --   -0.72288  -0.71422  -0.70614  -0.65162  -0.64896
 Alpha  occ. eigenvalues --   -0.64418  -0.62240  -0.60192  -0.58692  -0.56830
 Alpha  occ. eigenvalues --   -0.55403  -0.54502  -0.53229  -0.52984  -0.51940
 Alpha  occ. eigenvalues --   -0.51647  -0.49322  -0.49049  -0.48905  -0.47196
 Alpha  occ. eigenvalues --   -0.45973  -0.45344  -0.45052  -0.44665  -0.43073
 Alpha  occ. eigenvalues --   -0.37484  -0.36491
 Alpha virt. eigenvalues --    0.04838   0.11157   0.16324   0.21294   0.23390
 Alpha virt. eigenvalues --    0.25107   0.27093   0.27239   0.27876   0.28292
 Alpha virt. eigenvalues --    0.28902   0.30870   0.32137   0.32234   0.32515

 Mulliken charges:
               1
     1  C   -0.170357
     2  C   -0.218501
     3  C   -0.170445
     4  C    0.157317
     5  C   -0.170766
     6  C   -0.218632
     7  H    0.226283
     8  H    0.224228
     9  H    0.276610
    10  H    0.275874
    11  H    0.224020
    12  N    0.488247
    13  O   -0.458567
    14  O   -0.458636
    15  C   -0.296685
    16  C   -0.298674
    17  C   -0.486891
    18  H    0.146465
    19  H    0.150090
    20  H    0.146200
    21  H    0.151949
    22  H    0.185611
    23  H    0.148237
    24  H    0.154640
    25  C   -0.298004
    26  C   -0.298607
    27  C   -0.475046
    28  H    0.148274
    29  H    0.149502
    30  H    0.150108
    31  H    0.148954
    32  H    0.154813
    33  H    0.155386
    34  H    0.157002
 Sum of Mulliken charges =  -0.00000

 Dipole moment (field-independent basis, Debye):
    X=             -3.1537    Y=              4.1686    Z=              0.8797  Tot=              5.3006
 Quadrupole moment (field-independent basis, Debye-Ang):
   XX=            -82.3594   YY=           -100.3787   ZZ=            -89.8032
   XY=             -9.2549   XZ=             -0.1184   YZ=             -0.4338

 Normal termination of Gaussian 16 at Thu May  6 07:51:10 2021.
