 Gaussian 16, Revision A.03,
 Gaussian 16:  EM64L-G16RevA.03 25-Dec-2016

 -------------
 #p 6-31g* mp2
 -------------

 ------------------------------------------------------
 Input file generated by CHIRIPA (05-May-2021 14:55:23)
 ------------------------------------------------------
 Symbolic Z-matrix:
 Charge =  0 Multiplicity = 1

                         Standard orientation:
 ---------------------------------------------------------------------
 Center     Atomic      Atomic             Coordinates (Angstroms)
 Number     Number       Type             X           Y           Z
 ---------------------------------------------------------------------
      1          6           0        2.907735   -2.357938   -0.614841
      2          6           0        1.992148   -1.509436    0.016242
      3          6           0        2.323170   -0.176643    0.278225
      4          6           0        3.584226    0.276430   -0.106163
      5          6           0        4.518160   -0.544362   -0.736525
      6          6           0        4.165601   -1.873547   -0.988552
      7          1           0        2.642224   -3.391882   -0.814489
      8          1           0        1.014550   -1.882888    0.307584
      9          1           0        1.633512    0.501938    0.765378
     10          1           0        5.485064   -0.143300   -1.015206
     11          1           0        4.878666   -2.530231   -1.478807
     12          7           0        3.946064    1.685488    0.165917
     13          8           0        5.063484    2.060342   -0.182644
     14          8           0        3.105402    2.388374    0.722582
     15          6           0       -5.272059   -0.031906    0.127434
     16          6           0       -5.750685    0.789667   -1.070030
     17          6           0       -7.274560    0.829615   -1.188374
     18          1           0       -5.661497   -1.055526    0.040899
     19          1           0       -5.701273    0.389102    1.047174
     20          1           0       -5.319587    0.368072   -1.987105
     21          1           0       -5.359905    1.811397   -0.980732
     22          1           0       -7.719297    1.270069   -0.290148
     23          1           0       -7.678750   -0.181457   -1.302239
     24          1           0       -7.594844    1.422160   -2.051026
     25          6           0       -3.750893   -0.081245    0.259138
     26          6           0       -3.272267   -0.902819    1.456601
     27          6           0       -1.748392   -0.942767    1.574945
     28          1           0       -3.321679   -0.502254   -0.660603
     29          1           0       -3.361455    0.942373    0.345674
     30          1           0       -3.663047   -1.924549    1.367304
     31          1           0       -3.703366   -0.481224    2.373677
     32          1           0       -1.344203    0.068305    1.688811
     33          1           0       -1.303654   -1.383221    0.676720
     34          1           0       -1.428108   -1.535313    2.437597
 ---------------------------------------------------------------------

 SCF Done:  E(RHF) =  -669.535609464     A.U. after   15 cycles
 E2 =    -0.2090998890D+01 EUMP2 =    -0.67162660835408D+03

 The electronic state is 1-A.
 Alpha  occ. eigenvalues --  -20.60700 -20.60695 -15.85752 -11.31094 -11.27668
 Alpha  occ. eigenvalues --  -11.27638 -11.27401 -11.26685 -11.26612 -11.22267
 Alpha  occ. eigenvalues --  -11.22079 -11.21867 -11.21854 -11.21720 -11.21275
 Alpha  occ. eigenvalues --   -1.59776  -1.39330  -1.19263  -1.08888  -1.08665
 Alpha  occ. eigenvalues --   -1.04660  -1.04035  -0.96513  -0.95504  -0.87546
 Alpha  occ. eigenvalues --   -0.86061  -0.82335  -0.80115  -0.78662  -0.77379
 Alpha  occ. eigenvalues --   -0.71971  -0.71098  -0.70378  -0.65524  -0.64914
 Alpha  occ. eigenvalues --   -0.64676  -0.62042  -0.61415  -0.59885  -0.58091
 Alpha  occ. eigenvalues --   -0.55826  -0.55172  -0.53243  -0.53020  -0.52971
 Alpha  occ. eigenvalues --   -0.52668  -0.50437  -0.48731  -0.48727  -0.48412
 Alpha  occ. eigenvalues --   -0.47116  -0.46214  -0.46109  -0.44740  -0.44267
 Alpha  occ. eigenvalues --   -0.37252  -0.36261
 Alpha virt. eigenvalues --    0.05143   0.11378   0.16624   0.20196   0.22554
 Alpha virt. eigenvalues --    0.23844   0.25375   0.25756   0.27231   0.27801
 Alpha virt. eigenvalues --    0.29150   0.29460   0.31292   0.31474   0.32218

 Mulliken charges:
               1
     1  C   -0.171845
     2  C   -0.224843
     3  C   -0.173935
     4  C    0.158765
     5  C   -0.171169
     6  C   -0.218539
     7  H    0.225384
     8  H    0.232963
     9  H    0.276669
    10  H    0.275200
    11  H    0.222902
    12  N    0.488109
    13  O   -0.460810
    14  O   -0.460711
    15  C   -0.298811
    16  C   -0.300169
    17  C   -0.476007
    18  H    0.149493
    19  H    0.151003
    20  H    0.151855
    21  H    0.153818
    22  H    0.155951
    23  H    0.154959
    24  H    0.161481
    25  C   -0.299519
    26  C   -0.299186
    27  C   -0.483542
    28  H    0.148664
    29  H    0.152831
    30  H    0.152906
    31  H    0.156269
    32  H    0.159487
    33  H    0.147562
    34  H    0.162819
 Sum of Mulliken charges =  -0.00000

 Dipole moment (field-independent basis, Debye):
    X=             -1.4972    Y=             -4.9256    Z=             -0.9195  Tot=              5.2296
 Quadrupole moment (field-independent basis, Debye-Ang):
   XX=           -100.6115   YY=            -97.4131   ZZ=            -94.0338
   XY=            -19.0904   XZ=             -5.8700   YZ=              1.1893

 Normal termination of Gaussian 16 at Thu May  6 12:37:10 2021.
