 Gaussian 16, Revision A.03,
 Gaussian 16:  EM64L-G16RevA.03 25-Dec-2016

 -------------
 #p 6-31g* mp2
 -------------

 ------------------------------------------------------
 Input file generated by CHIRIPA (05-May-2021 14:53:18)
 ------------------------------------------------------
 Symbolic Z-matrix:
 Charge =  0 Multiplicity = 1

                         Standard orientation:
 ---------------------------------------------------------------------
 Center     Atomic      Atomic             Coordinates (Angstroms)
 Number     Number       Type             X           Y           Z
 ---------------------------------------------------------------------
      1          6           0        4.559803    0.166719    0.220495
      2          6           0        5.714708    0.088840   -0.778562
      3          6           0        6.773018    1.167145   -0.543968
      4          1           0        4.094123    1.159674    0.156249
      5          1           0        4.959198    0.074162    1.239961
      6          1           0        5.313100    0.180128   -1.795908
      7          1           0        6.177571   -0.904111   -0.712065
      8          1           0        7.201118    1.074930    0.459439
      9          1           0        6.331736    2.165330   -0.630562
     10          1           0        7.589333    1.093009   -1.269222
     11          6           0        3.493754   -0.904798   -0.001136
     12          6           0        2.338849   -0.826920    0.997920
     13          6           0        1.280539   -1.905225    0.763327
     14          1           0        3.094359   -0.812242   -1.020602
     15          1           0        3.959434   -1.897753    0.063110
     16          1           0        1.875986    0.166031    0.931424
     17          1           0        2.740457   -0.918208    2.015267
     18          1           0        1.721821   -2.903409    0.849920
     19          1           0        0.852439   -1.813010   -0.240081
     20          1           0        0.464224   -1.831089    1.488581
     21          6           0       -2.384810    2.664724    0.287544
     22          6           0       -1.455668    1.619531    0.315602
     23          6           0       -1.866087    0.298974    0.110104
     24          6           0       -3.219502    0.058569   -0.121770
     25          6           0       -4.169296    1.078388   -0.155717
     26          6           0       -3.736277    2.391299    0.052388
     27          1           0       -2.057207    3.687595    0.448193
     28          1           0       -0.405461    1.828916    0.498004
     29          1           0       -1.168011   -0.529179    0.126538
     30          1           0       -5.209454    0.838461   -0.339900
     31          1           0       -4.460087    3.201017    0.030044
     32          7           0       -3.665958   -1.335398   -0.340702
     33          8           0       -4.864008   -1.520851   -0.542993
     34          8           0       -2.809387   -2.216142   -0.305863
 ---------------------------------------------------------------------

 SCF Done:  E(RHF) =  -669.535161477     A.U. after   15 cycles
 E2 =    -0.2092069350D+01 EUMP2 =    -0.67162723082685D+03

 The electronic state is 1-A.
 Alpha  occ. eigenvalues --  -20.60708 -20.60703 -15.85756 -11.31098 -11.27692
 Alpha  occ. eigenvalues --  -11.27593 -11.27441 -11.26709 -11.26686 -11.22234
 Alpha  occ. eigenvalues --  -11.21934 -11.21845 -11.21783 -11.21502 -11.21374
 Alpha  occ. eigenvalues --   -1.59782  -1.39336  -1.19283  -1.08884  -1.08688
 Alpha  occ. eigenvalues --   -1.04691  -1.03974  -0.96408  -0.95518  -0.87422
 Alpha  occ. eigenvalues --   -0.86082  -0.82353  -0.80038  -0.78686  -0.77402
 Alpha  occ. eigenvalues --   -0.71978  -0.71106  -0.70412  -0.65536  -0.64935
 Alpha  occ. eigenvalues --   -0.64709  -0.62206  -0.61251  -0.59747  -0.58006
 Alpha  occ. eigenvalues --   -0.55732  -0.55147  -0.53172  -0.53020  -0.52817
 Alpha  occ. eigenvalues --   -0.52689  -0.50297  -0.48735  -0.48733  -0.48339
 Alpha  occ. eigenvalues --   -0.47079  -0.46228  -0.46147  -0.44746  -0.44209
 Alpha  occ. eigenvalues --   -0.37277  -0.36289
 Alpha virt. eigenvalues --    0.05114   0.11333   0.16617   0.19306   0.22812
 Alpha virt. eigenvalues --    0.23820   0.25204   0.26476   0.26983   0.28278
 Alpha virt. eigenvalues --    0.29201   0.30666   0.31242   0.31375   0.32173

 Mulliken charges:
               1
     1  C   -0.297862
     2  C   -0.300081
     3  C   -0.475838
     4  H    0.145913
     5  H    0.150624
     6  H    0.152568
     7  H    0.153754
     8  H    0.155715
     9  H    0.154134
    10  H    0.161665
    11  C   -0.298813
    12  C   -0.301824
    13  C   -0.487011
    14  H    0.150723
    15  H    0.153595
    16  H    0.140614
    17  H    0.155830
    18  H    0.165486
    19  H    0.158594
    20  H    0.164057
    21  C   -0.170566
    22  C   -0.226350
    23  C   -0.182256
    24  C    0.157352
    25  C   -0.169904
    26  C   -0.219201
    27  H    0.225361
    28  H    0.225657
    29  H    0.294253
    30  H    0.275335
    31  H    0.223105
    32  N    0.486733
    33  O   -0.460701
    34  O   -0.460658
 Sum of Mulliken charges =  -0.00000

 Dipole moment (field-independent basis, Debye):
    X=              1.7361    Y=              4.7415    Z=              0.7753  Tot=              5.1085
 Quadrupole moment (field-independent basis, Debye-Ang):
   XX=           -100.5811   YY=            -94.0091   ZZ=            -95.3645
   XY=            -18.8546   XZ=             -1.8290   YZ=             -1.2850

 Normal termination of Gaussian 16 at Thu May  6 15:40:04 2021.
