 Gaussian 16, Revision A.03,
 Gaussian 16:  EM64L-G16RevA.03 25-Dec-2016

 -------------
 #p 6-31g* mp2
 -------------

 ------------------------------------------------------
 Input file generated by CHIRIPA (05-May-2021 14:57:23)
 ------------------------------------------------------
 Symbolic Z-matrix:
 Charge =  0 Multiplicity = 1

                         Standard orientation:
 ---------------------------------------------------------------------
 Center     Atomic      Atomic             Coordinates (Angstroms)
 Number     Number       Type             X           Y           Z
 ---------------------------------------------------------------------
      1          6           0       -3.699059   -1.865680   -0.423404
      2          6           0       -4.296420   -0.903851    0.397916
      3          6           0       -3.741522    0.374089    0.514128
      4          6           0       -2.583523    0.657345   -0.208432
      5          6           0       -1.964947   -0.279423   -1.034942
      6          6           0       -2.537277   -1.550951   -1.135955
      7          1           0       -4.136888   -2.855924   -0.507777
      8          1           0       -5.198721   -1.145470    0.952460
      9          1           0       -4.183324    1.137698    1.142722
     10          1           0       -1.065965   -0.009021   -1.575434
     11          1           0       -2.071193   -2.295929   -1.774562
     12          7           0       -1.986850    2.006849   -0.093448
     13          8           0       -0.966249    2.231454   -0.740413
     14          8           0       -2.551076    2.814431    0.641464
     15          6           0        0.731938   -1.692957    1.217884
     16          6           0        1.039817   -1.834737   -0.139183
     17          6           0        2.117932   -1.142547   -0.698729
     18          6           0        2.870372   -0.313309    0.131624
     19          6           0        2.588761   -0.151209    1.487245
     20          6           0        1.506028   -0.853126    2.025343
     21          1           0       -0.107361   -2.234445    1.644221
     22          1           0        0.440390   -2.486267   -0.768658
     23          1           0        2.378461   -1.233918   -1.746199
     24          1           0        3.204626    0.505585    2.089534
     25          1           0        1.269249   -0.741090    3.079587
     26          7           0        4.014168    0.424631   -0.449389
     27          8           0        4.661599    1.149013    0.303432
     28          8           0        4.241587    0.264672   -1.646607
 ---------------------------------------------------------------------

 SCF Done:  E(RHF) =  -868.335746527     A.U. after   16 cycles
 E2 =    -0.2602949650D+01 EUMP2 =    -0.87093869617710D+03

 The electronic state is 1-A.
 Alpha  occ. eigenvalues --  -20.61160 -20.61140 -20.60586 -20.60576 -15.86217
 Alpha  occ. eigenvalues --  -15.85646 -11.31755 -11.31150 -11.28397 -11.28392
 Alpha  occ. eigenvalues --  -11.28222 -11.27817 -11.27715 -11.27554 -11.27494
 Alpha  occ. eigenvalues --  -11.27403 -11.26914 -11.26759  -1.60227  -1.59651
 Alpha  occ. eigenvalues --   -1.39774  -1.39204  -1.20004  -1.19357  -1.09356
 Alpha  occ. eigenvalues --   -1.08731  -1.05457  -1.04803  -0.96148  -0.95534
 Alpha  occ. eigenvalues --   -0.86821  -0.86209  -0.82993  -0.82383  -0.78006
 Alpha  occ. eigenvalues --   -0.77390  -0.72430  -0.71871  -0.71559  -0.71099
 Alpha  occ. eigenvalues --   -0.70960  -0.70472  -0.65665  -0.65481  -0.65026
 Alpha  occ. eigenvalues --   -0.64846  -0.62810  -0.62120  -0.55935  -0.55302
 Alpha  occ. eigenvalues --   -0.53917  -0.53580  -0.52927  -0.52887  -0.49206
 Alpha  occ. eigenvalues --   -0.49170  -0.48639  -0.48610  -0.45139  -0.44582
 Alpha  occ. eigenvalues --   -0.38071  -0.37748  -0.36841  -0.36091
 Alpha virt. eigenvalues --    0.04534   0.05145   0.10437   0.11329   0.15904
 Alpha virt. eigenvalues --    0.16559   0.19621   0.21906   0.25162   0.27559
 Alpha virt. eigenvalues --    0.28174   0.28631   0.29453   0.31659   0.32043

 Mulliken charges:
               1
     1  C   -0.172592
     2  C   -0.220540
     3  C   -0.170829
     4  C    0.156003
     5  C   -0.162025
     6  C   -0.228039
     7  H    0.226358
     8  H    0.224944
     9  H    0.277478
    10  H    0.278036
    11  H    0.218642
    12  N    0.487983
    13  O   -0.456166
    14  O   -0.460136
    15  C   -0.168828
    16  C   -0.221829
    17  C   -0.172205
    18  C    0.163619
    19  C   -0.166157
    20  C   -0.218603
    21  H    0.224526
    22  H    0.213999
    23  H    0.274214
    24  H    0.278052
    25  H    0.224450
    26  N    0.488875
    27  O   -0.458252
    28  O   -0.460978
 Sum of Mulliken charges =  -0.00000

 Dipole moment (field-independent basis, Debye):
    X=             -6.0354    Y=             -7.0694    Z=              1.7678  Tot=              9.4619
 Quadrupole moment (field-independent basis, Debye-Ang):
   XX=           -114.8793   YY=           -109.9006   ZZ=            -98.6711
   XY=              4.1907   XZ=              5.2948   YZ=              2.6524

 Normal termination of Gaussian 16 at Thu May  6 03:25:40 2021.
