 Gaussian 16, Revision A.03,
 Gaussian 16:  EM64L-G16RevA.03 25-Dec-2016

 -------------
 #p 6-31g* mp2
 -------------

 ------------------------------------------------------
 Input file generated by CHIRIPA (05-May-2021 14:57:24)
 ------------------------------------------------------
 Symbolic Z-matrix:
 Charge =  0 Multiplicity = 1

                         Standard orientation:
 ---------------------------------------------------------------------
 Center     Atomic      Atomic             Coordinates (Angstroms)
 Number     Number       Type             X           Y           Z
 ---------------------------------------------------------------------
      1          6           0       -2.485347    1.470299   -0.091139
      2          6           0       -3.737476    2.080759    0.035484
      3          6           0       -4.902491    1.309111    0.078470
      4          6           0       -4.778028   -0.076638   -0.008131
      5          6           0       -3.544925   -0.714355   -0.134871
      6          6           0       -2.393230    0.077147   -0.175763
      7          1           0       -1.585510    2.077446   -0.123719
      8          1           0       -3.812038    3.162488    0.101416
      9          1           0       -5.884575    1.755677    0.175984
     10          1           0       -3.502451   -1.794902   -0.198365
     11          1           0       -1.422145   -0.399673   -0.274154
     12          7           0       -6.004326   -0.904056    0.036268
     13          8           0       -5.867781   -2.123023   -0.041909
     14          8           0       -7.078824   -0.317952    0.148405
     15          6           0        2.076804    0.287181    0.016812
     16          6           0        2.773304    0.218375   -1.194251
     17          6           0        4.158058    0.026429   -1.207004
     18          6           0        4.817524   -0.093269    0.015316
     19          6           0        4.151699   -0.028998    1.238360
     20          6           0        2.767008    0.163493    1.227119
     21          1           0        1.001119    0.436501    0.017400
     22          1           0        2.239892    0.314106   -2.135714
     23          1           0        4.722072   -0.030616   -2.130070
     24          1           0        4.710914   -0.127873    2.160814
     25          1           0        2.228698    0.216532    2.169167
     26          7           0        6.283467   -0.296763    0.014516
     27          8           0        6.841256   -0.399308    1.104926
     28          8           0        6.846929   -0.349863   -1.076506
 ---------------------------------------------------------------------

 SCF Done:  E(RHF) =  -868.336258462     A.U. after   16 cycles
 E2 =    -0.2599780876D+01 EUMP2 =    -0.87093603933788D+03

 The electronic state is 1-A.
 Alpha  occ. eigenvalues --  -20.61369 -20.61363 -20.61311 -20.61305 -15.86430
 Alpha  occ. eigenvalues --  -15.86368 -11.31957 -11.31901 -11.28586 -11.28523
 Alpha  occ. eigenvalues --  -11.28461 -11.28453 -11.28423 -11.28408 -11.27737
 Alpha  occ. eigenvalues --  -11.27588 -11.27580 -11.27568  -1.60441  -1.60381
 Alpha  occ. eigenvalues --   -1.39989  -1.39930  -1.20168  -1.20095  -1.09557
 Alpha  occ. eigenvalues --   -1.09492  -1.05598  -1.05507  -0.96357  -0.96293
 Alpha  occ. eigenvalues --   -0.87012  -0.86916  -0.83177  -0.83112  -0.78183
 Alpha  occ. eigenvalues --   -0.78098  -0.72647  -0.72585  -0.71766  -0.71705
 Alpha  occ. eigenvalues --   -0.71431  -0.71202  -0.65836  -0.65760  -0.65671
 Alpha  occ. eigenvalues --   -0.65489  -0.62945  -0.62838  -0.56159  -0.56143
 Alpha  occ. eigenvalues --   -0.53914  -0.53847  -0.53688  -0.53608  -0.49420
 Alpha  occ. eigenvalues --   -0.49388  -0.49356  -0.49328  -0.45358  -0.45297
 Alpha  occ. eigenvalues --   -0.38186  -0.38139  -0.37192  -0.37093
 Alpha virt. eigenvalues --    0.04367   0.04400   0.10435   0.10546   0.15779
 Alpha virt. eigenvalues --    0.15809   0.17234   0.21991   0.24674   0.26598
 Alpha virt. eigenvalues --    0.26935   0.29214   0.29971   0.30730   0.31889

 Mulliken charges:
               1
     1  C   -0.172379
     2  C   -0.217975
     3  C   -0.169738
     4  C    0.159311
     5  C   -0.169355
     6  C   -0.222734
     7  H    0.221154
     8  H    0.226175
     9  H    0.278399
    10  H    0.278120
    11  H    0.217731
    12  N    0.487834
    13  O   -0.458670
    14  O   -0.458126
    15  C   -0.176632
    16  C   -0.218986
    17  C   -0.169991
    18  C    0.159744
    19  C   -0.169997
    20  C   -0.218812
    21  H    0.218647
    22  H    0.223789
    23  H    0.278031
    24  H    0.278130
    25  H    0.225289
    26  N    0.487810
    27  O   -0.458325
    28  O   -0.458446
 Sum of Mulliken charges =  -0.00000

 Dipole moment (field-independent basis, Debye):
    X=             -0.8520    Y=              3.6154    Z=             -0.1293  Tot=              3.7167
 Quadrupole moment (field-independent basis, Debye-Ang):
   XX=           -192.8274   YY=           -102.8803   ZZ=           -100.4759
   XY=            -13.1853   XZ=              0.3625   YZ=              0.2989

 Normal termination of Gaussian 16 at Fri May  7 01:50:42 2021.
