 Gaussian 16, Revision A.03,
 Gaussian 16:  EM64L-G16RevA.03 25-Dec-2016

 -------------
 #p 6-31g* mp2
 -------------

 ------------------------------------------------------
 Input file generated by CHIRIPA (05-May-2021 14:53:12)
 ------------------------------------------------------
 Symbolic Z-matrix:
 Charge =  0 Multiplicity = 1

                         Standard orientation:
 ---------------------------------------------------------------------
 Center     Atomic      Atomic             Coordinates (Angstroms)
 Number     Number       Type             X           Y           Z
 ---------------------------------------------------------------------
      1          6           0        3.326444    0.858337   -0.342709
      2          6           0        2.024783    1.480302    0.164068
      3          6           0        1.772372    2.874205   -0.411360
      4          1           0        4.165446    1.519736   -0.086640
      5          1           0        3.295518    0.803094   -1.439699
      6          1           0        2.057581    1.533085    1.259857
      7          1           0        1.188803    0.817253   -0.093069
      8          1           0        1.713102    2.835039   -1.503859
      9          1           0        2.586816    3.554938   -0.143245
     10          1           0        0.836712    3.300144   -0.035892
     11          6           0        3.592702   -0.535243    0.223656
     12          6           0        4.894364   -1.157208   -0.283121
     13          6           0        5.146774   -2.551111    0.292306
     14          1           0        3.623629   -0.479999    1.320645
     15          1           0        2.753700   -1.196642   -0.032414
     16          1           0        5.730343   -0.494159   -0.025984
     17          1           0        4.861566   -1.209991   -1.378911
     18          1           0        4.332331   -3.231843    0.024192
     19          1           0        5.206045   -2.511944    1.384805
     20          1           0        6.082435   -2.977050   -0.083161
     21          6           0       -1.844833    2.214481    0.435096
     22          6           0       -2.054151    1.356573    1.519854
     23          6           0       -2.529249    0.057566    1.316360
     24          6           0       -2.785736   -0.352498    0.008938
     25          6           0       -2.587243    0.478716   -1.092412
     26          6           0       -2.111576    1.773592   -0.865283
     27          1           0       -1.475544    3.221975    0.602356
     28          1           0       -1.847853    1.696272    2.530839
     29          1           0       -2.700171   -0.627368    2.137985
     30          1           0       -2.801932    0.111625   -2.088692
     31          1           0       -1.949947    2.437676   -1.709625
     32          7           0       -3.289002   -1.725511   -0.219004
     33          8           0       -3.507334   -2.062748   -1.380571
     34          8           0       -3.455600   -2.438445    0.768219
 ---------------------------------------------------------------------

 SCF Done:  E(RHF) =  -669.534940433     A.U. after   15 cycles
 E2 =    -0.2092591958D+01 EUMP2 =    -0.67162753239140D+03

 The electronic state is 1-A.
 Alpha  occ. eigenvalues --  -20.60797 -20.60792 -15.85852 -11.31224 -11.27801
 Alpha  occ. eigenvalues --  -11.27793 -11.27538 -11.26812 -11.26802 -11.22029
 Alpha  occ. eigenvalues --  -11.21801 -11.21743 -11.21712 -11.21573 -11.21133
 Alpha  occ. eigenvalues --   -1.59873  -1.39426  -1.19406  -1.08820  -1.08706
 Alpha  occ. eigenvalues --   -1.04805  -1.03859  -0.96341  -0.95625  -0.87353
 Alpha  occ. eigenvalues --   -0.86200  -0.82463  -0.79921  -0.78508  -0.77502
 Alpha  occ. eigenvalues --   -0.72070  -0.71198  -0.70553  -0.65352  -0.65056
 Alpha  occ. eigenvalues --   -0.64806  -0.62150  -0.61252  -0.59783  -0.57968
 Alpha  occ. eigenvalues --   -0.55613  -0.55338  -0.53238  -0.52924  -0.52893
 Alpha  occ. eigenvalues --   -0.52683  -0.50254  -0.48829  -0.48824  -0.48233
 Alpha  occ. eigenvalues --   -0.46930  -0.46055  -0.45960  -0.44831  -0.44115
 Alpha  occ. eigenvalues --   -0.37331  -0.36405
 Alpha virt. eigenvalues --    0.05003   0.11211   0.16412   0.20499   0.22748
 Alpha virt. eigenvalues --    0.24209   0.26307   0.26490   0.26941   0.27510
 Alpha virt. eigenvalues --    0.28524   0.30279   0.31074   0.31678   0.32450

 Mulliken charges:
               1
     1  C   -0.298757
     2  C   -0.301018
     3  C   -0.474626
     4  H    0.149347
     5  H    0.149988
     6  H    0.149263
     7  H    0.158728
     8  H    0.155018
     9  H    0.156943
    10  H    0.147281
    11  C   -0.298832
    12  C   -0.299894
    13  C   -0.476129
    14  H    0.149013
    15  H    0.152252
    16  H    0.151424
    17  H    0.152481
    18  H    0.157344
    19  H    0.155013
    20  H    0.160801
    21  C   -0.167356
    22  C   -0.218939
    23  C   -0.170872
    24  C    0.158300
    25  C   -0.171921
    26  C   -0.218168
    27  H    0.226289
    28  H    0.223785
    29  H    0.275821
    30  H    0.275692
    31  H    0.224437
    32  N    0.488052
    33  O   -0.460500
    34  O   -0.460259
 Sum of Mulliken charges =  -0.00000

 Dipole moment (field-independent basis, Debye):
    X=              1.7866    Y=              4.7534    Z=              0.8014  Tot=              5.1409
 Quadrupole moment (field-independent basis, Debye-Ang):
   XX=           -105.2419   YY=            -99.7939   ZZ=            -89.3746
   XY=            -13.9311   XZ=             -1.8599   YZ=             -0.5406

 Normal termination of Gaussian 16 at Thu May  6 11:59:54 2021.
