 Gaussian 16, Revision A.03,
 Gaussian 16:  EM64L-G16RevA.03 25-Dec-2016

 -------------
 #p 6-31g* mp2
 -------------

 ------------------------------------------------------
 Input file generated by CHIRIPA (05-May-2021 14:53:13)
 ------------------------------------------------------
 Symbolic Z-matrix:
 Charge =  0 Multiplicity = 1

                         Standard orientation:
 ---------------------------------------------------------------------
 Center     Atomic      Atomic             Coordinates (Angstroms)
 Number     Number       Type             X           Y           Z
 ---------------------------------------------------------------------
      1          6           0       -3.322216    0.900931   -0.110761
      2          6           0       -2.524408    1.486372   -1.276414
      3          6           0       -2.620483    3.010454   -1.352155
      4          1           0       -4.375057    1.198953   -0.209015
      5          1           0       -2.959715    1.339276    0.829368
      6          1           0       -2.887373    1.046019   -2.213944
      7          1           0       -1.473379    1.186763   -1.175477
      8          1           0       -2.239612    3.466634   -0.432678
      9          1           0       -3.661640    3.325091   -1.477045
     10          1           0       -2.042839    3.407860   -2.192546
     11          6           0       -3.235995   -0.621691   -0.021799
     12          6           0       -4.033803   -1.207132    1.143854
     13          6           0       -3.937728   -2.731214    1.219595
     14          1           0       -3.598496   -1.060036   -0.961928
     15          1           0       -2.183154   -0.919713    0.076455
     16          1           0       -5.084832   -0.907523    1.042917
     17          1           0       -3.670838   -0.766779    2.081383
     18          1           0       -2.896571   -3.045851    1.344485
     19          1           0       -4.318599   -3.187394    0.300118
     20          1           0       -4.515372   -3.128620    2.059985
     21          6           0        2.536506    1.999990    1.436381
     22          6           0        1.358291    1.541131    0.838235
     23          6           0        1.360562    0.373779    0.068928
     24          6           0        2.564247   -0.312975   -0.082077
     25          6           0        3.754517    0.118720    0.501178
     26          6           0        3.728757    1.288574    1.266244
     27          1           0        2.525619    2.907788    2.032350
     28          1           0        0.430911    2.091588    0.968654
     29          1           0        0.462886   -0.003935   -0.405337
     30          1           0        4.663562   -0.451489    0.353134
     31          1           0        4.645290    1.642573    1.729598
     32          7           0        2.579084   -1.550123   -0.894262
     33          8           0        3.652545   -2.137014   -1.012070
     34          8           0        1.516973   -1.909483   -1.397667
 ---------------------------------------------------------------------

 SCF Done:  E(RHF) =  -669.535328485     A.U. after   15 cycles
 E2 =    -0.2092185818D+01 EUMP2 =    -0.67162751430242D+03

 The electronic state is 1-A.
 Alpha  occ. eigenvalues --  -20.60771 -20.60766 -15.85823 -11.31192 -11.27764
 Alpha  occ. eigenvalues --  -11.27746 -11.27509 -11.26786 -11.26774 -11.22243
 Alpha  occ. eigenvalues --  -11.21899 -11.21781 -11.21707 -11.21656 -11.21053
 Alpha  occ. eigenvalues --   -1.59846  -1.39399  -1.19368  -1.08846  -1.08762
 Alpha  occ. eigenvalues --   -1.04776  -1.03899  -0.96332  -0.95597  -0.87346
 Alpha  occ. eigenvalues --   -0.86171  -0.82431  -0.79986  -0.78622  -0.77472
 Alpha  occ. eigenvalues --   -0.72042  -0.71169  -0.70491  -0.65535  -0.65012
 Alpha  occ. eigenvalues --   -0.64777  -0.62172  -0.61250  -0.59710  -0.57928
 Alpha  occ. eigenvalues --   -0.55630  -0.55276  -0.53101  -0.53036  -0.52863
 Alpha  occ. eigenvalues --   -0.52734  -0.50285  -0.48801  -0.48799  -0.48274
 Alpha  occ. eigenvalues --   -0.47043  -0.46138  -0.46068  -0.44803  -0.44152
 Alpha  occ. eigenvalues --   -0.37349  -0.36372
 Alpha virt. eigenvalues --    0.05038   0.11258   0.16519   0.18427   0.23095
 Alpha virt. eigenvalues --    0.23438   0.24395   0.26020   0.27619   0.28317
 Alpha virt. eigenvalues --    0.29631   0.30890   0.31318   0.31599   0.32340

 Mulliken charges:
               1
     1  C   -0.299116
     2  C   -0.304696
     3  C   -0.475466
     4  H    0.153034
     5  H    0.143498
     6  H    0.159889
     7  H    0.145488
     8  H    0.148271
     9  H    0.159166
    10  H    0.163622
    11  C   -0.301437
    12  C   -0.299815
    13  C   -0.476398
    14  H    0.154838
    15  H    0.150936
    16  H    0.152238
    17  H    0.149837
    18  H    0.159022
    19  H    0.157473
    20  H    0.160097
    21  C   -0.170795
    22  C   -0.222142
    23  C   -0.182497
    24  C    0.160664
    25  C   -0.170342
    26  C   -0.218703
    27  H    0.225754
    28  H    0.225223
    29  H    0.286274
    30  H    0.275642
    31  H    0.223570
    32  N    0.487555
    33  O   -0.460351
    34  O   -0.460331
 Sum of Mulliken charges =  -0.00000

 Dipole moment (field-independent basis, Debye):
    X=             -0.1824    Y=              4.2785    Z=              2.7806  Tot=              5.1060
 Quadrupole moment (field-independent basis, Debye-Ang):
   XX=            -88.8679   YY=            -99.1967   ZZ=            -95.3861
   XY=             10.9371   XZ=              9.3421   YZ=             -1.1412

 Normal termination of Gaussian 16 at Thu May  6 12:05:22 2021.
