 Gaussian 16, Revision A.03,
 Gaussian 16:  EM64L-G16RevA.03 25-Dec-2016

 -------------
 #p 6-31g* mp2
 -------------

 ------------------------------------------------------
 Input file generated by CHIRIPA (05-May-2021 14:53:13)
 ------------------------------------------------------
 Symbolic Z-matrix:
 Charge =  0 Multiplicity = 1

                         Standard orientation:
 ---------------------------------------------------------------------
 Center     Atomic      Atomic             Coordinates (Angstroms)
 Number     Number       Type             X           Y           Z
 ---------------------------------------------------------------------
      1          6           0        3.326481   -0.173010    0.054258
      2          6           0        3.132206   -1.426771   -0.799162
      3          6           0        3.753296   -2.673385   -0.168295
      4          1           0        4.400957   -0.008515    0.213592
      5          1           0        2.885528   -0.341403    1.046528
      6          1           0        3.572174   -1.255561   -1.789986
      7          1           0        2.058074   -1.588193   -0.956643
      8          1           0        3.307607   -2.871956    0.811773
      9          1           0        4.830309   -2.537434   -0.026305
     10          1           0        3.602710   -3.557952   -0.794973
     11          6           0        2.711048    1.081473   -0.563190
     12          6           0        2.905322    2.335234    0.290231
     13          6           0        2.284232    3.581848   -0.340637
     14          1           0        3.152001    1.249866   -1.555460
     15          1           0        1.636571    0.916977   -0.722524
     16          1           0        3.979454    2.496655    0.447712
     17          1           0        2.465355    2.164023    1.281054
     18          1           0        1.207219    3.445896   -0.482627
     19          1           0        2.729921    3.780418   -1.320704
     20          1           0        2.434819    4.466414    0.286042
     21          6           0       -4.425166    0.721696   -0.768385
     22          6           0       -3.850678    1.233491    0.399754
     23          6           0       -2.705509    0.645014    0.944574
     24          6           0       -2.158603   -0.458946    0.292306
     25          6           0       -2.707708   -0.992000   -0.872867
     26          6           0       -3.852856   -0.387462   -1.399855
     27          1           0       -5.314754    1.185076   -1.184689
     28          1           0       -4.292987    2.094774    0.892300
     29          1           0       -2.240226    1.020812    1.847739
     30          1           0       -2.244085   -1.851661   -1.341328
     31          1           0       -4.296860   -0.787069   -2.307170
     32          7           0       -0.946275   -1.090442    0.859642
     33          8           0       -0.483621   -2.062112    0.265970
     34          8           0       -0.481660   -0.601782    1.887252
 ---------------------------------------------------------------------

 SCF Done:  E(RHF) =  -669.536689607     A.U. after   15 cycles
 E2 =    -0.2092022845D+01 EUMP2 =    -0.67162871245215D+03

 The electronic state is 1-A.
 Alpha  occ. eigenvalues --  -20.61100 -20.61094 -15.86110 -11.31376 -11.27929
 Alpha  occ. eigenvalues --  -11.27925 -11.27655 -11.26921 -11.26911 -11.20879
 Alpha  occ. eigenvalues --  -11.20625 -11.20525 -11.20159 -11.20087 -11.19712
 Alpha  occ. eigenvalues --   -1.60147  -1.39704  -1.19536  -1.08952  -1.07387
 Alpha  occ. eigenvalues --   -1.04922  -1.02501  -0.95802  -0.94997  -0.86325
 Alpha  occ. eigenvalues --   -0.86018  -0.82636  -0.78619  -0.77699  -0.77150
 Alpha  occ. eigenvalues --   -0.72328  -0.71461  -0.70643  -0.65191  -0.64925
 Alpha  occ. eigenvalues --   -0.63990  -0.62269  -0.59873  -0.58413  -0.56595
 Alpha  occ. eigenvalues --   -0.55428  -0.54282  -0.53256  -0.53012  -0.51725
 Alpha  occ. eigenvalues --   -0.51426  -0.49129  -0.49097  -0.48890  -0.46944
 Alpha  occ. eigenvalues --   -0.45713  -0.45199  -0.44682  -0.44370  -0.42762
 Alpha  occ. eigenvalues --   -0.37510  -0.36519
 Alpha virt. eigenvalues --    0.04780   0.11135   0.16257   0.21257   0.23719
 Alpha virt. eigenvalues --    0.25378   0.27202   0.27396   0.28294   0.28489
 Alpha virt. eigenvalues --    0.28850   0.30927   0.32112   0.32446   0.32793

 Mulliken charges:
               1
     1  C   -0.301714
     2  C   -0.304645
     3  C   -0.474724
     4  H    0.143517
     5  H    0.164112
     6  H    0.141928
     7  H    0.168819
     8  H    0.164025
     9  H    0.147769
    10  H    0.155880
    11  C   -0.294434
    12  C   -0.300377
    13  C   -0.474629
    14  H    0.145140
    15  H    0.143905
    16  H    0.150387
    17  H    0.156973
    18  H    0.151008
    19  H    0.153430
    20  H    0.157560
    21  C   -0.170296
    22  C   -0.218541
    23  C   -0.170763
    24  C    0.157665
    25  C   -0.170556
    26  C   -0.218511
    27  H    0.226421
    28  H    0.224246
    29  H    0.275972
    30  H    0.276073
    31  H    0.224241
    32  N    0.488667
    33  O   -0.458951
    34  O   -0.459597
 Sum of Mulliken charges =  -0.00000

 Dipole moment (field-independent basis, Debye):
    X=             -4.5795    Y=              2.0907    Z=             -1.8385  Tot=              5.3594
 Quadrupole moment (field-independent basis, Debye-Ang):
   XX=            -77.1504   YY=            -96.3930   ZZ=            -93.4529
   XY=             -2.5163   XZ=              3.2309   YZ=              4.6935

 Normal termination of Gaussian 16 at Wed May  5 18:34:54 2021.
