 Gaussian 16, Revision A.03,
 Gaussian 16:  EM64L-G16RevA.03 25-Dec-2016

 -------------
 #p 6-31g* mp2
 -------------

 ------------------------------------------------------
 Input file generated by CHIRIPA (05-May-2021 14:51:08)
 ------------------------------------------------------
 Symbolic Z-matrix:
 Charge =  0 Multiplicity = 1

                         Standard orientation:
 ---------------------------------------------------------------------
 Center     Atomic      Atomic             Coordinates (Angstroms)
 Number     Number       Type             X           Y           Z
 ---------------------------------------------------------------------
      1          6           0       -2.041140    1.325088    0.456154
      2          6           0       -1.156459    2.288756   -0.335469
      3          6           0       -0.140136    3.016805    0.544772
      4          1           0       -2.567972    1.882908    1.242431
      5          1           0       -1.404445    0.589932    0.967584
      6          1           0       -1.794714    3.021034   -0.846366
      7          1           0       -0.631818    1.728610   -1.120075
      8          1           0        0.520511    2.300403    1.043687
      9          1           0       -0.648992    3.600170    1.318951
     10          1           0        0.481764    3.700523   -0.041427
     11          6           0       -3.062271    0.589737   -0.410032
     12          6           0       -3.946952   -0.373931    0.381592
     13          6           0       -4.963275   -1.101980   -0.498650
     14          1           0       -3.698966    1.324892   -0.921461
     15          1           0       -2.535439    0.031917   -1.196308
     16          1           0       -4.471592    0.186214    1.166198
     17          1           0       -3.308697   -1.106209    0.892489
     18          1           0       -4.454419   -1.685345   -1.272828
     19          1           0       -5.623922   -0.385578   -0.997564
     20          1           0       -5.585175   -1.785698    0.087550
     21          6           0        2.860232   -0.314112   -0.295840
     22          6           0        4.310116   -0.103884    0.141912
     23          6           0        4.913501    1.187295   -0.411782
     24          1           0        2.813474   -0.327035   -1.393379
     25          1           0        2.257307    0.543788    0.032619
     26          1           0        4.909856   -0.962578   -0.186070
     27          1           0        4.353455   -0.091652    1.238538
     28          1           0        4.339975    2.056445   -0.073778
     29          1           0        4.899538    1.180570   -1.506479
     30          1           0        5.950355    1.317649   -0.086515
     31          6           0        2.243179   -1.600713    0.249718
     32          6           0        0.793295   -1.810941   -0.188035
     33          6           0        0.189910   -3.102120    0.365660
     34          1           0        2.846104   -2.458612   -0.078742
     35          1           0        2.289937   -1.587790    1.347256
     36          1           0        0.749956   -1.823172   -1.284661
     37          1           0        0.193555   -0.952246    0.139947
     38          1           0        0.203873   -3.095395    1.460356
     39          1           0        0.763436   -3.971270    0.027656
     40          1           0       -0.846945   -3.232473    0.040392
 ---------------------------------------------------------------------

 SCF Done:  E(RHF) =  -470.733177164     A.U. after   11 cycles
 E2 =    -0.1584332189D+01 EUMP2 =    -0.47231750935287D+03

 The electronic state is 1-A.
 Alpha  occ. eigenvalues --  -11.21658 -11.21620 -11.21612 -11.21602 -11.21446
 Alpha  occ. eigenvalues --  -11.21411 -11.21383 -11.21350 -11.21147 -11.21123
 Alpha  occ. eigenvalues --  -11.21074 -11.21071  -1.08502  -1.08419  -1.03574
 Alpha  occ. eigenvalues --   -1.03546  -0.96036  -0.95984  -0.87056  -0.86996
 Alpha  occ. eigenvalues --   -0.79647  -0.79601  -0.78321  -0.78231  -0.65364
 Alpha  occ. eigenvalues --   -0.64862  -0.60999  -0.60922  -0.59386  -0.59364
 Alpha  occ. eigenvalues --   -0.57644  -0.57599  -0.55448  -0.55160  -0.52713
 Alpha  occ. eigenvalues --   -0.52692  -0.52477  -0.52392  -0.50106  -0.49814
 Alpha  occ. eigenvalues --   -0.47987  -0.47897  -0.46773  -0.46622  -0.46037
 Alpha  occ. eigenvalues --   -0.45842  -0.45706  -0.45344  -0.43825  -0.43797
 Alpha virt. eigenvalues --    0.19229   0.21904   0.23748   0.24741   0.26184
 Alpha virt. eigenvalues --    0.26329   0.27144   0.27781   0.28024   0.29829
 Alpha virt. eigenvalues --    0.30923   0.31423   0.31729   0.32004   0.32666

 Mulliken charges:
               1
     1  C   -0.302469
     2  C   -0.301539
     3  C   -0.478310
     4  H    0.150239
     5  H    0.152260
     6  H    0.152350
     7  H    0.154227
     8  H    0.156113
     9  H    0.155489
    10  H    0.160701
    11  C   -0.299080
    12  C   -0.300678
    13  C   -0.475705
    14  H    0.149633
    15  H    0.150978
    16  H    0.151918
    17  H    0.152810
    18  H    0.155026
    19  H    0.155226
    20  H    0.160335
    21  C   -0.304474
    22  C   -0.299391
    23  C   -0.475953
    24  H    0.149633
    25  H    0.155292
    26  H    0.152020
    27  H    0.151914
    28  H    0.155817
    29  H    0.155102
    30  H    0.160290
    31  C   -0.297592
    32  C   -0.309135
    33  C   -0.476179
    34  H    0.149918
    35  H    0.149428
    36  H    0.151831
    37  H    0.160425
    38  H    0.155255
    39  H    0.155840
    40  H    0.160435
 Sum of Mulliken charges =  -0.00000

 Dipole moment (field-independent basis, Debye):
    X=              0.0024    Y=              0.0072    Z=             -0.0081  Tot=              0.0111
 Quadrupole moment (field-independent basis, Debye-Ang):
   XX=            -85.1637   YY=            -85.1092   ZZ=            -84.4235
   XY=             -1.6800   XZ=             -0.5803   YZ=              0.5140

 Normal termination of Gaussian 16 at Thu May  6 10:01:54 2021.
