 Gaussian 16, Revision A.03,
 Gaussian 16:  EM64L-G16RevA.03 25-Dec-2016

 -------------
 #p 6-31g* mp2
 -------------

 ------------------------------------------------------
 Input file generated by CHIRIPA (05-May-2021 14:55:25)
 ------------------------------------------------------
 Symbolic Z-matrix:
 Charge =  0 Multiplicity = 1

                         Standard orientation:
 ---------------------------------------------------------------------
 Center     Atomic      Atomic             Coordinates (Angstroms)
 Number     Number       Type             X           Y           Z
 ---------------------------------------------------------------------
      1          6           0        0.869812    0.811555    0.339094
      2          6           0        1.589411    0.338116    1.441162
      3          6           0        2.890997   -0.147358    1.283885
      4          6           0        3.444647   -0.144781    0.004527
      5          6           0        2.753219    0.320238   -1.113048
      6          6           0        1.452985    0.801123   -0.932253
      7          1           0       -0.140767    1.186900    0.470405
      8          1           0        1.139043    0.345018    2.429679
      9          1           0        3.470610   -0.519773    2.119811
     10          1           0        3.228851    0.300718   -2.086091
     11          1           0        0.896496    1.168185   -1.789942
     12          7           0        4.821863   -0.656301   -0.174424
     13          8           0        5.287101   -0.643360   -1.311975
     14          8           0        5.410008   -1.060487    0.826254
     15          6           0       -4.366811   -0.551880    0.311170
     16          6           0       -4.956420   -1.592373   -0.641571
     17          6           0       -5.448606   -2.845613    0.082954
     18          1           0       -3.535944   -1.004461    0.869539
     19          1           0       -5.126976   -0.272484    1.053789
     20          1           0       -4.195813   -1.868700   -1.383014
     21          1           0       -5.785858   -1.137206   -1.197874
     22          1           0       -6.225844   -2.589849    0.810339
     23          1           0       -4.626766   -3.325498    0.624147
     24          1           0       -5.866155   -3.576082   -0.616993
     25          6           0       -3.870412    0.706699   -0.398264
     26          6           0       -3.280803    1.747192    0.554479
     27          6           0       -2.788617    3.000432   -0.170048
     28          1           0       -3.110247    0.427303   -1.140882
     29          1           0       -4.701280    1.159279   -0.956632
     30          1           0       -2.451366    1.292026    1.110782
     31          1           0       -4.041410    2.023519    1.295921
     32          1           0       -3.610458    3.480317   -0.711240
     33          1           0       -2.011379    2.744667   -0.897431
     34          1           0       -2.371068    3.730902    0.529901
 ---------------------------------------------------------------------

 SCF Done:  E(RHF) =  -669.535406997     A.U. after   15 cycles
 E2 =    -0.2091492933D+01 EUMP2 =    -0.67162689992964D+03

 The electronic state is 1-A.
 Alpha  occ. eigenvalues --  -20.60742 -20.60737 -15.85796 -11.31157 -11.27732
 Alpha  occ. eigenvalues --  -11.27728 -11.27428 -11.26742 -11.26730 -11.22877
 Alpha  occ. eigenvalues --  -11.22405 -11.22340 -11.22255 -11.22179 -11.21592
 Alpha  occ. eigenvalues --   -1.59818  -1.39371  -1.19330  -1.09384  -1.08722
 Alpha  occ. eigenvalues --   -1.04736  -1.04470  -0.96897  -0.95559  -0.87909
 Alpha  occ. eigenvalues --   -0.86132  -0.82397  -0.80551  -0.79143  -0.77444
 Alpha  occ. eigenvalues --   -0.72014  -0.71141  -0.70481  -0.66027  -0.64982
 Alpha  occ. eigenvalues --   -0.64740  -0.62089  -0.61887  -0.60287  -0.58489
 Alpha  occ. eigenvalues --   -0.56248  -0.55138  -0.53588  -0.53302  -0.53063
 Alpha  occ. eigenvalues --   -0.52827  -0.50858  -0.48846  -0.48770  -0.48768
 Alpha  occ. eigenvalues --   -0.47615  -0.46683  -0.46589  -0.44778  -0.44697
 Alpha  occ. eigenvalues --   -0.37304  -0.36344
 Alpha virt. eigenvalues --    0.05091   0.11306   0.16561   0.18437   0.22715
 Alpha virt. eigenvalues --    0.23867   0.25031   0.25613   0.26982   0.27773
 Alpha virt. eigenvalues --    0.29083   0.30120   0.30696   0.31260   0.31826

 Mulliken charges:
               1
     1  C   -0.179469
     2  C   -0.221637
     3  C   -0.170587
     4  C    0.158131
     5  C   -0.170576
     6  C   -0.221720
     7  H    0.240739
     8  H    0.223279
     9  H    0.275488
    10  H    0.275468
    11  H    0.223213
    12  N    0.488002
    13  O   -0.460521
    14  O   -0.460526
    15  C   -0.298676
    16  C   -0.300358
    17  C   -0.476284
    18  H    0.148786
    19  H    0.151599
    20  H    0.152747
    21  H    0.153319
    22  H    0.156009
    23  H    0.155986
    24  H    0.162606
    25  C   -0.298320
    26  C   -0.305056
    27  C   -0.478172
    28  H    0.146776
    29  H    0.153973
    30  H    0.142544
    31  H    0.159141
    32  H    0.162740
    33  H    0.147763
    34  H    0.163597
 Sum of Mulliken charges =  -0.00000

 Dipole moment (field-independent basis, Debye):
    X=             -5.1285    Y=              1.8084    Z=              0.6213  Tot=              5.4734
 Quadrupole moment (field-independent basis, Debye-Ang):
   XX=           -127.0528   YY=            -96.2975   ZZ=            -90.1054
   XY=              5.9448   XZ=              2.5790   YZ=             -0.7508

 Normal termination of Gaussian 16 at Wed May  5 16:07:01 2021.
