 Gaussian 16, Revision A.03,
 Gaussian 16:  EM64L-G16RevA.03 25-Dec-2016

 -------------
 #p 6-31g* mp2
 -------------

 ------------------------------------------------------
 Input file generated by CHIRIPA (05-May-2021 14:57:27)
 ------------------------------------------------------
 Symbolic Z-matrix:
 Charge =  0 Multiplicity = 1

                         Standard orientation:
 ---------------------------------------------------------------------
 Center     Atomic      Atomic             Coordinates (Angstroms)
 Number     Number       Type             X           Y           Z
 ---------------------------------------------------------------------
      1          6           0        2.499560    2.377272   -0.812852
      2          6           0        1.799525    1.571428    0.091078
      3          6           0        2.297830    0.317815    0.458082
      4          6           0        3.504549   -0.100440   -0.100651
      5          6           0        4.225299    0.679419   -1.003773
      6          6           0        3.708082    1.929485   -1.356434
      7          1           0        2.105118    3.349731   -1.092378
      8          1           0        0.860727    1.916607    0.514817
      9          1           0        1.776436   -0.326358    1.155655
     10          1           0        5.158568    0.308150   -1.409465
     11          1           0        4.253892    2.553184   -2.058670
     12          7           0        4.042093   -1.425707    0.280287
     13          8           0        5.107385   -1.771244   -0.226067
     14          8           0        3.387950   -2.093820    1.078008
     15          6           0       -1.841080    0.695529    1.958955
     16          6           0       -2.991621    1.429381    1.651974
     17          6           0       -3.871307    0.988136    0.658997
     18          6           0       -3.568208   -0.196628   -0.010150
     19          6           0       -2.429946   -0.949983    0.272876
     20          6           0       -1.564402   -0.489722    1.269642
     21          1           0       -1.163212    1.045685    2.731795
     22          1           0       -3.209030    2.350219    2.185673
     23          1           0       -4.769121    1.536671    0.401201
     24          1           0       -2.239961   -1.864150   -0.276326
     25          1           0       -0.671621   -1.061694    1.505936
     26          7           0       -4.492007   -0.673819   -1.063375
     27          8           0       -4.202401   -1.720780   -1.638387
     28          8           0       -5.488194    0.008154   -1.293940
 ---------------------------------------------------------------------

 SCF Done:  E(RHF) =  -868.337349198     A.U. after   16 cycles
 E2 =    -0.2600668315D+01 EUMP2 =    -0.87093801751314D+03

 The electronic state is 1-A.
 Alpha  occ. eigenvalues --  -20.61325 -20.61296 -20.61185 -20.61175 -15.86366
 Alpha  occ. eigenvalues --  -15.86240 -11.31771 -11.31746 -11.28391 -11.28347
 Alpha  occ. eigenvalues --  -11.28316 -11.28245 -11.28194 -11.27987 -11.27440
 Alpha  occ. eigenvalues --  -11.27431 -11.27312 -11.27260  -1.60384  -1.60255
 Alpha  occ. eigenvalues --   -1.39941  -1.39803  -1.19971  -1.19896  -1.09359
 Alpha  occ. eigenvalues --   -1.09277  -1.05395  -1.05294  -0.96154  -0.96122
 Alpha  occ. eigenvalues --   -0.86795  -0.86696  -0.82963  -0.82961  -0.78067
 Alpha  occ. eigenvalues --   -0.77930  -0.72584  -0.72455  -0.71705  -0.71580
 Alpha  occ. eigenvalues --   -0.71107  -0.71004  -0.65627  -0.65570  -0.65447
 Alpha  occ. eigenvalues --   -0.65245  -0.62853  -0.62513  -0.55930  -0.55785
 Alpha  occ. eigenvalues --   -0.53777  -0.53634  -0.53512  -0.53262  -0.49352
 Alpha  occ. eigenvalues --   -0.49329  -0.49228  -0.49198  -0.45344  -0.45170
 Alpha  occ. eigenvalues --   -0.38015  -0.37848  -0.37087  -0.36779
 Alpha virt. eigenvalues --    0.04472   0.04557   0.10566   0.10741   0.15819
 Alpha virt. eigenvalues --    0.16084   0.18813   0.21960   0.24769   0.26473
 Alpha virt. eigenvalues --    0.27924   0.29122   0.29740   0.31204   0.31611

 Mulliken charges:
               1
     1  C   -0.170785
     2  C   -0.218939
     3  C   -0.175016
     4  C    0.160143
     5  C   -0.170196
     6  C   -0.217637
     7  H    0.227522
     8  H    0.223186
     9  H    0.267171
    10  H    0.277428
    11  H    0.225821
    12  N    0.488164
    13  O   -0.456950
    14  O   -0.464165
    15  C   -0.179933
    16  C   -0.219547
    17  C   -0.170705
    18  C    0.159370
    19  C   -0.169616
    20  C   -0.224171
    21  H    0.224987
    22  H    0.224654
    23  H    0.277365
    24  H    0.280911
    25  H    0.229812
    26  N    0.487776
    27  O   -0.457229
    28  O   -0.459420
 Sum of Mulliken charges =  -0.00000

 Dipole moment (field-independent basis, Debye):
    X=              1.2839    Y=              6.3306    Z=              2.1811  Tot=              6.8178
 Quadrupole moment (field-independent basis, Debye-Ang):
   XX=           -135.9977   YY=           -103.8508   ZZ=           -103.9625
   XY=              8.2842   XZ=            -21.4369   YZ=             -0.9853

 Normal termination of Gaussian 16 at Fri May  7 03:35:12 2021.
