 Gaussian 16, Revision A.03,
 Gaussian 16:  EM64L-G16RevA.03 25-Dec-2016

 -------------
 #p 6-31g* mp2
 -------------

 ------------------------------------------------------
 Input file generated by CHIRIPA (05-May-2021 14:51:10)
 ------------------------------------------------------
 Symbolic Z-matrix:
 Charge =  0 Multiplicity = 1

                         Standard orientation:
 ---------------------------------------------------------------------
 Center     Atomic      Atomic             Coordinates (Angstroms)
 Number     Number       Type             X           Y           Z
 ---------------------------------------------------------------------
      1          6           0       -3.557418   -0.212590   -0.459069
      2          6           0       -3.617337   -1.471672    0.406441
      3          6           0       -5.018052   -2.081761    0.466309
      4          1           0       -4.265544    0.529353   -0.065339
      5          1           0       -3.895077   -0.458330   -1.475431
      6          1           0       -3.278351   -1.223940    1.420509
      7          1           0       -2.908847   -2.210632    0.010720
      8          1           0       -5.361654   -2.356717   -0.536157
      9          1           0       -5.733257   -1.364418    0.881642
     10          1           0       -5.038058   -2.980739    1.090248
     11          6           0       -2.163636    0.408899   -0.528733
     12          6           0       -2.103717    1.667981   -1.394242
     13          6           0       -0.703002    2.278071   -1.454110
     14          1           0       -1.825977    0.654639    0.487630
     15          1           0       -1.455510   -0.333044   -0.922462
     16          1           0       -2.812207    2.406942   -0.998521
     17          1           0       -2.442703    1.420249   -2.408310
     18          1           0        0.012203    1.560728   -1.869444
     19          1           0       -0.359400    2.553026   -0.451644
     20          1           0       -0.682996    3.177048   -2.078049
     21          6           0        2.639409    0.504042    0.908507
     22          6           0        1.196796    0.401705    1.404873
     23          6           0        0.769099    1.613901    2.232792
     24          1           0        3.310269    0.615742    1.771302
     25          1           0        2.748984    1.417113    0.307101
     26          1           0        1.089631   -0.511619    2.004015
     27          1           0        0.529309    0.290044    0.540807
     28          1           0        0.847584    2.531660    1.641049
     29          1           0        1.411088    1.725443    3.112571
     30          1           0       -0.265424    1.519883    2.577442
     31          6           0        3.081645   -0.700351    0.079294
     32          6           0        4.524258   -0.598015   -0.417071
     33          6           0        4.951954   -1.810211   -1.244992
     34          1           0        2.972070   -1.613422    0.680701
     35          1           0        2.410786   -0.812050   -0.783500
     36          1           0        5.191745   -0.486353    0.446994
     37          1           0        4.631424    0.315310   -1.016214
     38          1           0        4.309965   -1.921753   -2.124770
     39          1           0        4.873470   -2.727969   -0.653248
     40          1           0        5.986477   -1.716192   -1.589641
 ---------------------------------------------------------------------

 SCF Done:  E(RHF) =  -470.731318591     A.U. after   11 cycles
 E2 =    -0.1585481144D+01 EUMP2 =    -0.47231679973503D+03

 The electronic state is 1-A.
 Alpha  occ. eigenvalues --  -11.21645 -11.21613 -11.21568 -11.21419 -11.21390
 Alpha  occ. eigenvalues --  -11.21359 -11.21347 -11.21266 -11.21098 -11.21080
 Alpha  occ. eigenvalues --  -11.21073 -11.21052  -1.08500  -1.08338  -1.03625
 Alpha  occ. eigenvalues --   -1.03428  -0.96023  -0.95949  -0.87046  -0.86958
 Alpha  occ. eigenvalues --   -0.79704  -0.79513  -0.78439  -0.78024  -0.65155
 Alpha  occ. eigenvalues --   -0.64972  -0.61170  -0.60777  -0.59451  -0.59217
 Alpha  occ. eigenvalues --   -0.57702  -0.57492  -0.55485  -0.55080  -0.52712
 Alpha  occ. eigenvalues --   -0.52652  -0.52481  -0.52336  -0.50105  -0.49740
 Alpha  occ. eigenvalues --   -0.48159  -0.47715  -0.46748  -0.46594  -0.46078
 Alpha  occ. eigenvalues --   -0.45731  -0.45664  -0.45085  -0.43813  -0.43728
 Alpha virt. eigenvalues --    0.20835   0.22736   0.23493   0.24412   0.25699
 Alpha virt. eigenvalues --    0.26077   0.26588   0.28098   0.28303   0.29995
 Alpha virt. eigenvalues --    0.30559   0.31283   0.31590   0.31869   0.32373

 Mulliken charges:
               1
     1  C   -0.297083
     2  C   -0.299613
     3  C   -0.475744
     4  H    0.149572
     5  H    0.149426
     6  H    0.151768
     7  H    0.152168
     8  H    0.155209
     9  H    0.155159
    10  H    0.160344
    11  C   -0.306492
    12  C   -0.297986
    13  C   -0.483985
    14  H    0.157116
    15  H    0.149617
    16  H    0.152047
    17  H    0.151838
    18  H    0.154303
    19  H    0.163361
    20  H    0.160565
    21  C   -0.297850
    22  C   -0.309687
    23  C   -0.480156
    24  H    0.148859
    25  H    0.149874
    26  H    0.150845
    27  H    0.166612
    28  H    0.156053
    29  H    0.156193
    30  H    0.159026
    31  C   -0.298258
    32  C   -0.299610
    33  C   -0.475641
    34  H    0.149437
    35  H    0.148574
    36  H    0.151977
    37  H    0.152018
    38  H    0.154865
    39  H    0.155097
    40  H    0.160183
 Sum of Mulliken charges =  -0.00000

 Dipole moment (field-independent basis, Debye):
    X=             -0.0427    Y=              0.0096    Z=             -0.0071  Tot=              0.0443
 Quadrupole moment (field-independent basis, Debye-Ang):
   XX=            -85.8652   YY=            -85.2090   ZZ=            -83.9155
   XY=             -0.4417   XZ=              0.4760   YZ=             -0.3435

 Normal termination of Gaussian 16 at Wed May  5 19:46:30 2021.
