 Gaussian 16, Revision A.03,
 Gaussian 16:  EM64L-G16RevA.03 25-Dec-2016

 -------------
 #p 6-31g* mp2
 -------------

 ------------------------------------------------------
 Input file generated by CHIRIPA (05-May-2021 14:53:15)
 ------------------------------------------------------
 Symbolic Z-matrix:
 Charge =  0 Multiplicity = 1

                         Standard orientation:
 ---------------------------------------------------------------------
 Center     Atomic      Atomic             Coordinates (Angstroms)
 Number     Number       Type             X           Y           Z
 ---------------------------------------------------------------------
      1          6           0        4.911185   -0.134611    0.257343
      2          6           0        5.809547   -0.405553   -0.949936
      3          6           0        7.277725   -0.074461   -0.680447
      4          1           0        5.003477    0.921550    0.545356
      5          1           0        5.270039   -0.724245    1.112299
      6          1           0        5.448273    0.183361   -1.802742
      7          1           0        5.714960   -1.461147   -1.235227
      8          1           0        7.660571   -0.671784    0.153361
      9          1           0        7.392369    0.982067   -0.417378
     10          1           0        7.902000   -0.275590   -1.556625
     11          6           0        3.440502   -0.460730    0.003441
     12          6           0        2.542141   -0.189787    1.210720
     13          6           0        1.073962   -0.520879    0.941231
     14          1           0        3.081648    0.128905   -0.851515
     15          1           0        3.348211   -1.516890   -0.284572
     16          1           0        2.636728    0.865807    1.496012
     17          1           0        2.903415   -0.778701    2.063526
     18          1           0        0.959319   -1.577408    0.678162
     19          1           0        0.691116    0.076444    0.107423
     20          1           0        0.449688   -0.319750    1.817409
     21          6           0       -1.705233    2.190700    0.225074
     22          6           0       -2.261123    1.941014   -1.033959
     23          6           0       -3.125141    0.858943   -1.226690
     24          6           0       -3.412916    0.043248   -0.133476
     25          6           0       -2.874932    0.265967    1.133117
     26          6           0       -2.013369    1.353855    1.302694
     27          1           0       -1.034997    3.033538    0.365799
     28          1           0       -2.023598    2.589247   -1.872661
     29          1           0       -3.569487    0.642659   -2.190638
     30          1           0       -3.130446   -0.397838    1.950119
     31          1           0       -1.583125    1.545356    2.281604
     32          7           0       -4.326315   -1.105370   -0.325257
     33          8           0       -4.564026   -1.809127    0.653956
     34          8           0       -4.787230   -1.280151   -1.451155
 ---------------------------------------------------------------------

 SCF Done:  E(RHF) =  -669.534627518     A.U. after   15 cycles
 E2 =    -0.2092288822D+01 EUMP2 =    -0.67162691634091D+03

 The electronic state is 1-A.
 Alpha  occ. eigenvalues --  -20.60754 -20.60749 -15.85808 -11.31185 -11.27745
 Alpha  occ. eigenvalues --  -11.27726 -11.27483 -11.26793 -11.26757 -11.21993
 Alpha  occ. eigenvalues --  -11.21871 -11.21738 -11.21671 -11.21356 -11.21312
 Alpha  occ. eigenvalues --   -1.59829  -1.39382  -1.19357  -1.08778  -1.08737
 Alpha  occ. eigenvalues --   -1.04768  -1.03845  -0.96289  -0.95585  -0.87308
 Alpha  occ. eigenvalues --   -0.86159  -0.82420  -0.79912  -0.78570  -0.77463
 Alpha  occ. eigenvalues --   -0.72027  -0.71150  -0.70465  -0.65394  -0.65012
 Alpha  occ. eigenvalues --   -0.64782  -0.62122  -0.61253  -0.59678  -0.57904
 Alpha  occ. eigenvalues --   -0.55611  -0.55268  -0.53431  -0.52922  -0.52689
 Alpha  occ. eigenvalues --   -0.52600  -0.50189  -0.48787  -0.48780  -0.48223
 Alpha  occ. eigenvalues --   -0.46944  -0.46107  -0.46039  -0.44786  -0.44118
 Alpha  occ. eigenvalues --   -0.37299  -0.36298
 Alpha virt. eigenvalues --    0.05049   0.11277   0.16461   0.20944   0.22630
 Alpha virt. eigenvalues --    0.24041   0.26313   0.26498   0.27200   0.28095
 Alpha virt. eigenvalues --    0.28399   0.30262   0.31118   0.31633   0.32271

 Mulliken charges:
               1
     1  C   -0.298218
     2  C   -0.299784
     3  C   -0.475806
     4  H    0.148081
     5  H    0.150456
     6  H    0.151301
     7  H    0.153254
     8  H    0.155813
     9  H    0.154593
    10  H    0.161075
    11  C   -0.298209
    12  C   -0.300189
    13  C   -0.475050
    14  H    0.147893
    15  H    0.152142
    16  H    0.146353
    17  H    0.152936
    18  H    0.158563
    19  H    0.157756
    20  H    0.152731
    21  C   -0.171974
    22  C   -0.219152
    23  C   -0.171215
    24  C    0.159170
    25  C   -0.170693
    26  C   -0.211807
    27  H    0.225372
    28  H    0.223349
    29  H    0.275554
    30  H    0.275474
    31  H    0.223001
    32  N    0.488043
    33  O   -0.460324
    34  O   -0.460490
 Sum of Mulliken charges =  -0.00000

 Dipole moment (field-independent basis, Debye):
    X=              3.2179    Y=              4.0185    Z=              0.6487  Tot=              5.1888
 Quadrupole moment (field-independent basis, Debye-Ang):
   XX=           -118.6514   YY=            -93.8559   ZZ=            -90.3255
   XY=            -14.4032   XZ=             -2.2914   YZ=             -2.1984

 Normal termination of Gaussian 16 at Thu May  6 01:06:14 2021.
