 Gaussian 16, Revision A.03,
 Gaussian 16:  EM64L-G16RevA.03 25-Dec-2016

 -------------
 #p 6-31g* mp2
 -------------

 ------------------------------------------------------
 Input file generated by CHIRIPA (05-May-2021 14:55:25)
 ------------------------------------------------------
 Symbolic Z-matrix:
 Charge =  0 Multiplicity = 1

                         Standard orientation:
 ---------------------------------------------------------------------
 Center     Atomic      Atomic             Coordinates (Angstroms)
 Number     Number       Type             X           Y           Z
 ---------------------------------------------------------------------
      1          6           0        1.879137    2.292000    0.193330
      2          6           0        2.049702    1.466923    1.309876
      3          6           0        2.829296    0.309523    1.224986
      4          6           0        3.426485    0.006049    0.002465
      5          6           0        3.275444    0.807961   -1.127763
      6          6           0        2.491473    1.960470   -1.019788
      7          1           0        1.271829    3.189196    0.268241
      8          1           0        1.575347    1.721911    2.253281
      9          1           0        2.978017   -0.346989    2.073687
     10          1           0        3.760874    0.527621   -2.054686
     11          1           0        2.360757    2.599373   -1.888557
     12          7           0        4.254124   -1.216650   -0.099624
     13          8           0        4.769637   -1.461929   -1.188073
     14          8           0        4.371643   -1.906570    0.910741
     15          6           0       -4.871872    0.114738    0.023917
     16          6           0       -6.097597   -0.763940   -0.228091
     17          6           0       -7.411558    0.011401   -0.127378
     18          1           0       -4.954435    0.571342    1.019728
     19          1           0       -4.867138    0.941643   -0.699684
     20          1           0       -6.099272   -1.589726    0.494883
     21          1           0       -6.012011   -1.218659   -1.223341
     22          1           0       -7.435771    0.825142   -0.859389
     23          1           0       -7.523527    0.451967    0.868597
     24          1           0       -8.274763   -0.635912   -0.311010
     25          6           0       -3.550735   -0.646102   -0.073300
     26          6           0       -2.325010    0.232576    0.178708
     27          6           0       -1.011048   -0.542767    0.077995
     28          1           0       -3.555469   -1.473008    0.650301
     29          1           0       -3.468171   -1.102708   -1.069111
     30          1           0       -2.410595    0.687294    1.173958
     31          1           0       -2.323335    1.058361   -0.544267
     32          1           0       -0.899079   -0.983331   -0.917980
     33          1           0       -0.986835   -1.356507    0.810007
     34          1           0       -0.147843    0.104548    0.261627
 ---------------------------------------------------------------------

 SCF Done:  E(RHF) =  -669.534695092     A.U. after   15 cycles
 E2 =    -0.2092619559D+01 EUMP2 =    -0.67162731465157D+03

 The electronic state is 1-A.
 Alpha  occ. eigenvalues --  -20.60799 -20.60794 -15.85854 -11.31258 -11.27827
 Alpha  occ. eigenvalues --  -11.27813 -11.27565 -11.26849 -11.26823 -11.21902
 Alpha  occ. eigenvalues --  -11.21793 -11.21635 -11.21572 -11.21259 -11.21052
 Alpha  occ. eigenvalues --   -1.59873  -1.39425  -1.19443  -1.08832  -1.08652
 Alpha  occ. eigenvalues --   -1.04847  -1.03730  -0.96159  -0.95650  -0.87176
 Alpha  occ. eigenvalues --   -0.86236  -0.82479  -0.79804  -0.78477  -0.77520
 Alpha  occ. eigenvalues --   -0.72072  -0.71194  -0.70534  -0.65289  -0.65086
 Alpha  occ. eigenvalues --   -0.64840  -0.62182  -0.61133  -0.59605  -0.57832
 Alpha  occ. eigenvalues --   -0.55443  -0.55336  -0.53715  -0.52928  -0.52656
 Alpha  occ. eigenvalues --   -0.52182  -0.50101  -0.48834  -0.48824  -0.48103
 Alpha  occ. eigenvalues --   -0.46851  -0.46012  -0.45948  -0.44823  -0.43976
 Alpha  occ. eigenvalues --   -0.37386  -0.36396
 Alpha virt. eigenvalues --    0.05007   0.11163   0.16475   0.21291   0.22671
 Alpha virt. eigenvalues --    0.24211   0.26391   0.27154   0.27285   0.27975
 Alpha virt. eigenvalues --    0.28316   0.30873   0.31233   0.31706   0.32195

 Mulliken charges:
               1
     1  C   -0.170840
     2  C   -0.222950
     3  C   -0.168157
     4  C    0.160246
     5  C   -0.170746
     6  C   -0.216784
     7  H    0.226649
     8  H    0.224601
     9  H    0.276204
    10  H    0.276017
    11  H    0.223942
    12  N    0.488122
    13  O   -0.460235
    14  O   -0.460044
    15  C   -0.298072
    16  C   -0.299816
    17  C   -0.475738
    18  H    0.148525
    19  H    0.148284
    20  H    0.152700
    21  H    0.152638
    22  H    0.154764
    23  H    0.154856
    24  H    0.161086
    25  C   -0.297954
    26  C   -0.298520
    27  C   -0.485989
    28  H    0.150777
    29  H    0.150921
    30  H    0.147048
    31  H    0.147823
    32  H    0.155770
    33  H    0.154517
    34  H    0.170355
 Sum of Mulliken charges =  -0.00000

 Dipole moment (field-independent basis, Debye):
    X=             -2.8100    Y=              4.3104    Z=              0.3489  Tot=              5.1573
 Quadrupole moment (field-independent basis, Debye-Ang):
   XX=           -116.4147   YY=            -95.2615   ZZ=            -89.1287
   XY=             15.6325   XZ=              0.2447   YZ=             -1.3629

 Normal termination of Gaussian 16 at Thu May  6 14:25:10 2021.
