 Gaussian 16, Revision A.03,
 Gaussian 16:  EM64L-G16RevA.03 25-Dec-2016

 -------------
 #p 6-31g* mp2
 -------------

 ------------------------------------------------------
 Input file generated by CHIRIPA (05-May-2021 14:57:24)
 ------------------------------------------------------
 Symbolic Z-matrix:
 Charge =  0 Multiplicity = 1

                         Standard orientation:
 ---------------------------------------------------------------------
 Center     Atomic      Atomic             Coordinates (Angstroms)
 Number     Number       Type             X           Y           Z
 ---------------------------------------------------------------------
      1          6           0        5.354112    0.389434   -1.250874
      2          6           0        4.594592   -0.733369   -1.595783
      3          6           0        3.494611   -1.111989   -0.820388
      4          6           0        3.181084   -0.341557    0.298283
      5          6           0        3.918337    0.782351    0.667850
      6          6           0        5.014160    1.142383   -0.122148
      7          1           0        6.206988    0.676336   -1.858892
      8          1           0        4.856274   -1.319992   -2.471820
      9          1           0        2.889432   -1.976610   -1.064529
     10          1           0        3.632945    1.347390    1.546883
     11          1           0        5.602213    2.014851    0.148110
     12          7           0        2.018785   -0.732546    1.126889
     13          8           0        1.763280   -0.037132    2.107580
     14          8           0        1.385287   -1.727013    0.779970
     15          6           0       -4.914637   -1.715646   -0.292404
     16          6           0       -3.543986   -1.903494   -0.086129
     17          6           0       -2.680248   -0.806673   -0.012033
     18          6           0       -3.223571    0.469770   -0.149085
     19          6           0       -4.584619    0.689442   -0.355440
     20          6           0       -5.429671   -0.422058   -0.426165
     21          1           0       -5.578352   -2.573384   -0.348655
     22          1           0       -3.141213   -2.906965    0.018101
     23          1           0       -1.615107   -0.923409    0.146920
     24          1           0       -4.956709    1.701827   -0.455655
     25          1           0       -6.493715   -0.273166   -0.586439
     26          7           0       -2.319061    1.638695   -0.072427
     27          8           0       -2.822562    2.753049   -0.196281
     28          8           0       -1.123732    1.418411    0.110060
 ---------------------------------------------------------------------

 SCF Done:  E(RHF) =  -868.339743805     A.U. after   16 cycles
 E2 =    -0.2599145810D+01 EUMP2 =    -0.87093888961522D+03

 The electronic state is 1-A.
 Alpha  occ. eigenvalues --  -20.60584 -20.60475 -20.60010 -20.59968 -15.85554
 Alpha  occ. eigenvalues --  -15.85041 -11.30819 -11.30314 -11.27427 -11.27345
 Alpha  occ. eigenvalues --  -11.27144 -11.26977 -11.26731 -11.26708 -11.26426
 Alpha  occ. eigenvalues --  -11.26372 -11.25989 -11.25850  -1.59559  -1.59068
 Alpha  occ. eigenvalues --   -1.39126  -1.38619  -1.18986  -1.18509  -1.08405
 Alpha  occ. eigenvalues --   -1.07940  -1.04389  -1.03888  -0.95259  -0.94773
 Alpha  occ. eigenvalues --   -0.85794  -0.85299  -0.82106  -0.81601  -0.77154
 Alpha  occ. eigenvalues --   -0.76637  -0.71799  -0.71304  -0.70788  -0.70385
 Alpha  occ. eigenvalues --   -0.70122  -0.69624  -0.64659  -0.64410  -0.64165
 Alpha  occ. eigenvalues --   -0.63898  -0.61745  -0.61203  -0.54916  -0.54444
 Alpha  occ. eigenvalues --   -0.52706  -0.52495  -0.52252  -0.51971  -0.48565
 Alpha  occ. eigenvalues --   -0.48523  -0.48031  -0.48005  -0.44551  -0.44033
 Alpha  occ. eigenvalues --   -0.36960  -0.36535  -0.35980  -0.35495
 Alpha virt. eigenvalues --    0.05371   0.05879   0.11677   0.12151   0.16852
 Alpha virt. eigenvalues --    0.17357   0.21734   0.22308   0.27656   0.28192
 Alpha virt. eigenvalues --    0.28609   0.29262   0.31243   0.31819   0.32857

 Mulliken charges:
               1
     1  C   -0.170410
     2  C   -0.218550
     3  C   -0.170351
     4  C    0.161974
     5  C   -0.167158
     6  C   -0.218492
     7  H    0.224573
     8  H    0.221482
     9  H    0.271799
    10  H    0.278017
    11  H    0.223508
    12  N    0.493030
    13  O   -0.450673
    14  O   -0.474461
    15  C   -0.171051
    16  C   -0.221443
    17  C   -0.175448
    18  C    0.156378
    19  C   -0.171608
    20  C   -0.219751
    21  H    0.222570
    22  H    0.225558
    23  H    0.293201
    24  H    0.272565
    25  H    0.219913
    26  N    0.487967
    27  O   -0.465544
    28  O   -0.457598
 Sum of Mulliken charges =  -0.00000

 Dipole moment (field-independent basis, Debye):
    X=              1.2113    Y=             -2.6675    Z=             -3.0268  Tot=              4.2124
 Quadrupole moment (field-independent basis, Debye-Ang):
   XX=            -57.1681   YY=           -105.8925   ZZ=           -105.7858
   XY=             13.6949   XZ=             -5.6219   YZ=              4.2729

 Normal termination of Gaussian 16 at Thu May  6 05:03:43 2021.
