 Gaussian 16, Revision A.03,
 Gaussian 16:  EM64L-G16RevA.03 25-Dec-2016

 -------------
 #p 6-31g* mp2
 -------------

 ------------------------------------------------------
 Input file generated by CHIRIPA (05-May-2021 14:55:24)
 ------------------------------------------------------
 Symbolic Z-matrix:
 Charge =  0 Multiplicity = 1

                         Standard orientation:
 ---------------------------------------------------------------------
 Center     Atomic      Atomic             Coordinates (Angstroms)
 Number     Number       Type             X           Y           Z
 ---------------------------------------------------------------------
      1          6           0       -3.026756    2.258289   -0.912625
      2          6           0       -3.544353    1.005983   -1.259530
      3          6           0       -3.177610   -0.137119   -0.543035
      4          6           0       -2.287055    0.009200    0.519412
      5          6           0       -1.754188    1.243080    0.889389
      6          6           0       -2.134898    2.372639    0.158838
      7          1           0       -3.317076    3.141018   -1.474675
      8          1           0       -4.237165    0.914182   -2.091173
      9          1           0       -3.563163   -1.118810   -0.790115
     10          1           0       -1.065483    1.303027    1.723361
     11          1           0       -1.731337    3.343918    0.430501
     12          7           0       -1.891408   -1.193782    1.285374
     13          8           0       -1.105204   -1.038225    2.217212
     14          8           0       -2.374995   -2.269457    0.939392
     15          6           0        2.335545   -0.280799   -0.859771
     16          6           0        1.850037   -1.695200   -1.178730
     17          6           0        0.497639   -1.709218   -1.891905
     18          1           0        1.585635    0.225671   -0.236819
     19          1           0        2.406325    0.294321   -1.793378
     20          1           0        1.781517   -2.267899   -0.244954
     21          1           0        2.601278   -2.198427   -1.800834
     22          1           0        0.555405   -1.161549   -2.838120
     23          1           0       -0.269014   -1.231417   -1.273399
     24          1           0        0.169539   -2.730240   -2.110364
     25          6           0        3.686249   -0.250316   -0.146751
     26          6           0        4.171756    1.164086    0.172207
     27          6           0        5.524153    1.178104    0.885383
     28          1           0        3.615467   -0.825435    0.786856
     29          1           0        4.436159   -0.756785   -0.769703
     30          1           0        3.420516    1.667314    0.794313
     31          1           0        4.240276    1.736786   -0.761569
     32          1           0        6.290808    0.700303    0.266878
     33          1           0        5.466388    0.630436    1.831599
     34          1           0        5.852254    2.199126    1.103842
 ---------------------------------------------------------------------

 SCF Done:  E(RHF) =  -669.535475834     A.U. after   15 cycles
 E2 =    -0.2093015219D+01 EUMP2 =    -0.67162849105260D+03

 The electronic state is 1-A.
 Alpha  occ. eigenvalues --  -20.60864 -20.60852 -15.85900 -11.31247 -11.27828
 Alpha  occ. eigenvalues --  -11.27806 -11.27553 -11.26835 -11.26821 -11.21473
 Alpha  occ. eigenvalues --  -11.21174 -11.21121 -11.21067 -11.20933 -11.20713
 Alpha  occ. eigenvalues --   -1.59931  -1.39483  -1.19432  -1.08829  -1.08154
 Alpha  occ. eigenvalues --   -1.04824  -1.03262  -0.95720  -0.95661  -0.86744
 Alpha  occ. eigenvalues --   -0.86222  -0.82490  -0.79334  -0.77972  -0.77539
 Alpha  occ. eigenvalues --   -0.72121  -0.71283  -0.70527  -0.65079  -0.64826
 Alpha  occ. eigenvalues --   -0.64771  -0.62170  -0.60657  -0.59086  -0.57333
 Alpha  occ. eigenvalues --   -0.55325  -0.55035  -0.53190  -0.52913  -0.52411
 Alpha  occ. eigenvalues --   -0.52125  -0.49678  -0.48881  -0.48876  -0.47648
 Alpha  occ. eigenvalues --   -0.46367  -0.45520  -0.45415  -0.44865  -0.43511
 Alpha  occ. eigenvalues --   -0.37367  -0.36412
 Alpha virt. eigenvalues --    0.04973   0.11146   0.16473   0.21305   0.22978
 Alpha virt. eigenvalues --    0.24397   0.26416   0.27256   0.27681   0.28166
 Alpha virt. eigenvalues --    0.28493   0.30836   0.31506   0.32098   0.32166

 Mulliken charges:
               1
     1  C   -0.170648
     2  C   -0.217037
     3  C   -0.171071
     4  C    0.154851
     5  C   -0.171957
     6  C   -0.217783
     7  H    0.225988
     8  H    0.223978
     9  H    0.276193
    10  H    0.275563
    11  H    0.223953
    12  N    0.492047
    13  O   -0.461009
    14  O   -0.458968
    15  C   -0.297270
    16  C   -0.302053
    17  C   -0.475725
    18  H    0.147119
    19  H    0.145798
    20  H    0.162261
    21  H    0.150194
    22  H    0.150218
    23  H    0.151260
    24  H    0.164276
    25  C   -0.299016
    26  C   -0.298618
    27  C   -0.475706
    28  H    0.154746
    29  H    0.149016
    30  H    0.149004
    31  H    0.149650
    32  H    0.155223
    33  H    0.157108
    34  H    0.158415
 Sum of Mulliken charges =  -0.00000

 Dipole moment (field-independent basis, Debye):
    X=             -1.4836    Y=              4.1598    Z=             -2.6405  Tot=              5.1456
 Quadrupole moment (field-independent basis, Debye-Ang):
   XX=            -87.8530   YY=            -93.3337   ZZ=            -95.9926
   XY=             -8.4083   XZ=              6.8570   YZ=              3.8510

 Normal termination of Gaussian 16 at Thu May  6 17:42:21 2021.
