 Gaussian 16, Revision A.03,
 Gaussian 16:  EM64L-G16RevA.03 25-Dec-2016

 -------------
 #p 6-31g* mp2
 -------------

 ------------------------------------------------------
 Input file generated by CHIRIPA (05-May-2021 14:51:09)
 ------------------------------------------------------
 Symbolic Z-matrix:
 Charge =  0 Multiplicity = 1

                         Standard orientation:
 ---------------------------------------------------------------------
 Center     Atomic      Atomic             Coordinates (Angstroms)
 Number     Number       Type             X           Y           Z
 ---------------------------------------------------------------------
      1          6           0       -2.341644    0.077040    0.568880
      2          6           0       -2.153062    0.881165    1.855660
      3          6           0       -0.686307    1.205896    2.140224
      4          1           0       -1.765078   -0.855487    0.638960
      5          1           0       -1.920183    0.642537   -0.273723
      6          1           0       -2.575991    0.314934    2.695380
      7          1           0       -2.730297    1.811797    1.782586
      8          1           0       -0.255644    1.791762    1.321755
      9          1           0       -0.100461    0.286395    2.239735
     10          1           0       -0.574498    1.781115    3.064605
     11          6           0       -3.802610   -0.255326    0.270818
     12          6           0       -3.991192   -1.059451   -1.015963
     13          6           0       -5.457946   -1.384182   -1.300526
     14          1           0       -4.224070   -0.820823    1.113420
     15          1           0       -4.379176    0.677200    0.200738
     16          1           0       -3.413957   -1.990083   -0.942889
     17          1           0       -3.568263   -0.493221   -1.855683
     18          1           0       -6.043793   -0.464681   -1.400038
     19          1           0       -5.888610   -1.970048   -0.482057
     20          1           0       -5.569756   -1.959401   -2.224908
     21          6           0        2.611594    0.679973   -0.270649
     22          6           0        2.396023    1.599512   -1.473131
     23          6           0        1.472443    2.776834   -1.158956
     24          1           0        1.638817    0.303010    0.073663
     25          1           0        3.031458    1.265310    0.559104
     26          1           0        1.977981    1.012325   -2.300820
     27          1           0        3.369443    1.974178   -1.814739
     28          1           0        1.887569    3.386990   -0.350265
     29          1           0        0.488202    2.419673   -0.839106
     30          1           0        1.332129    3.421229   -2.032413
     31          6           0        3.532660   -0.501687   -0.569048
     32          6           0        3.748230   -1.421226    0.633433
     33          6           0        4.671810   -2.598548    0.319258
     34          1           0        3.112796   -1.087024   -1.398801
     35          1           0        4.505437   -0.124723   -0.913360
     36          1           0        2.774811   -1.795891    0.975042
     37          1           0        4.166273   -0.834039    1.461123
     38          1           0        5.656052   -2.241385   -0.000591
     39          1           0        4.256684   -3.208703   -0.489434
     40          1           0        4.812125   -3.242943    1.192715
 ---------------------------------------------------------------------

 SCF Done:  E(RHF) =  -470.732745277     A.U. after   11 cycles
 E2 =    -0.1583708074D+01 EUMP2 =    -0.47231645335142D+03

 The electronic state is 1-A.
 Alpha  occ. eigenvalues --  -11.21633 -11.21601 -11.21581 -11.21579 -11.21454
 Alpha  occ. eigenvalues --  -11.21390 -11.21343 -11.21261 -11.21095 -11.21094
 Alpha  occ. eigenvalues --  -11.21054 -11.20985  -1.08466  -1.08387  -1.03565
 Alpha  occ. eigenvalues --   -1.03495  -0.95994  -0.95962  -0.87011  -0.86983
 Alpha  occ. eigenvalues --   -0.79693  -0.79510  -0.78338  -0.78128  -0.65114
 Alpha  occ. eigenvalues --   -0.65010  -0.61046  -0.60836  -0.59404  -0.59294
 Alpha  occ. eigenvalues --   -0.57617  -0.57572  -0.55367  -0.55169  -0.52680
 Alpha  occ. eigenvalues --   -0.52669  -0.52430  -0.52403  -0.50026  -0.49827
 Alpha  occ. eigenvalues --   -0.48177  -0.47740  -0.46729  -0.46500  -0.46022
 Alpha  occ. eigenvalues --   -0.45741  -0.45682  -0.45312  -0.43801  -0.43755
 Alpha virt. eigenvalues --    0.20712   0.23126   0.23421   0.24424   0.25894
 Alpha virt. eigenvalues --    0.26304   0.26933   0.27614   0.27930   0.29820
 Alpha virt. eigenvalues --    0.30651   0.31450   0.31696   0.31765   0.32011

 Mulliken charges:
               1
     1  C   -0.300466
     2  C   -0.299579
     3  C   -0.483670
     4  H    0.149177
     5  H    0.149937
     6  H    0.151843
     7  H    0.151913
     8  H    0.164377
     9  H    0.155718
    10  H    0.159998
    11  C   -0.298157
    12  C   -0.299719
    13  C   -0.475739
    14  H    0.149880
    15  H    0.149977
    16  H    0.151797
    17  H    0.151926
    18  H    0.155315
    19  H    0.155259
    20  H    0.160320
    21  C   -0.302965
    22  C   -0.299332
    23  C   -0.480769
    24  H    0.156453
    25  H    0.149412
    26  H    0.151670
    27  H    0.151812
    28  H    0.155709
    29  H    0.158525
    30  H    0.160439
    31  C   -0.298219
    32  C   -0.299473
    33  C   -0.475657
    34  H    0.149240
    35  H    0.149330
    36  H    0.151224
    37  H    0.152104
    38  H    0.155221
    39  H    0.155089
    40  H    0.160082
 Sum of Mulliken charges =  -0.00000

 Dipole moment (field-independent basis, Debye):
    X=             -0.0096    Y=              0.0151    Z=              0.0081  Tot=              0.0197
 Quadrupole moment (field-independent basis, Debye-Ang):
   XX=            -85.5906   YY=            -84.6225   ZZ=            -84.6010
   XY=              0.6799   XZ=              0.0214   YZ=             -0.4520

 Normal termination of Gaussian 16 at Wed May  5 19:43:22 2021.
