 Gaussian 16, Revision A.03,
 Gaussian 16:  EM64L-G16RevA.03 25-Dec-2016

 -------------
 #p 6-31g* mp2
 -------------

 ------------------------------------------------------
 Input file generated by CHIRIPA (05-May-2021 14:51:08)
 ------------------------------------------------------
 Symbolic Z-matrix:
 Charge =  0 Multiplicity = 1

                         Standard orientation:
 ---------------------------------------------------------------------
 Center     Atomic      Atomic             Coordinates (Angstroms)
 Number     Number       Type             X           Y           Z
 ---------------------------------------------------------------------
      1          6           0       -4.379032    0.685059    0.274463
      2          6           0       -5.620266    0.883656   -0.596102
      3          6           0       -6.274332    2.250239   -0.390087
      4          1           0       -4.656764    0.804745    1.330628
      5          1           0       -3.652044    1.478021    0.050644
      6          1           0       -6.344128    0.089752   -0.371699
      7          1           0       -5.339585    0.763293   -1.650306
      8          1           0       -5.571863    3.054078   -0.632945
      9          1           0       -6.582114    2.376710    0.652926
     10          1           0       -7.159692    2.370943   -1.022090
     11          6           0       -3.714014   -0.676399    0.079752
     12          6           0       -2.472780   -0.874996    0.950316
     13          6           0       -1.818714   -2.241579    0.744301
     14          1           0       -4.441002   -1.469361    0.303571
     15          1           0       -3.436282   -0.796085   -0.976413
     16          1           0       -2.753462   -0.754633    2.004521
     17          1           0       -1.748918   -0.081092    0.725914
     18          1           0       -1.510932   -2.368050   -0.298712
     19          1           0       -2.521183   -3.045419    0.987160
     20          1           0       -0.933354   -2.362283    1.376304
     21          6           0        3.343172   -0.268468   -0.039411
     22          6           0        2.976808   -1.487796   -0.886170
     23          6           0        1.566705   -2.004629   -0.599311
     24          1           0        3.255955   -0.529078    1.024271
     25          1           0        2.613404    0.531526   -0.226076
     26          1           0        3.707849   -2.284767   -0.699003
     27          1           0        3.065092   -1.224309   -1.947959
     28          1           0        0.822686   -1.228051   -0.804160
     29          1           0        1.469094   -2.294534    0.451892
     30          1           0        1.325589   -2.876451   -1.215468
     31          6           0        4.749874    0.259808   -0.314803
     32          6           0        5.116239    1.479137    0.531956
     33          6           0        6.526341    1.995969    0.245096
     34          1           0        5.479643   -0.540186   -0.128139
     35          1           0        4.837091    0.520418   -1.378486
     36          1           0        5.027954    1.215649    1.593744
     37          1           0        4.385198    2.276108    0.344789
     38          1           0        6.623952    2.285874   -0.806106
     39          1           0        7.270360    1.219391    0.449945
     40          1           0        6.767458    2.867791    0.861253
 ---------------------------------------------------------------------

 SCF Done:  E(RHF) =  -470.732638945     A.U. after   11 cycles
 E2 =    -0.1582787874D+01 EUMP2 =    -0.47231542681899D+03

 The electronic state is 1-A.
 Alpha  occ. eigenvalues --  -11.21602 -11.21583 -11.21563 -11.21533 -11.21402
 Alpha  occ. eigenvalues --  -11.21371 -11.21342 -11.21310 -11.21072 -11.21058
 Alpha  occ. eigenvalues --  -11.21017 -11.20892  -1.08426  -1.08385  -1.03546
 Alpha  occ. eigenvalues --   -1.03448  -0.96044  -0.95848  -0.87108  -0.86818
 Alpha  occ. eigenvalues --   -0.79669  -0.79453  -0.78240  -0.78198  -0.65067
 Alpha  occ. eigenvalues --   -0.65011  -0.60978  -0.60831  -0.59351  -0.59301
 Alpha  occ. eigenvalues --   -0.57666  -0.57446  -0.55349  -0.55148  -0.52827
 Alpha  occ. eigenvalues --   -0.52624  -0.52337  -0.52207  -0.49957  -0.49794
 Alpha  occ. eigenvalues --   -0.47894  -0.47827  -0.46618  -0.46561  -0.45785
 Alpha  occ. eigenvalues --   -0.45737  -0.45687  -0.45668  -0.43791  -0.43682
 Alpha virt. eigenvalues --    0.21778   0.23021   0.23549   0.24925   0.26108
 Alpha virt. eigenvalues --    0.26588   0.27243   0.27330   0.27721   0.29108
 Alpha virt. eigenvalues --    0.29511   0.31112   0.31428   0.32246   0.32329

 Mulliken charges:
               1
     1  C   -0.298169
     2  C   -0.299603
     3  C   -0.475666
     4  H    0.149623
     5  H    0.149200
     6  H    0.151935
     7  H    0.151819
     8  H    0.155067
     9  H    0.155169
    10  H    0.160177
    11  C   -0.298310
    12  C   -0.300989
    13  C   -0.476573
    14  H    0.149549
    15  H    0.149344
    16  H    0.151548
    17  H    0.151651
    18  H    0.158598
    19  H    0.153391
    20  H    0.162008
    21  C   -0.298120
    22  C   -0.301282
    23  C   -0.474445
    24  H    0.149436
    25  H    0.149086
    26  H    0.151680
    27  H    0.151427
    28  H    0.156054
    29  H    0.156565
    30  H    0.159815
    31  C   -0.298200
    32  C   -0.299616
    33  C   -0.475699
    34  H    0.149567
    35  H    0.149597
    36  H    0.151938
    37  H    0.151832
    38  H    0.155153
    39  H    0.155199
    40  H    0.160245
 Sum of Mulliken charges =  -0.00000

 Dipole moment (field-independent basis, Debye):
    X=              0.0132    Y=             -0.0226    Z=             -0.0008  Tot=              0.0262
 Quadrupole moment (field-independent basis, Debye-Ang):
   XX=            -85.8480   YY=            -85.3859   ZZ=            -83.7245
   XY=              0.0453   XZ=             -0.0019   YZ=             -0.7392

 Normal termination of Gaussian 16 at Thu May  6 03:39:22 2021.
