 Gaussian 16, Revision A.03,
 Gaussian 16:  EM64L-G16RevA.03 25-Dec-2016

 -------------
 #p 6-31g* mp2
 -------------

 ------------------------------------------------------
 Input file generated by CHIRIPA (05-May-2021 14:57:24)
 ------------------------------------------------------
 Symbolic Z-matrix:
 Charge =  0 Multiplicity = 1

                         Standard orientation:
 ---------------------------------------------------------------------
 Center     Atomic      Atomic             Coordinates (Angstroms)
 Number     Number       Type             X           Y           Z
 ---------------------------------------------------------------------
      1          6           0        3.255510    2.410536   -0.771873
      2          6           0        2.365264    1.828468    0.136522
      3          6           0        2.525128    0.497585    0.533690
      4          6           0        3.591046   -0.225284    0.000240
      5          6           0        4.494714    0.326414   -0.906570
      6          6           0        4.315524    1.658977   -1.289607
      7          1           0        3.123817    3.445050   -1.074914
      8          1           0        1.541137    2.409741    0.540230
      9          1           0        1.850660    0.022058    1.235391
     10          1           0        5.306695   -0.278296   -1.291836
     11          1           0        5.008444    2.108407   -1.995240
     12          7           0        3.770517   -1.635119    0.413224
     13          8           0        4.717655   -2.250633   -0.071243
     14          8           0        2.960649   -2.097937    1.213568
     15          6           0       -1.420598    0.682392    1.211170
     16          6           0       -1.391117   -0.265038    0.182565
     17          6           0       -2.571162   -0.654553   -0.457994
     18          6           0       -3.768439   -0.073729   -0.042709
     19          6           0       -3.830402    0.872722    0.978897
     20          6           0       -2.638001    1.247252    1.605359
     21          1           0       -0.499111    0.979157    1.703297
     22          1           0       -0.447113   -0.705385   -0.125651
     23          1           0       -2.577095   -1.385813   -1.257146
     24          1           0       -4.786686    1.294100    1.264171
     25          1           0       -2.663912    1.983270    2.403889
     26          7           0       -5.024241   -0.478159   -0.713379
     27          8           0       -6.066165    0.048390   -0.328961
     28          8           0       -4.942836   -1.314045   -1.610768
 ---------------------------------------------------------------------

 SCF Done:  E(RHF) =  -868.336577429     A.U. after   16 cycles
 E2 =    -0.2601122754D+01 EUMP2 =    -0.87093770018234D+03

 The electronic state is 1-A.
 Alpha  occ. eigenvalues --  -20.61638 -20.61611 -20.60957 -20.60950 -15.86682
 Alpha  occ. eigenvalues --  -15.86010 -11.32167 -11.31480 -11.28839 -11.28640
 Alpha  occ. eigenvalues --  -11.28399 -11.28040 -11.27994 -11.27944 -11.27819
 Alpha  occ. eigenvalues --  -11.27663 -11.27157 -11.27071  -1.60700  -1.60028
 Alpha  occ. eigenvalues --   -1.40252  -1.39578  -1.20323  -1.19661  -1.09674
 Alpha  occ. eigenvalues --   -1.09077  -1.05761  -1.05057  -0.96506  -0.95891
 Alpha  occ. eigenvalues --   -0.87135  -0.86473  -0.83354  -0.82697  -0.78410
 Alpha  occ. eigenvalues --   -0.77696  -0.72892  -0.72230  -0.72029  -0.71473
 Alpha  occ. eigenvalues --   -0.71350  -0.70826  -0.65974  -0.65766  -0.65325
 Alpha  occ. eigenvalues --   -0.65076  -0.63104  -0.62365  -0.56206  -0.55661
 Alpha  occ. eigenvalues --   -0.54057  -0.53863  -0.53384  -0.53135  -0.49662
 Alpha  occ. eigenvalues --   -0.49643  -0.48996  -0.48975  -0.45631  -0.44959
 Alpha  occ. eigenvalues --   -0.38257  -0.37738  -0.37321  -0.36628
 Alpha virt. eigenvalues --    0.04122   0.04786   0.10224   0.10983   0.15635
 Alpha virt. eigenvalues --    0.16167   0.18271   0.22084   0.24841   0.26412
 Alpha virt. eigenvalues --    0.27403   0.29332   0.30096   0.31116   0.32111

 Mulliken charges:
               1
     1  C   -0.170250
     2  C   -0.216889
     3  C   -0.182059
     4  C    0.160784
     5  C   -0.169858
     6  C   -0.217250
     7  H    0.229458
     8  H    0.220586
     9  H    0.269936
    10  H    0.278871
    11  H    0.227676
    12  N    0.488408
    13  O   -0.455667
    14  O   -0.462468
    15  C   -0.176380
    16  C   -0.217799
    17  C   -0.170736
    18  C    0.159601
    19  C   -0.171061
    20  C   -0.217947
    21  H    0.215931
    22  H    0.229164
    23  H    0.278586
    24  H    0.276511
    25  H    0.223304
    26  N    0.487841
    27  O   -0.459830
    28  O   -0.458463
 Sum of Mulliken charges =  -0.00000

 Dipole moment (field-independent basis, Debye):
    X=              3.9475    Y=              6.3580    Z=              0.6845  Tot=              7.5151
 Quadrupole moment (field-independent basis, Debye-Ang):
   XX=           -137.0205   YY=           -106.0983   ZZ=           -102.6098
   XY=             10.5526   XZ=            -19.3210   YZ=              2.2766

 Normal termination of Gaussian 16 at Thu May  6 11:23:19 2021.
