 Gaussian 16, Revision A.03,
 Gaussian 16:  EM64L-G16RevA.03 25-Dec-2016

 -------------
 #p 6-31g* mp2
 -------------

 ------------------------------------------------------
 Input file generated by CHIRIPA (05-May-2021 14:55:20)
 ------------------------------------------------------
 Symbolic Z-matrix:
 Charge =  0 Multiplicity = 1

                         Standard orientation:
 ---------------------------------------------------------------------
 Center     Atomic      Atomic             Coordinates (Angstroms)
 Number     Number       Type             X           Y           Z
 ---------------------------------------------------------------------
      1          6           0        0.349681   -0.042039   -0.103557
      2          6           0        1.036065    1.176155   -0.140992
      3          6           0        2.433028    1.205725   -0.094418
      4          6           0        3.114886   -0.007231   -0.010178
      5          6           0        2.459612   -1.237019    0.028908
      6          6           0        1.062389   -1.242621   -0.018876
      7          1           0       -0.735614   -0.055701   -0.140207
      8          1           0        0.485178    2.110095   -0.206744
      9          1           0        2.989628    2.134630   -0.121820
     10          1           0        3.036276   -2.151658    0.094580
     11          1           0        0.531978   -2.190173    0.010362
     12          7           0        4.593926    0.011387    0.039769
     13          8           0        5.171416   -1.071041    0.113877
     14          8           0        5.147701    1.108055    0.003862
     15          6           0       -3.660112   -0.658394    0.387148
     16          6           0       -3.725165   -1.860125   -0.556035
     17          6           0       -3.694387   -3.196509    0.186210
     18          1           0       -2.744450   -0.723209    0.990726
     19          1           0       -4.502526   -0.707466    1.090942
     20          1           0       -2.883663   -1.808059   -1.258729
     21          1           0       -4.640683   -1.792340   -1.157572
     22          1           0       -4.541938   -3.274313    0.874835
     23          1           0       -2.774935   -3.290122    0.773104
     24          1           0       -3.741869   -4.042017   -0.507130
     25          6           0       -3.689962    0.684760   -0.340020
     26          6           0       -3.624909    1.886492    0.603163
     27          6           0       -3.655686    3.222875   -0.139082
     28          1           0       -2.847547    0.733833   -1.043814
     29          1           0       -4.605624    0.749576   -0.943599
     30          1           0       -2.709391    1.818707    1.204701
     31          1           0       -4.466410    1.834425    1.305857
     32          1           0       -4.575138    3.316488   -0.725976
     33          1           0       -2.808135    3.300680   -0.827707
     34          1           0       -3.608204    4.068383    0.554259
 ---------------------------------------------------------------------

 SCF Done:  E(RHF) =  -669.535087893     A.U. after   15 cycles
 E2 =    -0.2092719474D+01 EUMP2 =    -0.67162780736694D+03

 The electronic state is 1-A.
 Alpha  occ. eigenvalues --  -20.60744 -20.60739 -15.85798 -11.31165 -11.27734
 Alpha  occ. eigenvalues --  -11.27731 -11.27414 -11.26746 -11.26736 -11.22798
 Alpha  occ. eigenvalues --  -11.22784 -11.22709 -11.22653 -11.22122 -11.22115
 Alpha  occ. eigenvalues --   -1.59820  -1.39373  -1.19335  -1.09715  -1.08723
 Alpha  occ. eigenvalues --   -1.04742  -1.04688  -0.97144  -0.95564  -0.88142
 Alpha  occ. eigenvalues --   -0.86135  -0.82403  -0.80743  -0.79500  -0.77446
 Alpha  occ. eigenvalues --   -0.72016  -0.71143  -0.70567  -0.66354  -0.64987
 Alpha  occ. eigenvalues --   -0.64704  -0.62195  -0.62001  -0.60485  -0.58729
 Alpha  occ. eigenvalues --   -0.56616  -0.55038  -0.53778  -0.53523  -0.53068
 Alpha  occ. eigenvalues --   -0.52829  -0.51097  -0.49044  -0.48775  -0.48771
 Alpha  occ. eigenvalues --   -0.47804  -0.47020  -0.46989  -0.44968  -0.44779
 Alpha  occ. eigenvalues --   -0.37305  -0.36347
 Alpha virt. eigenvalues --    0.05067   0.11285   0.16489   0.17747   0.21563
 Alpha virt. eigenvalues --    0.23746   0.25389   0.26113   0.26241   0.27225
 Alpha virt. eigenvalues --    0.30075   0.30301   0.30815   0.31555   0.32523

 Mulliken charges:
               1
     1  C   -0.180822
     2  C   -0.223467
     3  C   -0.170453
     4  C    0.158251
     5  C   -0.170427
     6  C   -0.223235
     7  H    0.244354
     8  H    0.224061
     9  H    0.275583
    10  H    0.275570
    11  H    0.223932
    12  N    0.487961
    13  O   -0.460463
    14  O   -0.460462
    15  C   -0.305440
    16  C   -0.301639
    17  C   -0.476011
    18  H    0.143898
    19  H    0.157929
    20  H    0.147754
    21  H    0.157825
    22  H    0.159723
    23  H    0.151393
    24  H    0.164335
    25  C   -0.304598
    26  C   -0.301755
    27  C   -0.476218
    28  H    0.142800
    29  H    0.157831
    30  H    0.148561
    31  H    0.157796
    32  H    0.159608
    33  H    0.151408
    34  H    0.164416
 Sum of Mulliken charges =  -0.00000

 Dipole moment (field-independent basis, Debye):
    X=             -5.5454    Y=             -0.0629    Z=             -0.1576  Tot=              5.5480
 Quadrupole moment (field-independent basis, Debye-Ang):
   XX=           -125.1657   YY=            -90.3401   ZZ=            -95.7941
   XY=             -0.2281   XZ=             -0.6230   YZ=              0.1678

 Normal termination of Gaussian 16 at Wed May  5 22:10:53 2021.
