 Gaussian 16, Revision A.03,
 Gaussian 16:  EM64L-G16RevA.03 25-Dec-2016

 -------------
 #p 6-31g* mp2
 -------------

 ------------------------------------------------------
 Input file generated by CHIRIPA (05-May-2021 14:55:19)
 ------------------------------------------------------
 Symbolic Z-matrix:
 Charge =  0 Multiplicity = 1

                         Standard orientation:
 ---------------------------------------------------------------------
 Center     Atomic      Atomic             Coordinates (Angstroms)
 Number     Number       Type             X           Y           Z
 ---------------------------------------------------------------------
      1          6           0       -3.683521   -2.136506   -0.935144
      2          6           0       -2.507945   -1.869873   -0.225603
      3          6           0       -2.234206   -0.578694    0.235344
      4          6           0       -3.162192    0.426555   -0.032248
      5          6           0       -4.342270    0.192421   -0.736441
      6          6           0       -4.595324   -1.106324   -1.187853
      7          1           0       -3.888134   -3.142464   -1.289515
      8          1           0       -1.798020   -2.667970   -0.027884
      9          1           0       -1.331898   -0.344465    0.787064
     10          1           0       -5.030921    1.008612   -0.918127
     11          1           0       -5.509108   -1.310480   -1.738638
     12          7           0       -2.883346    1.797473    0.450689
     13          8           0       -3.716975    2.665701    0.201931
     14          8           0       -1.836437    1.977813    1.068829
     15          6           0        4.857333   -0.128762    0.086678
     16          6           0        5.240373    0.701770   -1.138670
     17          6           0        6.745902    0.949448   -1.237839
     18          1           0        5.206462    0.384316    0.993212
     19          1           0        5.386457   -1.091043    0.048733
     20          1           0        4.709617    1.661640   -1.099135
     21          1           0        4.890123    0.186749   -2.042381
     22          1           0        7.288933    0.000988   -1.302196
     23          1           0        7.107402    1.484259   -0.353591
     24          1           0        6.997475    1.545013   -2.120943
     25          6           0        3.355529   -0.384803    0.199637
     26          6           0        2.972489   -1.215336    1.424985
     27          6           0        1.466960   -1.463012    1.524154
     28          1           0        2.826405    0.577477    0.237581
     29          1           0        3.006400   -0.897882   -0.706897
     30          1           0        3.322739   -0.700314    2.328696
     31          1           0        3.503245   -2.175206    1.385450
     32          1           0        1.105460   -1.997825    0.639905
     33          1           0        0.923928   -0.514553    1.588510
     34          1           0        1.215386   -2.058578    2.407258
 ---------------------------------------------------------------------

 SCF Done:  E(RHF) =  -669.535738023     A.U. after   15 cycles
 E2 =    -0.2091286300D+01 EUMP2 =    -0.67162702432362D+03

 The electronic state is 1-A.
 Alpha  occ. eigenvalues --  -20.60729 -20.60723 -15.85778 -11.31092 -11.27681
 Alpha  occ. eigenvalues --  -11.27609 -11.27424 -11.26692 -11.26658 -11.21922
 Alpha  occ. eigenvalues --  -11.21708 -11.21591 -11.21511 -11.21420 -11.21046
 Alpha  occ. eigenvalues --   -1.59802  -1.39358  -1.19272  -1.08682  -1.08568
 Alpha  occ. eigenvalues --   -1.04669  -1.03729  -0.96209  -0.95519  -0.87243
 Alpha  occ. eigenvalues --   -0.86071  -0.82353  -0.79813  -0.78353  -0.77395
 Alpha  occ. eigenvalues --   -0.72001  -0.71123  -0.70393  -0.65195  -0.64926
 Alpha  occ. eigenvalues --   -0.64679  -0.62044  -0.61118  -0.59570  -0.57791
 Alpha  occ. eigenvalues --   -0.55511  -0.55184  -0.53009  -0.52943  -0.52840
 Alpha  occ. eigenvalues --   -0.52515  -0.50139  -0.48757  -0.48753  -0.48107
 Alpha  occ. eigenvalues --   -0.46804  -0.45907  -0.45793  -0.44773  -0.43960
 Alpha  occ. eigenvalues --   -0.37265  -0.36269
 Alpha virt. eigenvalues --    0.05125   0.11378   0.16609   0.20438   0.22838
 Alpha virt. eigenvalues --    0.24027   0.25567   0.25879   0.27540   0.27830
 Alpha virt. eigenvalues --    0.29057   0.29698   0.31557   0.31668   0.32322

 Mulliken charges:
               1
     1  C   -0.170520
     2  C   -0.224384
     3  C   -0.177532
     4  C    0.157661
     5  C   -0.170049
     6  C   -0.219239
     7  H    0.225193
     8  H    0.225029
     9  H    0.288558
    10  H    0.275235
    11  H    0.223021
    12  N    0.487327
    13  O   -0.460461
    14  O   -0.462033
    15  C   -0.298661
    16  C   -0.300176
    17  C   -0.475871
    18  H    0.151278
    19  H    0.148473
    20  H    0.154839
    21  H    0.151087
    22  H    0.154371
    23  H    0.155975
    24  H    0.160813
    25  C   -0.300399
    26  C   -0.298226
    27  C   -0.488027
    28  H    0.156206
    29  H    0.147511
    30  H    0.156542
    31  H    0.151960
    32  H    0.147676
    33  H    0.164573
    34  H    0.162250
 Sum of Mulliken charges =  -0.00000

 Dipole moment (field-independent basis, Debye):
    X=             -0.8290    Y=             -4.7633    Z=             -1.6563  Tot=              5.1107
 Quadrupole moment (field-independent basis, Debye-Ang):
   XX=            -85.8730   YY=            -98.4681   ZZ=            -94.2539
   XY=             13.2881   XZ=              7.8287   YZ=             -0.7119

 Normal termination of Gaussian 16 at Thu May  6 12:22:34 2021.
