 Gaussian 16, Revision A.03,
 Gaussian 16:  EM64L-G16RevA.03 25-Dec-2016

 -------------
 #p 6-31g* mp2
 -------------

 ------------------------------------------------------
 Input file generated by CHIRIPA (05-May-2021 14:51:08)
 ------------------------------------------------------
 Symbolic Z-matrix:
 Charge =  0 Multiplicity = 1

                         Standard orientation:
 ---------------------------------------------------------------------
 Center     Atomic      Atomic             Coordinates (Angstroms)
 Number     Number       Type             X           Y           Z
 ---------------------------------------------------------------------
      1          6           0       -1.618066   -1.193752   -0.201255
      2          6           0       -1.367366   -2.702057   -0.213483
      3          6           0        0.086476   -3.057152   -0.526606
      4          1           0       -1.338691   -0.774118   -1.177371
      5          1           0       -0.957159   -0.725249    0.541108
      6          1           0       -2.029531   -3.167746   -0.954621
      7          1           0       -1.647551   -3.118178    0.762712
      8          1           0        0.758963   -2.619342    0.218166
      9          1           0        0.374812   -2.669192   -1.508925
     10          1           0        0.243352   -4.140312   -0.530236
     11          6           0       -3.066916   -0.822952    0.110305
     12          6           0       -3.317617    0.685353    0.122533
     13          6           0       -4.771458    1.040448    0.435657
     14          1           0       -3.727823   -1.291455   -0.632057
     15          1           0       -3.346292   -1.242585    1.086421
     16          1           0       -3.037432    1.101474   -0.853662
     17          1           0       -2.655451    1.151042    0.863672
     18          1           0       -5.059795    0.652488    1.417975
     19          1           0       -5.443945    0.602639   -0.309115
     20          1           0       -4.928334    2.123609    0.439286
     21          6           0        2.846369    0.498861   -0.219019
     22          6           0        3.227729   -0.566763    0.809084
     23          6           0        4.236524   -1.578799    0.265107
     24          1           0        2.431324    0.007873   -1.109869
     25          1           0        3.754263    1.024324   -0.546148
     26          1           0        2.319216   -1.089129    1.135202
     27          1           0        3.641738   -0.073171    1.697667
     28          1           0        5.158896   -1.075843   -0.042895
     29          1           0        3.828860   -2.097573   -0.608555
     30          1           0        4.495131   -2.331418    1.016471
     31          6           0        1.838613    1.517843    0.309969
     32          6           0        1.457254    2.583467   -0.718134
     33          6           0        0.448459    3.595503   -0.174158
     34          1           0        0.930719    0.992380    0.637096
     35          1           0        2.253658    2.008830    1.200818
     36          1           0        1.043245    2.089875   -1.606717
     37          1           0        2.365767    3.105832   -1.044253
     38          1           0        0.856123    4.114277    0.699504
     39          1           0       -0.473914    3.092547    0.133845
     40          1           0        0.189853    4.348122   -0.925521
 ---------------------------------------------------------------------

 SCF Done:  E(RHF) =  -470.733073821     A.U. after   11 cycles
 E2 =    -0.1584717698D+01 EUMP2 =    -0.47231779151918D+03

 The electronic state is 1-A.
 Alpha  occ. eigenvalues --  -11.21686 -11.21684 -11.21559 -11.21543 -11.21501
 Alpha  occ. eigenvalues --  -11.21438 -11.21336 -11.21275 -11.21135 -11.21121
 Alpha  occ. eigenvalues --  -11.21015 -11.21005  -1.08529  -1.08364  -1.03616
 Alpha  occ. eigenvalues --   -1.03468  -0.96063  -0.95913  -0.87080  -0.86930
 Alpha  occ. eigenvalues --   -0.79691  -0.79529  -0.78399  -0.78139  -0.65245
 Alpha  occ. eigenvalues --   -0.64924  -0.61116  -0.60803  -0.59420  -0.59286
 Alpha  occ. eigenvalues --   -0.57695  -0.57510  -0.55437  -0.55118  -0.52743
 Alpha  occ. eigenvalues --   -0.52618  -0.52514  -0.52308  -0.50075  -0.49777
 Alpha  occ. eigenvalues --   -0.48104  -0.47761  -0.46842  -0.46514  -0.46231
 Alpha  occ. eigenvalues --   -0.45866  -0.45661  -0.45140  -0.43862  -0.43724
 Alpha virt. eigenvalues --    0.19748   0.21920   0.23733   0.24450   0.24833
 Alpha virt. eigenvalues --    0.25892   0.27456   0.27860   0.28304   0.29359
 Alpha virt. eigenvalues --    0.30981   0.31381   0.31632   0.31916   0.32484

 Mulliken charges:
               1
     1  C   -0.304128
     2  C   -0.299318
     3  C   -0.482722
     4  H    0.149601
     5  H    0.154156
     6  H    0.152393
     7  H    0.152190
     8  H    0.162257
     9  H    0.154834
    10  H    0.161033
    11  C   -0.297982
    12  C   -0.302337
    13  C   -0.475740
    14  H    0.150082
    15  H    0.149966
    16  H    0.152698
    17  H    0.153309
    18  H    0.155384
    19  H    0.155419
    20  H    0.160858
    21  C   -0.298488
    22  C   -0.303538
    23  C   -0.476582
    24  H    0.150749
    25  H    0.149352
    26  H    0.154100
    27  H    0.151933
    28  H    0.155055
    29  H    0.157054
    30  H    0.159840
    31  C   -0.303920
    32  C   -0.298898
    33  C   -0.478631
    34  H    0.154983
    35  H    0.149000
    36  H    0.151731
    37  H    0.151577
    38  H    0.154666
    39  H    0.158240
    40  H    0.159826
 Sum of Mulliken charges =  -0.00000

 Dipole moment (field-independent basis, Debye):
    X=             -0.0501    Y=             -0.0382    Z=             -0.0043  Tot=              0.0631
 Quadrupole moment (field-independent basis, Debye-Ang):
   XX=            -85.6367   YY=            -85.2933   ZZ=            -83.7848
   XY=              1.4210   XZ=              0.8240   YZ=             -0.0691

 Normal termination of Gaussian 16 at Thu May  6 10:00:46 2021.
