 Gaussian 16, Revision A.03,
 Gaussian 16:  EM64L-G16RevA.03 25-Dec-2016

 -------------
 #p 6-31g* mp2
 -------------

 ------------------------------------------------------
 Input file generated by CHIRIPA (05-May-2021 14:55:22)
 ------------------------------------------------------
 Symbolic Z-matrix:
 Charge =  0 Multiplicity = 1

                         Standard orientation:
 ---------------------------------------------------------------------
 Center     Atomic      Atomic             Coordinates (Angstroms)
 Number     Number       Type             X           Y           Z
 ---------------------------------------------------------------------
      1          6           0        5.886424    1.683807    0.000712
      2          6           0        6.185977    0.318062    0.039840
      3          6           0        5.162178   -0.633933    0.030447
      4          6           0        3.844054   -0.182911   -0.018743
      5          6           0        3.513531    1.170773   -0.058525
      6          6           0        4.553507    2.105061   -0.048259
      7          1           0        6.688019    2.416462    0.008348
      8          1           0        7.220223   -0.011985    0.077908
      9          1           0        5.365784   -1.697459    0.060033
     10          1           0        2.472900    1.469262   -0.096086
     11          1           0        4.317903    3.165065   -0.078720
     12          7           0        2.751641   -1.181373   -0.029149
     13          8           0        1.598514   -0.758256   -0.072814
     14          8           0        3.069220   -2.368178    0.006555
     15          6           0       -4.516922   -0.230630   -0.320252
     16          6           0       -3.301170   -0.267631    0.606334
     17          6           0       -2.040674   -0.778224   -0.092407
     18          1           0       -4.698645   -1.238972   -0.716697
     19          1           0       -4.291076    0.409068   -1.184646
     20          1           0       -3.529736   -0.905961    1.469416
     21          1           0       -3.122435    0.740878    1.000770
     22          1           0       -1.785165   -0.137552   -0.942617
     23          1           0       -2.194781   -1.793747   -0.471307
     24          1           0       -1.183782   -0.796463    0.588227
     25          6           0       -5.784766    0.277613    0.363844
     26          6           0       -7.000519    0.314615   -0.562742
     27          6           0       -8.261014    0.825207    0.136000
     28          1           0       -6.010612   -0.362084    1.228238
     29          1           0       -5.603043    1.285955    0.760288
     30          1           0       -7.179252   -0.693895   -0.957177
     31          1           0       -6.771952    0.952943   -1.425823
     32          1           0       -8.106907    1.840730    0.514899
     33          1           0       -8.516522    0.184535    0.986209
     34          1           0       -9.117906    0.843445   -0.544635
 ---------------------------------------------------------------------

 SCF Done:  E(RHF) =  -669.535740697     A.U. after   15 cycles
 E2 =    -0.2090618959D+01 EUMP2 =    -0.67162635965661D+03

 The electronic state is 1-A.
 Alpha  occ. eigenvalues --  -20.60864 -20.60858 -15.85906 -11.31254 -11.27822
 Alpha  occ. eigenvalues --  -11.27819 -11.27565 -11.26836 -11.26826 -11.21128
 Alpha  occ. eigenvalues --  -11.20792 -11.20690 -11.20620 -11.20557 -11.19516
 Alpha  occ. eigenvalues --   -1.59931  -1.39487  -1.19427  -1.08826  -1.07716
 Alpha  occ. eigenvalues --   -1.04827  -1.02720  -0.95666  -0.95128  -0.86229
 Alpha  occ. eigenvalues --   -0.86132  -0.82496  -0.78807  -0.77554  -0.77495
 Alpha  occ. eigenvalues --   -0.72128  -0.71250  -0.70535  -0.65082  -0.64830
 Alpha  occ. eigenvalues --   -0.64361  -0.62174  -0.60134  -0.58545  -0.56733
 Alpha  occ. eigenvalues --   -0.55330  -0.54439  -0.53158  -0.52920  -0.51757
 Alpha  occ. eigenvalues --   -0.51560  -0.49103  -0.48878  -0.48862  -0.47104
 Alpha  occ. eigenvalues --   -0.45882  -0.45045  -0.44977  -0.44883  -0.42924
 Alpha  occ. eigenvalues --   -0.37408  -0.36430
 Alpha virt. eigenvalues --    0.04978   0.11224   0.16464   0.21346   0.23515
 Alpha virt. eigenvalues --    0.25153   0.27262   0.27313   0.28129   0.28151
 Alpha virt. eigenvalues --    0.28987   0.30921   0.32156   0.32357   0.32510

 Mulliken charges:
               1
     1  C   -0.170701
     2  C   -0.218586
     3  C   -0.170632
     4  C    0.157678
     5  C   -0.170913
     6  C   -0.218534
     7  H    0.225826
     8  H    0.223666
     9  H    0.275799
    10  H    0.275790
    11  H    0.223660
    12  N    0.492572
    13  O   -0.463401
    14  O   -0.459502
    15  C   -0.297138
    16  C   -0.300933
    17  C   -0.475490
    18  H    0.149259
    19  H    0.147270
    20  H    0.149362
    21  H    0.146463
    22  H    0.150380
    23  H    0.153361
    24  H    0.179944
    25  C   -0.297335
    26  C   -0.299017
    27  C   -0.475249
    28  H    0.148747
    29  H    0.147529
    30  H    0.151755
    31  H    0.150781
    32  H    0.154024
    33  H    0.154772
    34  H    0.158792
 Sum of Mulliken charges =  -0.00000

 Dipole moment (field-independent basis, Debye):
    X=              4.1697    Y=              3.4557    Z=              0.0439  Tot=              5.4157
 Quadrupole moment (field-independent basis, Debye-Ang):
   XX=            -65.4400   YY=            -92.7657   ZZ=            -95.8491
   XY=             10.9377   XZ=              0.5306   YZ=             -0.6503

 Normal termination of Gaussian 16 at Wed May  5 17:29:38 2021.
