 Gaussian 16, Revision A.03,
 Gaussian 16:  EM64L-G16RevA.03 25-Dec-2016

 -------------
 #p 6-31g* mp2
 -------------

 ------------------------------------------------------
 Input file generated by CHIRIPA (05-May-2021 14:55:19)
 ------------------------------------------------------
 Symbolic Z-matrix:
 Charge =  0 Multiplicity = 1

                         Standard orientation:
 ---------------------------------------------------------------------
 Center     Atomic      Atomic             Coordinates (Angstroms)
 Number     Number       Type             X           Y           Z
 ---------------------------------------------------------------------
      1          6           0       -1.642341   -2.727043   -0.047452
      2          6           0       -0.976394   -2.053640    0.981899
      3          6           0       -1.069373   -0.663475    1.097418
      4          6           0       -1.840413    0.024896    0.162040
      5          6           0       -2.515675   -0.617450   -0.874639
      6          6           0       -2.408505   -2.008066   -0.970808
      7          1           0       -1.564600   -3.807132   -0.129674
      8          1           0       -0.380669   -2.609420    1.700415
      9          1           0       -0.564197   -0.116928    1.884503
     10          1           0       -3.102026   -0.036169   -1.575868
     11          1           0       -2.926776   -2.528397   -1.771243
     12          7           0       -1.946358    1.496841    0.274092
     13          8           0       -2.631974    2.080289   -0.562660
     14          8           0       -1.341774    2.039231    1.196550
     15          6           0        2.118229    0.900716   -0.571304
     16          6           0        2.164225    2.181094    0.263262
     17          6           0        1.731025    3.416980   -0.525861
     18          1           0        2.764782    1.020808   -1.451356
     19          1           0        1.097391    0.755257   -0.950945
     20          1           0        3.184353    2.323358    0.642361
     21          1           0        1.517636    2.057868    1.141530
     22          1           0        0.705560    3.300814   -0.891273
     23          1           0        2.381746    3.567813   -1.393279
     24          1           0        1.771430    4.320943    0.089832
     25          6           0        2.548530   -0.343409    0.203758
     26          6           0        2.502533   -1.623787   -0.630808
     27          6           0        2.935733   -2.859673    0.158316
     28          1           0        3.569368   -0.197951    0.583399
     29          1           0        1.901976   -0.463501    1.083810
     30          1           0        3.149122   -1.500562   -1.509077
     31          1           0        1.482405   -1.766052   -1.009907
     32          1           0        2.285013   -3.010506    1.025733
     33          1           0        3.961199   -2.743508    0.523727
     34          1           0        2.895329   -3.763637   -0.457378
 ---------------------------------------------------------------------

 SCF Done:  E(RHF) =  -669.534941628     A.U. after   15 cycles
 E2 =    -0.2097142791D+01 EUMP2 =    -0.67163208441880D+03

 The electronic state is 1-A.
 Alpha  occ. eigenvalues --  -20.61049 -20.61038 -15.86065 -11.31381 -11.27943
 Alpha  occ. eigenvalues --  -11.27940 -11.27676 -11.26943 -11.26933 -11.21725
 Alpha  occ. eigenvalues --  -11.21539 -11.21412 -11.21081 -11.20821 -11.20095
 Alpha  occ. eigenvalues --   -1.60102  -1.39657  -1.19565  -1.08962  -1.08267
 Alpha  occ. eigenvalues --   -1.04954  -1.03259  -0.95808  -0.95745  -0.86769
 Alpha  occ. eigenvalues --   -0.86350  -0.82637  -0.79394  -0.78053  -0.77646
 Alpha  occ. eigenvalues --   -0.72289  -0.71451  -0.70661  -0.65214  -0.64971
 Alpha  occ. eigenvalues --   -0.64945  -0.62275  -0.60644  -0.59212  -0.57323
 Alpha  occ. eigenvalues --   -0.55443  -0.55116  -0.53225  -0.53024  -0.52419
 Alpha  occ. eigenvalues --   -0.52171  -0.49764  -0.49052  -0.49011  -0.47680
 Alpha  occ. eigenvalues --   -0.46443  -0.45617  -0.45437  -0.44882  -0.43531
 Alpha  occ. eigenvalues --   -0.37495  -0.36486
 Alpha virt. eigenvalues --    0.04777   0.11006   0.16158   0.19887   0.23273
 Alpha virt. eigenvalues --    0.23931   0.25236   0.26848   0.26959   0.28589
 Alpha virt. eigenvalues --    0.29463   0.30578   0.31481   0.31974   0.32356

 Mulliken charges:
               1
     1  C   -0.171246
     2  C   -0.216263
     3  C   -0.169214
     4  C    0.157420
     5  C   -0.171700
     6  C   -0.218522
     7  H    0.227279
     8  H    0.225977
     9  H    0.276538
    10  H    0.276392
    11  H    0.224507
    12  N    0.489060
    13  O   -0.458905
    14  O   -0.459056
    15  C   -0.300203
    16  C   -0.305164
    17  C   -0.474155
    18  H    0.149274
    19  H    0.145838
    20  H    0.146421
    21  H    0.165301
    22  H    0.164572
    23  H    0.147897
    24  H    0.162086
    25  C   -0.295430
    26  C   -0.302508
    27  C   -0.474876
    28  H    0.150473
    29  H    0.139109
    30  H    0.153250
    31  H    0.155027
    32  H    0.144333
    33  H    0.158145
    34  H    0.158342
 Sum of Mulliken charges =  -0.00000

 Dipole moment (field-independent basis, Debye):
    X=              0.1220    Y=             -5.0791    Z=             -0.3895  Tot=              5.0954
 Quadrupole moment (field-independent basis, Debye-Ang):
   XX=            -94.3620   YY=            -96.4221   ZZ=            -92.0979
   XY=             10.0960   XZ=              3.1792   YZ=             -0.3185

 Normal termination of Gaussian 16 at Thu May  6 07:41:51 2021.
