 Gaussian 16, Revision A.03,
 Gaussian 16:  EM64L-G16RevA.03 25-Dec-2016

 -------------
 #p 6-31g* mp2
 -------------

 ------------------------------------------------------
 Input file generated by CHIRIPA (05-May-2021 14:53:13)
 ------------------------------------------------------
 Symbolic Z-matrix:
 Charge =  0 Multiplicity = 1

                         Standard orientation:
 ---------------------------------------------------------------------
 Center     Atomic      Atomic             Coordinates (Angstroms)
 Number     Number       Type             X           Y           Z
 ---------------------------------------------------------------------
      1          6           0       -4.226115    0.167614   -0.158796
      2          6           0       -3.085367   -0.490681    0.617945
      3          6           0       -1.717721    0.099869    0.273578
      4          1           0       -4.038696    0.058557   -1.235795
      5          1           0       -4.228262    1.246321    0.050441
      6          1           0       -3.086232   -1.568039    0.408385
      7          1           0       -3.275621   -0.380212    1.693220
      8          1           0       -1.692593    1.170820    0.499487
      9          1           0       -1.502129   -0.023756   -0.792648
     10          1           0       -0.916764   -0.385251    0.840134
     11          6           0       -5.599648   -0.412019    0.174610
     12          6           0       -6.740396    0.246275   -0.602131
     13          6           0       -8.108042   -0.344275   -0.257764
     14          1           0       -5.597501   -1.490727   -0.034628
     15          1           0       -5.787068   -0.302963    1.251608
     16          1           0       -6.550143    0.135807   -1.677406
     17          1           0       -6.739531    1.323633   -0.392572
     18          1           0       -8.323634   -0.220650    0.808462
     19          1           0       -8.133170   -1.415225   -0.483673
     20          1           0       -8.908999    0.140846   -0.824320
     21          6           0        2.626193    2.297736    0.210657
     22          6           0        3.949352    2.268523   -0.242022
     23          6           0        4.630681    1.054046   -0.366056
     24          6           0        3.955360   -0.117436   -0.027140
     25          6           0        2.637312   -0.121046    0.426765
     26          6           0        1.975543    1.104962    0.543020
     27          1           0        2.104518    3.245650    0.303988
     28          1           0        4.457158    3.193284   -0.500858
     29          1           0        5.655245    1.002562   -0.713955
     30          1           0        2.157480   -1.059372    0.677208
     31          1           0        0.947984    1.124624    0.894843
     32          7           0        4.666299   -1.409252   -0.154332
     33          8           0        4.049075   -2.427416    0.150651
     34          8           0        5.827295   -1.379153   -0.556599
 ---------------------------------------------------------------------

 SCF Done:  E(RHF) =  -669.535250786     A.U. after   15 cycles
 E2 =    -0.2091220558D+01 EUMP2 =    -0.67162647134392D+03

 The electronic state is 1-A.
 Alpha  occ. eigenvalues --  -20.60693 -20.60688 -15.85744 -11.31087 -11.27650
 Alpha  occ. eigenvalues --  -11.27630 -11.27370 -11.26670 -11.26560 -11.22331
 Alpha  occ. eigenvalues --  -11.22177 -11.21968 -11.21957 -11.21803 -11.21358
 Alpha  occ. eigenvalues --   -1.59768  -1.39323  -1.19247  -1.08976  -1.08647
 Alpha  occ. eigenvalues --   -1.04649  -1.04124  -0.96612  -0.95490  -0.87655
 Alpha  occ. eigenvalues --   -0.86037  -0.82324  -0.80205  -0.78749  -0.77369
 Alpha  occ. eigenvalues --   -0.71963  -0.71091  -0.70364  -0.65601  -0.64899
 Alpha  occ. eigenvalues --   -0.64664  -0.62061  -0.61507  -0.59968  -0.58188
 Alpha  occ. eigenvalues --   -0.55892  -0.55157  -0.53473  -0.53039  -0.52964
 Alpha  occ. eigenvalues --   -0.52563  -0.50528  -0.48720  -0.48718  -0.48509
 Alpha  occ. eigenvalues --   -0.47197  -0.46302  -0.46198  -0.44734  -0.44364
 Alpha  occ. eigenvalues --   -0.37230  -0.36239
 Alpha virt. eigenvalues --    0.05151   0.11392   0.16635   0.20487   0.22482
 Alpha virt. eigenvalues --    0.23786   0.25872   0.26079   0.26732   0.27771
 Alpha virt. eigenvalues --    0.28784   0.30313   0.30937   0.31172   0.32145

 Mulliken charges:
               1
     1  C   -0.299384
     2  C   -0.299581
     3  C   -0.481200
     4  H    0.151323
     5  H    0.148859
     6  H    0.156686
     7  H    0.153620
     8  H    0.150795
     9  H    0.162548
    10  H    0.154385
    11  C   -0.298951
    12  C   -0.300018
    13  C   -0.476035
    14  H    0.151393
    15  H    0.150287
    16  H    0.152723
    17  H    0.151688
    18  H    0.155536
    19  H    0.156211
    20  H    0.161223
    21  C   -0.172592
    22  C   -0.218382
    23  C   -0.171565
    24  C    0.158717
    25  C   -0.174092
    26  C   -0.223239
    27  H    0.225123
    28  H    0.222820
    29  H    0.275117
    30  H    0.274613
    31  H    0.234807
    32  N    0.488153
    33  O   -0.460775
    34  O   -0.460814
 Sum of Mulliken charges =  -0.00000

 Dipole moment (field-independent basis, Debye):
    X=             -2.7672    Y=              4.5170    Z=              0.4087  Tot=              5.3130
 Quadrupole moment (field-independent basis, Debye-Ang):
   XX=           -112.0056   YY=            -94.8296   ZZ=            -94.5353
   XY=             20.4359   XZ=              0.4315   YZ=             -0.5109

 Normal termination of Gaussian 16 at Thu May  6 15:24:54 2021.
