 Gaussian 16, Revision A.03,
 Gaussian 16:  EM64L-G16RevA.03 25-Dec-2016

 -------------
 #p 6-31g* mp2
 -------------

 ------------------------------------------------------
 Input file generated by CHIRIPA (05-May-2021 14:53:12)
 ------------------------------------------------------
 Symbolic Z-matrix:
 Charge =  0 Multiplicity = 1

                         Standard orientation:
 ---------------------------------------------------------------------
 Center     Atomic      Atomic             Coordinates (Angstroms)
 Number     Number       Type             X           Y           Z
 ---------------------------------------------------------------------
      1          6           0        3.297392   -0.061512   -0.650262
      2          6           0        2.226097   -1.023587   -0.135750
      3          6           0        0.955837   -1.003647   -0.986536
      4          1           0        2.885932    0.956870   -0.673575
      5          1           0        3.546144   -0.321965   -1.688377
      6          1           0        1.980438   -0.762262    0.901543
      7          1           0        2.640217   -2.039769   -0.113478
      8          1           0        1.180127   -1.285665   -2.020345
      9          1           0        0.516599   -0.000900   -0.999557
     10          1           0        0.203411   -1.698635   -0.600911
     11          6           0        4.573258   -0.070092    0.189869
     12          6           0        5.644553    0.891984   -0.324643
     13          6           0        6.914813    0.872043    0.526143
     14          1           0        4.324506    0.190361    1.227983
     15          1           0        4.984718   -1.088474    0.213182
     16          1           0        5.230433    1.908165   -0.346915
     17          1           0        5.890212    0.630658   -1.361936
     18          1           0        7.354051   -0.130704    0.539163
     19          1           0        6.690523    1.154062    1.559951
     20          1           0        7.667239    1.567031    0.140518
     21          6           0       -2.256125   -2.303295    0.569205
     22          6           0       -1.968297   -1.299351    1.499675
     23          6           0       -2.416630    0.008829    1.294225
     24          6           0       -3.153588    0.279052    0.142199
     25          6           0       -3.456571   -0.699436   -0.803345
     26          6           0       -2.998035   -2.000666   -0.577314
     27          1           0       -1.903885   -3.316822    0.736797
     28          1           0       -1.392326   -1.531483    2.390976
     29          1           0       -2.208111    0.805255    1.998244
     30          1           0       -4.032898   -0.437538   -1.682365
     31          1           0       -3.223064   -2.778329   -1.301640
     32          7           0       -3.633619    1.660285   -0.086196
     33          8           0       -4.281047    1.872603   -1.109130
     34          8           0       -3.353348    2.504424    0.762047
 ---------------------------------------------------------------------

 SCF Done:  E(RHF) =  -669.534586157     A.U. after   15 cycles
 E2 =    -0.2092805659D+01 EUMP2 =    -0.67162739181589D+03

 The electronic state is 1-A.
 Alpha  occ. eigenvalues --  -20.60807 -20.60802 -15.85861 -11.31246 -11.27812
 Alpha  occ. eigenvalues --  -11.27808 -11.27532 -11.26822 -11.26810 -11.21879
 Alpha  occ. eigenvalues --  -11.21717 -11.21576 -11.21517 -11.21180 -11.21128
 Alpha  occ. eigenvalues --   -1.59882  -1.39435  -1.19418  -1.08825  -1.08601
 Alpha  occ. eigenvalues --   -1.04815  -1.03693  -0.96131  -0.95645  -0.87145
 Alpha  occ. eigenvalues --   -0.86219  -0.82473  -0.79766  -0.78422  -0.77513
 Alpha  occ. eigenvalues --   -0.72079  -0.71205  -0.70535  -0.65237  -0.65071
 Alpha  occ. eigenvalues --   -0.64819  -0.62161  -0.61096  -0.59570  -0.57785
 Alpha  occ. eigenvalues --   -0.55433  -0.55329  -0.53600  -0.52910  -0.52601
 Alpha  occ. eigenvalues --   -0.52273  -0.50048  -0.48839  -0.48832  -0.48083
 Alpha  occ. eigenvalues --   -0.46803  -0.45959  -0.45889  -0.44837  -0.43957
 Alpha  occ. eigenvalues --   -0.37294  -0.36407
 Alpha virt. eigenvalues --    0.04986   0.11205   0.16421   0.21203   0.22730
 Alpha virt. eigenvalues --    0.24219   0.26377   0.27042   0.27549   0.27678
 Alpha virt. eigenvalues --    0.28399   0.30719   0.31237   0.31794   0.32391

 Mulliken charges:
               1
     1  C   -0.298490
     2  C   -0.299050
     3  C   -0.479145
     4  H    0.152175
     5  H    0.150141
     6  H    0.147074
     7  H    0.148876
     8  H    0.152741
     9  H    0.157653
    10  H    0.161831
    11  C   -0.298124
    12  C   -0.299935
    13  C   -0.475769
    14  H    0.148629
    15  H    0.148585
    16  H    0.153415
    17  H    0.152224
    18  H    0.154629
    19  H    0.155108
    20  H    0.161077
    21  C   -0.176683
    22  C   -0.213573
    23  C   -0.170902
    24  C    0.159292
    25  C   -0.170335
    26  C   -0.214878
    27  H    0.226391
    28  H    0.224029
    29  H    0.275644
    30  H    0.275993
    31  H    0.224035
    32  N    0.487897
    33  O   -0.460093
    34  O   -0.460461
 Sum of Mulliken charges =  -0.00000

 Dipole moment (field-independent basis, Debye):
    X=              1.6005    Y=             -4.8433    Z=              0.7978  Tot=              5.1629
 Quadrupole moment (field-independent basis, Debye-Ang):
   XX=           -105.9565   YY=            -97.1313   ZZ=            -91.0132
   XY=             16.5277   XZ=             -0.9380   YZ=              1.3145

 Normal termination of Gaussian 16 at Wed May  5 15:29:53 2021.
