 Gaussian 16, Revision A.03,
 Gaussian 16:  EM64L-G16RevA.03 25-Dec-2016

 -------------
 #p 6-31g* mp2
 -------------

 ------------------------------------------------------
 Input file generated by CHIRIPA (05-May-2021 14:51:12)
 ------------------------------------------------------
 Symbolic Z-matrix:
 Charge =  0 Multiplicity = 1

                         Standard orientation:
 ---------------------------------------------------------------------
 Center     Atomic      Atomic             Coordinates (Angstroms)
 Number     Number       Type             X           Y           Z
 ---------------------------------------------------------------------
      1          6           0        4.160410   -0.384557   -0.299529
      2          6           0        5.353083    0.447338    0.173194
      3          6           0        6.568740    0.312379   -0.744280
      4          1           0        4.459239   -1.439912   -0.361766
      5          1           0        3.888009   -0.076223   -1.318412
      6          1           0        5.622278    0.138481    1.191407
      7          1           0        5.051325    1.500809    0.234496
      8          1           0        6.323149    0.639475   -1.759806
      9          1           0        6.897345   -0.730593   -0.797459
     10          1           0        7.409712    0.915282   -0.387721
     11          6           0        2.937430   -0.260063    0.607415
     12          6           0        1.744757   -1.091959    0.134692
     13          6           0        0.529100   -0.957000    1.052166
     14          1           0        3.209830   -0.568398    1.626298
     15          1           0        2.638601    0.795291    0.669652
     16          1           0        2.046515   -2.145429    0.073390
     17          1           0        1.475562   -0.783102   -0.883521
     18          1           0        0.200494    0.085972    1.105345
     19          1           0        0.774691   -1.284095    2.067692
     20          1           0       -0.311873   -1.559903    0.695607
     21          6           0       -3.716322    1.040249    0.045990
     22          6           0       -2.610685    2.038919   -0.297828
     23          6           0       -2.960325    3.470921    0.108271
     24          1           0       -4.646559    1.347191   -0.451394
     25          1           0       -3.912307    1.078458    1.126510
     26          1           0       -2.415883    1.997844   -1.377172
     27          1           0       -1.682924    1.729457    0.200276
     28          1           0       -3.134507    3.533716    1.187307
     29          1           0       -3.871631    3.803627   -0.399103
     30          1           0       -2.156205    4.168223   -0.146722
     31          6           0       -3.381518   -0.395628   -0.353876
     32          6           0       -4.487155   -1.394299   -0.010057
     33          6           0       -4.137515   -2.826300   -0.416157
     34          1           0       -3.185532   -0.433838   -1.434397
     35          1           0       -2.451281   -0.702571    0.143507
     36          1           0       -5.414915   -1.084836   -0.508162
     37          1           0       -4.681957   -1.353223    1.069286
     38          1           0       -3.226209   -3.159007    0.091217
     39          1           0       -3.963333   -2.889095   -1.495193
     40          1           0       -4.941634   -3.523603   -0.161163
 ---------------------------------------------------------------------

 SCF Done:  E(RHF) =  -470.732936584     A.U. after   11 cycles
 E2 =    -0.1583261723D+01 EUMP2 =    -0.47231619830712D+03

 The electronic state is 1-A.
 Alpha  occ. eigenvalues --  -11.21637 -11.21615 -11.21582 -11.21556 -11.21428
 Alpha  occ. eigenvalues --  -11.21368 -11.21343 -11.21254 -11.21135 -11.21081
 Alpha  occ. eigenvalues --  -11.21063 -11.21062  -1.08459  -1.08383  -1.03563
 Alpha  occ. eigenvalues --   -1.03504  -0.96028  -0.95942  -0.87048  -0.86963
 Alpha  occ. eigenvalues --   -0.79637  -0.79566  -0.78279  -0.78183  -0.65127
 Alpha  occ. eigenvalues --   -0.64993  -0.60992  -0.60882  -0.59432  -0.59291
 Alpha  occ. eigenvalues --   -0.57664  -0.57525  -0.55331  -0.55222  -0.52788
 Alpha  occ. eigenvalues --   -0.52641  -0.52471  -0.52319  -0.49981  -0.49889
 Alpha  occ. eigenvalues --   -0.48022  -0.47812  -0.46734  -0.46552  -0.45838
 Alpha  occ. eigenvalues --   -0.45763  -0.45708  -0.45557  -0.43768  -0.43718
 Alpha virt. eigenvalues --    0.21089   0.23055   0.23474   0.24074   0.26015
 Alpha virt. eigenvalues --    0.26673   0.27165   0.27270   0.27817   0.28858
 Alpha virt. eigenvalues --    0.29940   0.31558   0.31824   0.31901   0.32349

 Mulliken charges:
               1
     1  C   -0.298339
     2  C   -0.299676
     3  C   -0.475723
     4  H    0.149721
     5  H    0.149705
     6  H    0.151924
     7  H    0.151993
     8  H    0.155236
     9  H    0.155204
    10  H    0.160299
    11  C   -0.298731
    12  C   -0.299307
    13  C   -0.483780
    14  H    0.149528
    15  H    0.149715
    16  H    0.152120
    17  H    0.152973
    18  H    0.158432
    19  H    0.155357
    20  H    0.164290
    21  C   -0.297344
    22  C   -0.304180
    23  C   -0.475501
    24  H    0.149364
    25  H    0.149365
    26  H    0.151633
    27  H    0.155736
    28  H    0.155233
    29  H    0.155281
    30  H    0.159787
    31  C   -0.307581
    32  C   -0.299098
    33  C   -0.476141
    34  H    0.148516
    35  H    0.160401
    36  H    0.151680
    37  H    0.151822
    38  H    0.154582
    39  H    0.155153
    40  H    0.160351
 Sum of Mulliken charges =  -0.00000

 Dipole moment (field-independent basis, Debye):
    X=              0.0384    Y=             -0.0113    Z=              0.0082  Tot=              0.0409
 Quadrupole moment (field-independent basis, Debye-Ang):
   XX=            -85.5504   YY=            -85.3627   ZZ=            -84.0121
   XY=             -0.2284   XZ=              1.1029   YZ=             -0.8483

 Normal termination of Gaussian 16 at Thu May  6 07:04:30 2021.
