 Gaussian 16, Revision A.03,
 Gaussian 16:  EM64L-G16RevA.03 25-Dec-2016

 -------------
 #p 6-31g* mp2
 -------------

 ------------------------------------------------------
 Input file generated by CHIRIPA (05-May-2021 14:55:20)
 ------------------------------------------------------
 Symbolic Z-matrix:
 Charge =  0 Multiplicity = 1

                         Standard orientation:
 ---------------------------------------------------------------------
 Center     Atomic      Atomic             Coordinates (Angstroms)
 Number     Number       Type             X           Y           Z
 ---------------------------------------------------------------------
      1          6           0        1.596554   -2.135167    1.404116
      2          6           0        0.756525   -1.669919    0.387054
      3          6           0        1.127494   -0.570574   -0.392927
      4          6           0        2.351017    0.042397   -0.127318
      5          6           0        3.209715   -0.397607    0.878826
      6          6           0        2.818314   -1.498649    1.646329
      7          1           0        1.300441   -2.989824    2.005177
      8          1           0       -0.192889   -2.162286    0.196702
      9          1           0        0.496368   -0.189627   -1.186638
     10          1           0        4.150043    0.113878    1.044909
     11          1           0        3.472705   -1.857790    2.435528
     12          7           0        2.754561    1.207123   -0.946443
     13          8           0        3.837631    1.729701   -0.692458
     14          8           0        1.980147    1.575402   -1.826949
     15          6           0       -2.797916    0.942398   -0.069470
     16          6           0       -3.120398    1.714979    1.210025
     17          6           0       -2.862713    3.216037    1.075056
     18          1           0       -1.746284    1.112672   -0.337840
     19          1           0       -3.400460    1.346042   -0.894944
     20          1           0       -2.518441    1.309083    2.033136
     21          1           0       -4.171333    1.542692    1.475486
     22          1           0       -3.474263    3.641281    0.272700
     23          1           0       -1.811978    3.406344    0.833518
     24          1           0       -3.099837    3.748948    2.001144
     25          6           0       -3.050425   -0.559515    0.049799
     26          6           0       -2.727943   -1.332096   -1.229697
     27          6           0       -2.985628   -2.833155   -1.094729
     28          1           0       -2.447882   -0.963159    0.875272
     29          1           0       -4.102057   -0.729789    0.318169
     30          1           0       -1.677008   -1.159809   -1.495157
     31          1           0       -3.329901   -0.926200   -2.052807
     32          1           0       -4.036362   -3.023461   -0.853189
     33          1           0       -2.374079   -3.258398   -0.292371
     34          1           0       -2.748504   -3.366065   -2.020816
 ---------------------------------------------------------------------

 SCF Done:  E(RHF) =  -669.534314273     A.U. after   15 cycles
 E2 =    -0.2094211650D+01 EUMP2 =    -0.67162852592326D+03

 The electronic state is 1-A.
 Alpha  occ. eigenvalues --  -20.60788 -20.60783 -15.85838 -11.31203 -11.27769
 Alpha  occ. eigenvalues --  -11.27747 -11.27500 -11.26787 -11.26725 -11.22556
 Alpha  occ. eigenvalues --  -11.22092 -11.22086 -11.21846 -11.21756 -11.21094
 Alpha  occ. eigenvalues --   -1.59862  -1.39416  -1.19374  -1.09048  -1.08762
 Alpha  occ. eigenvalues --   -1.04789  -1.04094  -0.96528  -0.95604  -0.87545
 Alpha  occ. eigenvalues --   -0.86178  -0.82448  -0.80206  -0.78774  -0.77501
 Alpha  occ. eigenvalues --   -0.72057  -0.71186  -0.70501  -0.65905  -0.65005
 Alpha  occ. eigenvalues --   -0.64745  -0.62312  -0.61200  -0.59932  -0.58112
 Alpha  occ. eigenvalues --   -0.55858  -0.55264  -0.53235  -0.53105  -0.52937
 Alpha  occ. eigenvalues --   -0.52821  -0.50504  -0.48819  -0.48816  -0.48470
 Alpha  occ. eigenvalues --   -0.47278  -0.46290  -0.46187  -0.44820  -0.44326
 Alpha  occ. eigenvalues --   -0.37349  -0.36360
 Alpha virt. eigenvalues --    0.05011   0.11187   0.16448   0.19151   0.23223
 Alpha virt. eigenvalues --    0.23525   0.24450   0.25877   0.27409   0.28571
 Alpha virt. eigenvalues --    0.29713   0.30631   0.31207   0.31320   0.32219

 Mulliken charges:
               1
     1  C   -0.173352
     2  C   -0.225460
     3  C   -0.181478
     4  C    0.160388
     5  C   -0.170920
     6  C   -0.218372
     7  H    0.225982
     8  H    0.236580
     9  H    0.280853
    10  H    0.275614
    11  H    0.223575
    12  N    0.488690
    13  O   -0.460297
    14  O   -0.460901
    15  C   -0.301399
    16  C   -0.300073
    17  C   -0.476871
    18  H    0.152807
    19  H    0.153143
    20  H    0.151484
    21  H    0.151614
    22  H    0.156512
    23  H    0.160535
    24  H    0.160496
    25  C   -0.300404
    26  C   -0.309476
    27  C   -0.477811
    28  H    0.144882
    29  H    0.153519
    30  H    0.145204
    31  H    0.161914
    32  H    0.161781
    33  H    0.145831
    34  H    0.165411
 Sum of Mulliken charges =  -0.00000

 Dipole moment (field-independent basis, Debye):
    X=             -1.5743    Y=             -4.0081    Z=              2.8462  Tot=              5.1618
 Quadrupole moment (field-independent basis, Debye-Ang):
   XX=            -96.3883   YY=            -96.7579   ZZ=            -94.5145
   XY=             -9.7420   XZ=             10.2351   YZ=              0.7745

 Normal termination of Gaussian 16 at Thu May  6 10:48:46 2021.
