 Gaussian 16, Revision A.03,
 Gaussian 16:  EM64L-G16RevA.03 25-Dec-2016

 -------------
 #p 6-31g* mp2
 -------------

 ------------------------------------------------------
 Input file generated by CHIRIPA (05-May-2021 14:51:09)
 ------------------------------------------------------
 Symbolic Z-matrix:
 Charge =  0 Multiplicity = 1

                         Standard orientation:
 ---------------------------------------------------------------------
 Center     Atomic      Atomic             Coordinates (Angstroms)
 Number     Number       Type             X           Y           Z
 ---------------------------------------------------------------------
      1          6           0        3.325042   -0.454567   -0.648047
      2          6           0        2.708116   -1.780645   -0.202060
      3          6           0        3.443744   -2.995205   -0.769059
      4          1           0        3.322551   -0.407067   -1.745628
      5          1           0        4.378287   -0.424933   -0.336293
      6          1           0        1.655970   -1.807185   -0.513350
      7          1           0        2.711901   -1.824911    0.894591
      8          1           0        4.490320   -2.996313   -0.447690
      9          1           0        3.428390   -2.978486   -1.863630
     10          1           0        2.986084   -3.932520   -0.437624
     11          6           0        2.600638    0.768883   -0.089354
     12          6           0        3.217564    2.094961   -0.535342
     13          6           0        2.481937    3.309521    0.031658
     14          1           0        1.547393    0.739249   -0.401108
     15          1           0        2.603129    0.721382    1.008226
     16          1           0        3.213779    2.139227   -1.631992
     17          1           0        4.269710    2.121500   -0.224052
     18          1           0        2.497291    3.292802    1.126229
     19          1           0        1.435360    3.310629   -0.289711
     20          1           0        2.939596    4.246835   -0.299777
     21          6           0       -3.705608   -0.011894    0.265612
     22          6           0       -4.134990   -0.059915   -1.201121
     23          6           0       -5.623617    0.232769   -1.391179
     24          1           0       -4.299423   -0.736983    0.838827
     25          1           0       -3.940766    0.979496    0.677002
     26          1           0       -3.897827   -1.050462   -1.610006
     27          1           0       -3.539950    0.665237   -1.770945
     28          1           0       -5.872294    1.228296   -1.009490
     29          1           0       -6.232204   -0.497151   -0.847636
     30          1           0       -5.908930    0.193236   -2.447064
     31          6           0       -2.220073   -0.302422    0.471788
     32          6           0       -1.790690   -0.254400    1.938523
     33          6           0       -0.302063   -0.547084    2.128580
     34          1           0       -1.984914   -1.293812    0.060399
     35          1           0       -1.626257    0.422668   -0.101426
     36          1           0       -2.385730   -0.979552    2.508347
     37          1           0       -2.027853    0.736146    2.347407
     38          1           0        0.306524    0.182836    1.585038
     39          1           0       -0.053387   -1.542612    1.746891
     40          1           0       -0.016750   -0.507552    3.184466
 ---------------------------------------------------------------------

 SCF Done:  E(RHF) =  -470.732129763     A.U. after   11 cycles
 E2 =    -0.1584176987D+01 EUMP2 =    -0.47231630675006D+03

 The electronic state is 1-A.
 Alpha  occ. eigenvalues --  -11.21618 -11.21605 -11.21540 -11.21513 -11.21401
 Alpha  occ. eigenvalues --  -11.21395 -11.21341 -11.21336 -11.21117 -11.21072
 Alpha  occ. eigenvalues --  -11.21043 -11.20815  -1.08458  -1.08383  -1.03531
 Alpha  occ. eigenvalues --   -1.03474  -0.96009  -0.95906  -0.87011  -0.86942
 Alpha  occ. eigenvalues --   -0.79608  -0.79587  -0.78389  -0.78058  -0.65073
 Alpha  occ. eigenvalues --   -0.65026  -0.60928  -0.60888  -0.59361  -0.59295
 Alpha  occ. eigenvalues --   -0.57697  -0.57476  -0.55279  -0.55211  -0.52739
 Alpha  occ. eigenvalues --   -0.52609  -0.52464  -0.52284  -0.49934  -0.49881
 Alpha  occ. eigenvalues --   -0.47991  -0.47906  -0.46633  -0.46582  -0.46054
 Alpha  occ. eigenvalues --   -0.45714  -0.45676  -0.45181  -0.43781  -0.43739
 Alpha virt. eigenvalues --    0.21406   0.23178   0.23803   0.24035   0.25690
 Alpha virt. eigenvalues --    0.26097   0.26742   0.27885   0.28091   0.29907
 Alpha virt. eigenvalues --    0.30402   0.31198   0.31643   0.32042   0.32165

 Mulliken charges:
               1
     1  C   -0.297807
     2  C   -0.301705
     3  C   -0.475747
     4  H    0.149346
     5  H    0.149338
     6  H    0.153642
     7  H    0.154501
     8  H    0.154977
     9  H    0.154905
    10  H    0.159887
    11  C   -0.304045
    12  C   -0.298494
    13  C   -0.476366
    14  H    0.151984
    15  H    0.153122
    16  H    0.151860
    17  H    0.152032
    18  H    0.155371
    19  H    0.154300
    20  H    0.160772
    21  C   -0.298154
    22  C   -0.299601
    23  C   -0.475689
    24  H    0.149874
    25  H    0.149638
    26  H    0.151803
    27  H    0.151558
    28  H    0.155233
    29  H    0.155246
    30  H    0.160180
    31  C   -0.299114
    32  C   -0.299641
    33  C   -0.484888
    34  H    0.149102
    35  H    0.148983
    36  H    0.151128
    37  H    0.151309
    38  H    0.166420
    39  H    0.156994
    40  H    0.157745
 Sum of Mulliken charges =  -0.00000

 Dipole moment (field-independent basis, Debye):
    X=              0.0528    Y=              0.0098    Z=             -0.0084  Tot=              0.0543
 Quadrupole moment (field-independent basis, Debye-Ang):
   XX=            -85.6676   YY=            -84.8200   ZZ=            -84.4301
   XY=              0.8449   XZ=              0.4088   YZ=             -0.3499

 Normal termination of Gaussian 16 at Thu May  6 02:09:56 2021.
