 Gaussian 16, Revision A.03,
 Gaussian 16:  EM64L-G16RevA.03 25-Dec-2016

 -------------
 #p 6-31g* mp2
 -------------

 ------------------------------------------------------
 Input file generated by CHIRIPA (05-May-2021 14:55:25)
 ------------------------------------------------------
 Symbolic Z-matrix:
 Charge =  0 Multiplicity = 1

                         Standard orientation:
 ---------------------------------------------------------------------
 Center     Atomic      Atomic             Coordinates (Angstroms)
 Number     Number       Type             X           Y           Z
 ---------------------------------------------------------------------
      1          6           0       -3.731050    1.936894   -0.336452
      2          6           0       -2.366862    1.804599   -0.615754
      3          6           0       -1.723499    0.574942   -0.446710
      4          6           0       -2.478209   -0.506440    0.005304
      5          6           0       -3.838738   -0.406332    0.292060
      6          6           0       -4.461347    0.832952    0.115767
      7          1           0       -4.222769    2.895860   -0.470585
      8          1           0       -1.797199    2.660223   -0.967088
      9          1           0       -0.668586    0.444551   -0.655455
     10          1           0       -4.380198   -1.277293    0.640866
     11          1           0       -5.520918    0.932763    0.333461
     12          7           0       -1.808094   -1.813319    0.188100
     13          8           0       -2.495290   -2.750794    0.587524
     14          8           0       -0.608352   -1.875429   -0.071509
     15          6           0        3.761288   -0.232428    0.161787
     16          6           0        3.262583   -1.511748   -0.510984
     17          6           0        4.168983   -2.713279   -0.241622
     18          1           0        4.778275   -0.012718   -0.190927
     19          1           0        3.835773   -0.401169    1.245010
     20          1           0        3.187741   -1.340211   -1.592460
     21          1           0        2.246590   -1.728332   -0.156773
     22          1           0        4.235248   -2.912641    0.832838
     23          1           0        5.181746   -2.522314   -0.611006
     24          1           0        3.793848   -3.617049   -0.731862
     25          6           0        2.865660    0.977517   -0.098239
     26          6           0        3.364364    2.256837    0.574531
     27          6           0        2.457965    3.458368    0.305169
     28          1           0        2.791174    1.146258   -1.181462
     29          1           0        1.848671    0.757807    0.254475
     30          1           0        4.380357    2.473421    0.220321
     31          1           0        3.439206    2.085300    1.656007
     32          1           0        1.445202    3.267403    0.674554
     33          1           0        2.391700    3.657730   -0.769290
     34          1           0        2.833099    4.362138    0.795410
 ---------------------------------------------------------------------

 SCF Done:  E(RHF) =  -669.536288119     A.U. after   15 cycles
 E2 =    -0.2091902312D+01 EUMP2 =    -0.67162819043141D+03

 The electronic state is 1-A.
 Alpha  occ. eigenvalues --  -20.60904 -20.60890 -15.85945 -11.31242 -11.27810
 Alpha  occ. eigenvalues --  -11.27782 -11.27542 -11.26815 -11.26794 -11.21655
 Alpha  occ. eigenvalues --  -11.21397 -11.21317 -11.20920 -11.20622 -11.20255
 Alpha  occ. eigenvalues --   -1.59967  -1.39524  -1.19411  -1.08820  -1.08134
 Alpha  occ. eigenvalues --   -1.04803  -1.03172  -0.95694  -0.95665  -0.86717
 Alpha  occ. eigenvalues --   -0.86204  -0.82501  -0.79306  -0.77905  -0.77501
 Alpha  occ. eigenvalues --   -0.72171  -0.71282  -0.70521  -0.65071  -0.64837
 Alpha  occ. eigenvalues --   -0.64726  -0.62149  -0.60553  -0.59112  -0.57258
 Alpha  occ. eigenvalues --   -0.55313  -0.55005  -0.53139  -0.52900  -0.52379
 Alpha  occ. eigenvalues --   -0.52106  -0.49662  -0.48928  -0.48921  -0.47598
 Alpha  occ. eigenvalues --   -0.46344  -0.45412  -0.45253  -0.44892  -0.43443
 Alpha  occ. eigenvalues --   -0.37393  -0.36404
 Alpha virt. eigenvalues --    0.04953   0.11224   0.16457   0.20366   0.23165
 Alpha virt. eigenvalues --    0.24517   0.25254   0.27173   0.27187   0.28300
 Alpha virt. eigenvalues --    0.29835   0.30921   0.31674   0.31941   0.32548

 Mulliken charges:
               1
     1  C   -0.170447
     2  C   -0.220878
     3  C   -0.176256
     4  C    0.156756
     5  C   -0.170390
     6  C   -0.218744
     7  H    0.225949
     8  H    0.225313
     9  H    0.283590
    10  H    0.275613
    11  H    0.223614
    12  N    0.495784
    13  O   -0.459162
    14  O   -0.468967
    15  C   -0.297060
    16  C   -0.312298
    17  C   -0.475002
    18  H    0.146993
    19  H    0.149843
    20  H    0.146802
    21  H    0.181925
    22  H    0.154506
    23  H    0.149727
    24  H    0.163186
    25  C   -0.303362
    26  C   -0.298502
    27  C   -0.476390
    28  H    0.146294
    29  H    0.150847
    30  H    0.153369
    31  H    0.153905
    32  H    0.149223
    33  H    0.152528
    34  H    0.161694
 Sum of Mulliken charges =  -0.00000

 Dipole moment (field-independent basis, Debye):
    X=             -2.4737    Y=              4.4654    Z=             -0.5960  Tot=              5.1395
 Quadrupole moment (field-independent basis, Debye-Ang):
   XX=            -79.8080   YY=           -100.0665   ZZ=            -94.5182
   XY=             -7.8431   XZ=             -0.2184   YZ=             -0.4873

 Normal termination of Gaussian 16 at Thu May  6 07:58:24 2021.
