 Gaussian 16, Revision A.03,
 Gaussian 16:  EM64L-G16RevA.03 25-Dec-2016

 -------------
 #p 6-31g* mp2
 -------------

 ------------------------------------------------------
 Input file generated by CHIRIPA (05-May-2021 14:53:17)
 ------------------------------------------------------
 Symbolic Z-matrix:
 Charge =  0 Multiplicity = 1

                         Standard orientation:
 ---------------------------------------------------------------------
 Center     Atomic      Atomic             Coordinates (Angstroms)
 Number     Number       Type             X           Y           Z
 ---------------------------------------------------------------------
      1          6           0        2.649170    1.293378   -0.064793
      2          6           0        1.259773    1.625657   -0.609911
      3          6           0        0.944853    3.120815   -0.554036
      4          1           0        2.723071    1.646583    0.972863
      5          1           0        3.403247    1.849563   -0.638745
      6          1           0        0.508640    1.067946   -0.036001
      7          1           0        1.189106    1.271449   -1.646327
      8          1           0        1.672149    3.689928   -1.142043
      9          1           0        0.987816    3.485269    0.477433
     10          1           0       -0.053117    3.335907   -0.948561
     11          6           0        2.978623   -0.197517   -0.113988
     12          6           0        4.368019   -0.529795    0.431129
     13          6           0        4.682939   -2.024953    0.375254
     14          1           0        2.224545   -0.753701    0.459964
     15          1           0        2.904722   -0.550722   -1.151644
     16          1           0        4.438686   -0.175588    1.467546
     17          1           0        5.119153    0.027916   -0.142781
     18          1           0        4.639976   -2.389408   -0.656215
     19          1           0        3.955644   -2.594067    0.963262
     20          1           0        5.680910   -2.240046    0.769779
     21          6           0       -2.462685    1.989107    0.743116
     22          6           0       -2.371238    1.645231   -0.609624
     23          6           0       -2.224598    0.309147   -0.994232
     24          6           0       -2.172803   -0.661755    0.004747
     25          6           0       -2.261181   -0.350816    1.360768
     26          6           0       -2.407462    0.991744    1.722269
     27          1           0       -2.576459    3.029525    1.032915
     28          1           0       -2.413827    2.417687   -1.372213
     29          1           0       -2.151391    0.014982   -2.034196
     30          1           0       -2.215584   -1.143054    2.098126
     31          1           0       -2.478228    1.255873    2.773589
     32          7           0       -2.017751   -2.079636   -0.390190
     33          8           0       -1.974772   -2.916244    0.509185
     34          8           0       -1.942137   -2.327512   -1.591637
 ---------------------------------------------------------------------

 SCF Done:  E(RHF) =  -669.533711761     A.U. after   15 cycles
 E2 =    -0.2095012816D+01 EUMP2 =    -0.67162872457651D+03

 The electronic state is 1-A.
 Alpha  occ. eigenvalues --  -20.60812 -20.60805 -15.85867 -11.31252 -11.27851
 Alpha  occ. eigenvalues --  -11.27789 -11.27551 -11.26865 -11.26797 -11.21686
 Alpha  occ. eigenvalues --  -11.21499 -11.21494 -11.21442 -11.21286 -11.20853
 Alpha  occ. eigenvalues --   -1.59887  -1.39439  -1.19449  -1.08833  -1.08441
 Alpha  occ. eigenvalues --   -1.04856  -1.03571  -0.96052  -0.95650  -0.87077
 Alpha  occ. eigenvalues --   -0.86231  -0.82484  -0.79652  -0.78240  -0.77534
 Alpha  occ. eigenvalues --   -0.72084  -0.71212  -0.70528  -0.65103  -0.65072
 Alpha  occ. eigenvalues --   -0.64870  -0.62211  -0.61004  -0.59508  -0.57705
 Alpha  occ. eigenvalues --   -0.55385  -0.55303  -0.53215  -0.52985  -0.52622
 Alpha  occ. eigenvalues --   -0.52427  -0.49966  -0.48845  -0.48837  -0.47938
 Alpha  occ. eigenvalues --   -0.46623  -0.45774  -0.45660  -0.44839  -0.43836
 Alpha  occ. eigenvalues --   -0.37383  -0.36390
 Alpha virt. eigenvalues --    0.04994   0.11131   0.16422   0.20700   0.22957
 Alpha virt. eigenvalues --    0.24379   0.26327   0.26614   0.27185   0.28152
 Alpha virt. eigenvalues --    0.28708   0.30264   0.31318   0.31675   0.32078

 Mulliken charges:
               1
     1  C   -0.297973
     2  C   -0.303200
     3  C   -0.473178
     4  H    0.147556
     5  H    0.148708
     6  H    0.161213
     7  H    0.149954
     8  H    0.155923
     9  H    0.152162
    10  H    0.148797
    11  C   -0.298866
    12  C   -0.299668
    13  C   -0.476106
    14  H    0.150751
    15  H    0.152257
    16  H    0.150343
    17  H    0.151089
    18  H    0.156951
    19  H    0.157843
    20  H    0.159350
    21  C   -0.168610
    22  C   -0.214972
    23  C   -0.171246
    24  C    0.159262
    25  C   -0.172922
    26  C   -0.218855
    27  H    0.226603
    28  H    0.223660
    29  H    0.275770
    30  H    0.275888
    31  H    0.223887
    32  N    0.488225
    33  O   -0.460648
    34  O   -0.459945
 Sum of Mulliken charges =  -0.00000

 Dipole moment (field-independent basis, Debye):
    X=             -0.6063    Y=              4.8843    Z=              1.3993  Tot=              5.1169
 Quadrupole moment (field-independent basis, Debye-Ang):
   XX=            -93.2348   YY=           -103.0916   ZZ=            -89.2748
   XY=            -10.4560   XZ=             -3.6011   YZ=             -2.3451

 Normal termination of Gaussian 16 at Wed May  5 20:24:23 2021.
