 Gaussian 16, Revision A.03,
 Gaussian 16:  EM64L-G16RevA.03 25-Dec-2016

 -------------
 #p 6-31g* mp2
 -------------

 ------------------------------------------------------
 Input file generated by CHIRIPA (05-May-2021 14:53:16)
 ------------------------------------------------------
 Symbolic Z-matrix:
 Charge =  0 Multiplicity = 1

                         Standard orientation:
 ---------------------------------------------------------------------
 Center     Atomic      Atomic             Coordinates (Angstroms)
 Number     Number       Type             X           Y           Z
 ---------------------------------------------------------------------
      1          6           0       -3.429985    0.884178   -0.371046
      2          6           0       -4.210521    1.905707    0.456739
      3          6           0       -3.877246    3.349808    0.080846
      4          1           0       -2.353641    1.059963   -0.238650
      5          1           0       -3.644290    1.045469   -1.436623
      6          1           0       -3.995883    1.741648    1.520520
      7          1           0       -5.285131    1.727348    0.322507
      8          1           0       -4.108350    3.536754   -0.972835
      9          1           0       -2.811777    3.551136    0.231985
     10          1           0       -4.446358    4.063414    0.684781
     11          6           0       -3.752315   -0.563999   -0.006883
     12          6           0       -2.971779   -1.585528   -0.834668
     13          6           0       -3.305053   -3.029628   -0.458775
     14          1           0       -3.538010   -0.725289    1.058694
     15          1           0       -4.828659   -0.739784   -0.139279
     16          1           0       -1.897169   -1.407169   -0.700436
     17          1           0       -3.186417   -1.421469   -1.898449
     18          1           0       -4.370523   -3.230956   -0.609914
     19          1           0       -3.073949   -3.216575    0.594906
     20          1           0       -2.735941   -3.743235   -1.062710
     21          6           0        4.623451    1.113770   -1.087915
     22          6           0        3.686037    0.355969   -1.797504
     23          6           0        2.674495   -0.334556   -1.123336
     24          6           0        2.629842   -0.244836    0.267076
     25          6           0        3.549210    0.501846    1.002275
     26          6           0        4.552171    1.184165    0.307250
     27          1           0        5.405907    1.647000   -1.619726
     28          1           0        3.738956    0.299488   -2.881042
     29          1           0        1.935899   -0.928573   -1.647779
     30          1           0        3.470764    0.539064    2.082034
     31          1           0        5.278827    1.771913    0.860936
     32          7           0        1.563510   -0.971522    0.991828
     33          8           0        1.545863   -0.876365    2.217091
     34          8           0        0.765556   -1.622494    0.320901
 ---------------------------------------------------------------------

 SCF Done:  E(RHF) =  -669.536268766     A.U. after   15 cycles
 E2 =    -0.2090981214D+01 EUMP2 =    -0.67162724997965D+03

 The electronic state is 1-A.
 Alpha  occ. eigenvalues --  -20.60999 -20.60989 -15.86027 -11.31321 -11.27882
 Alpha  occ. eigenvalues --  -11.27878 -11.27616 -11.26884 -11.26874 -11.21006
 Alpha  occ. eigenvalues --  -11.20651 -11.20644 -11.20405 -11.20316 -11.19911
 Alpha  occ. eigenvalues --   -1.60057  -1.39614  -1.19489  -1.08898  -1.07564
 Alpha  occ. eigenvalues --   -1.04881  -1.02653  -0.95744  -0.95140  -0.86282
 Alpha  occ. eigenvalues --   -0.86162  -0.82580  -0.78755  -0.77642  -0.77340
 Alpha  occ. eigenvalues --   -0.72253  -0.71370  -0.70597  -0.65146  -0.64883
 Alpha  occ. eigenvalues --   -0.64179  -0.62228  -0.60025  -0.58541  -0.56740
 Alpha  occ. eigenvalues --   -0.55386  -0.54426  -0.53214  -0.52972  -0.51851
 Alpha  occ. eigenvalues --   -0.51571  -0.49098  -0.49013  -0.48994  -0.47075
 Alpha  occ. eigenvalues --   -0.45798  -0.45176  -0.44878  -0.44581  -0.42922
 Alpha  occ. eigenvalues --   -0.37466  -0.36481
 Alpha virt. eigenvalues --    0.04860   0.11174   0.16334   0.21274   0.23705
 Alpha virt. eigenvalues --    0.25185   0.27135   0.27445   0.27996   0.28610
 Alpha virt. eigenvalues --    0.28803   0.30818   0.32018   0.32338   0.32901

 Mulliken charges:
               1
     1  C   -0.297362
     2  C   -0.299304
     3  C   -0.475039
     4  H    0.149863
     5  H    0.145451
     6  H    0.153596
     7  H    0.150527
     8  H    0.153104
     9  H    0.153607
    10  H    0.158546
    11  C   -0.297679
    12  C   -0.309395
    13  C   -0.473326
    14  H    0.153984
    15  H    0.144958
    16  H    0.175268
    17  H    0.142529
    18  H    0.148178
    19  H    0.160695
    20  H    0.157888
    21  C   -0.170507
    22  C   -0.218502
    23  C   -0.170652
    24  C    0.157613
    25  C   -0.170747
    26  C   -0.218566
    27  H    0.226156
    28  H    0.224080
    29  H    0.276006
    30  H    0.275837
    31  H    0.223925
    32  N    0.491107
    33  O   -0.458846
    34  O   -0.462993
 Sum of Mulliken charges =  -0.00000

 Dipole moment (field-independent basis, Debye):
    X=              4.0573    Y=              2.5025    Z=             -2.4470  Tot=              5.3584
 Quadrupole moment (field-independent basis, Debye-Ang):
   XX=            -75.3105   YY=            -97.7430   ZZ=            -92.0993
   XY=              6.6715   XZ=             -3.9546   YZ=              3.0371

 Normal termination of Gaussian 16 at Thu May  6 10:39:42 2021.
