 Gaussian 16, Revision A.03,
 Gaussian 16:  EM64L-G16RevA.03 25-Dec-2016

 -------------
 #p 6-31g* mp2
 -------------

 ------------------------------------------------------
 Input file generated by CHIRIPA (05-May-2021 14:55:22)
 ------------------------------------------------------
 Symbolic Z-matrix:
 Charge =  0 Multiplicity = 1

                         Standard orientation:
 ---------------------------------------------------------------------
 Center     Atomic      Atomic             Coordinates (Angstroms)
 Number     Number       Type             X           Y           Z
 ---------------------------------------------------------------------
      1          6           0       -0.157374   -1.560040    1.189509
      2          6           0       -0.681137   -0.405251    1.779979
      3          6           0       -1.816878    0.211973    1.247368
      4          6           0       -2.406181   -0.355065    0.118440
      5          6           0       -1.908060   -1.504776   -0.492567
      6          6           0       -0.771424   -2.105156    0.057117
      7          1           0        0.725245   -2.032972    1.609885
      8          1           0       -0.206338    0.020306    2.659474
      9          1           0       -2.243285    1.106707    1.684456
     10          1           0       -2.403282   -1.905676   -1.368611
     11          1           0       -0.366856   -3.001903   -0.403551
     12          7           0       -3.609013    0.289446   -0.454448
     13          8           0       -4.109685   -0.229801   -1.449610
     14          8           0       -4.028345    1.301657    0.102531
     15          6           0        2.349528    1.143367   -0.497252
     16          6           0        2.599703    2.480525    0.200893
     17          6           0        1.638266    3.576697   -0.259366
     18          1           0        2.441239    1.281216   -1.583315
     19          1           0        1.314213    0.827239   -0.308623
     20          1           0        3.634656    2.793358    0.012151
     21          1           0        2.507575    2.339436    1.285431
     22          1           0        0.601410    3.289980   -0.056087
     23          1           0        1.734894    3.746482   -1.336603
     24          1           0        1.834866    4.523977    0.252365
     25          6           0        3.302799    0.037531   -0.047666
     26          6           0        3.052624   -1.299627   -0.745812
     27          6           0        4.014061   -2.395799   -0.285552
     28          1           0        4.338114    0.353659   -0.236296
     29          1           0        3.211088   -0.100318    1.038396
     30          1           0        3.144751   -1.158537   -1.830349
     31          1           0        2.017670   -1.612460   -0.557069
     32          1           0        3.917433   -2.565584    0.791684
     33          1           0        5.050918   -2.109081   -0.488831
     34          1           0        3.817460   -3.343079   -0.797283
 ---------------------------------------------------------------------

 SCF Done:  E(RHF) =  -669.534249719     A.U. after   15 cycles
 E2 =    -0.2095015161D+01 EUMP2 =    -0.67162926487953D+03

 The electronic state is 1-A.
 Alpha  occ. eigenvalues --  -20.60860 -20.60855 -15.85917 -11.31334 -11.27928
 Alpha  occ. eigenvalues --  -11.27902 -11.27647 -11.26933 -11.26908 -11.22223
 Alpha  occ. eigenvalues --  -11.21992 -11.21956 -11.21883 -11.21659 -11.21288
 Alpha  occ. eigenvalues --   -1.59935  -1.39487  -1.19528  -1.09024  -1.08827
 Alpha  occ. eigenvalues --   -1.04933  -1.04049  -0.96485  -0.95735  -0.87499
 Alpha  occ. eigenvalues --   -0.86327  -0.82557  -0.80124  -0.78721  -0.77592
 Alpha  occ. eigenvalues --   -0.72134  -0.71259  -0.70655  -0.65655  -0.65173
 Alpha  occ. eigenvalues --   -0.64887  -0.62280  -0.61460  -0.59871  -0.58086
 Alpha  occ. eigenvalues --   -0.55805  -0.55407  -0.53367  -0.53121  -0.53010
 Alpha  occ. eigenvalues --   -0.52896  -0.50436  -0.48897  -0.48886  -0.48432
 Alpha  occ. eigenvalues --   -0.47200  -0.46265  -0.46124  -0.44882  -0.44273
 Alpha  occ. eigenvalues --   -0.37381  -0.36506
 Alpha virt. eigenvalues --    0.04909   0.10951   0.16324   0.19594   0.23095
 Alpha virt. eigenvalues --    0.23539   0.25693   0.26591   0.27447   0.27924
 Alpha virt. eigenvalues --    0.28972   0.29562   0.31142   0.31782   0.32184

 Mulliken charges:
               1
     1  C   -0.170276
     2  C   -0.219812
     3  C   -0.171725
     4  C    0.158768
     5  C   -0.171115
     6  C   -0.217655
     7  H    0.229408
     8  H    0.224573
     9  H    0.276506
    10  H    0.276532
    11  H    0.225322
    12  N    0.488139
    13  O   -0.459821
    14  O   -0.460008
    15  C   -0.305051
    16  C   -0.298964
    17  C   -0.476012
    18  H    0.151152
    19  H    0.158379
    20  H    0.152600
    21  H    0.146194
    22  H    0.155904
    23  H    0.157641
    24  H    0.160901
    25  C   -0.296227
    26  C   -0.308269
    27  C   -0.476228
    28  H    0.152151
    29  H    0.140812
    30  H    0.155607
    31  H    0.152213
    32  H    0.148957
    33  H    0.159933
    34  H    0.159472
 Sum of Mulliken charges =  -0.00000

 Dipole moment (field-independent basis, Debye):
    X=              4.1243    Y=             -2.2348    Z=              1.9466  Tot=              5.0787
 Quadrupole moment (field-independent basis, Debye-Ang):
   XX=           -116.0165   YY=            -91.7695   ZZ=            -91.5746
   XY=              5.0227   XZ=             -5.1173   YZ=              1.8338

 Normal termination of Gaussian 16 at Thu May  6 14:12:37 2021.
