 Gaussian 16, Revision A.03,
 Gaussian 16:  EM64L-G16RevA.03 25-Dec-2016

 -------------
 #p 6-31g* mp2
 -------------

 ------------------------------------------------------
 Input file generated by CHIRIPA (05-May-2021 14:57:26)
 ------------------------------------------------------
 Symbolic Z-matrix:
 Charge =  0 Multiplicity = 1

                         Standard orientation:
 ---------------------------------------------------------------------
 Center     Atomic      Atomic             Coordinates (Angstroms)
 Number     Number       Type             X           Y           Z
 ---------------------------------------------------------------------
      1          6           0       -4.284334    1.864943   -0.842495
      2          6           0       -2.919380    1.998033   -0.567346
      3          6           0       -2.185032    0.914292   -0.076645
      4          6           0       -2.850529   -0.293376    0.128147
      5          6           0       -4.209351   -0.457376   -0.136420
      6          6           0       -4.923836    0.639823   -0.626534
      7          1           0       -4.847079    2.712047   -1.223455
      8          1           0       -2.420113    2.948280   -0.734104
      9          1           0       -1.127345    0.989621    0.144810
     10          1           0       -4.679421   -1.417249    0.039923
     11          1           0       -5.983775    0.533560   -0.839333
     12          7           0       -2.083621   -1.447808    0.647320
     13          8           0       -2.693247   -2.501112    0.819206
     14          8           0       -0.887415   -1.277489    0.872530
     15          6           0        2.982469    2.385013    1.033904
     16          6           0        3.448293    2.227648   -0.275586
     17          6           0        3.449852    0.967996   -0.882068
     18          6           0        2.976388   -0.117494   -0.146652
     19          6           0        2.505864    0.007120    1.159628
     20          6           0        2.513568    1.276201    1.746077
     21          1           0        2.984855    3.367203    1.497253
     22          1           0        3.813029    3.086986   -0.831060
     23          1           0        3.804820    0.817782   -1.894416
     24          1           0        2.148405   -0.868269    1.688150
     25          1           0        2.151209    1.395436    2.763193
     26          7           0        2.973136   -1.456022   -0.778102
     27          8           0        2.550841   -2.396503   -0.108923
     28          8           0        3.392943   -1.539335   -1.930257
 ---------------------------------------------------------------------

 SCF Done:  E(RHF) =  -868.337616662     A.U. after   16 cycles
 E2 =    -0.2600318224D+01 EUMP2 =    -0.87093793488573D+03

 The electronic state is 1-A.
 Alpha  occ. eigenvalues --  -20.60758 -20.60734 -20.60045 -20.59949 -15.85809
 Alpha  occ. eigenvalues --  -15.85057 -11.31228 -11.30636 -11.27816 -11.27792
 Alpha  occ. eigenvalues --  -11.27570 -11.27337 -11.27154 -11.27146 -11.26858
 Alpha  occ. eigenvalues --  -11.26822 -11.26401 -11.26310  -1.59811  -1.59071
 Alpha  occ. eigenvalues --   -1.39369  -1.38612  -1.19409  -1.18877  -1.08793
 Alpha  occ. eigenvalues --   -1.08244  -1.04824  -1.04300  -0.95619  -0.95024
 Alpha  occ. eigenvalues --   -0.86220  -0.85685  -0.82457  -0.81846  -0.77498
 Alpha  occ. eigenvalues --   -0.76824  -0.72041  -0.71274  -0.71135  -0.70523
 Alpha  occ. eigenvalues --   -0.70389  -0.69978  -0.65068  -0.64832  -0.64520
 Alpha  occ. eigenvalues --   -0.64303  -0.62173  -0.61606  -0.55326  -0.54843
 Alpha  occ. eigenvalues --   -0.53148  -0.52937  -0.52636  -0.52379  -0.48774
 Alpha  occ. eigenvalues --   -0.48766  -0.48071  -0.47999  -0.44770  -0.43955
 Alpha  occ. eigenvalues --   -0.37395  -0.36923  -0.36431  -0.35910
 Alpha virt. eigenvalues --    0.05051   0.05694   0.11220   0.11732   0.16521
 Alpha virt. eigenvalues --    0.17106   0.21303   0.21839   0.27189   0.27707
 Alpha virt. eigenvalues --    0.28179   0.28809   0.30796   0.31338   0.32319

 Mulliken charges:
               1
     1  C   -0.170826
     2  C   -0.218649
     3  C   -0.172362
     4  C    0.158976
     5  C   -0.170438
     6  C   -0.218489
     7  H    0.225183
     8  H    0.221455
     9  H    0.274473
    10  H    0.276580
    11  H    0.223816
    12  N    0.491070
    13  O   -0.456914
    14  O   -0.464680
    15  C   -0.174319
    16  C   -0.221432
    17  C   -0.172685
    18  C    0.154933
    19  C   -0.161245
    20  C   -0.225435
    21  H    0.221847
    22  H    0.219851
    23  H    0.273965
    24  H    0.289551
    25  H    0.223328
    26  N    0.487846
    27  O   -0.448515
    28  O   -0.466885
 Sum of Mulliken charges =  -0.00000

 Dipole moment (field-independent basis, Debye):
    X=             -2.8532    Y=              8.4120    Z=              0.5130  Tot=              8.8975
 Quadrupole moment (field-independent basis, Debye-Ang):
   XX=            -86.4707   YY=           -107.1357   ZZ=           -103.6478
   XY=              6.2214   XZ=             10.2993   YZ=             -1.9868

 Normal termination of Gaussian 16 at Wed May  5 19:35:51 2021.
