 Gaussian 16, Revision A.03,
 Gaussian 16:  EM64L-G16RevA.03 25-Dec-2016

 -------------
 #p 6-31g* mp2
 -------------

 ------------------------------------------------------
 Input file generated by CHIRIPA (05-May-2021 14:55:25)
 ------------------------------------------------------
 Symbolic Z-matrix:
 Charge =  0 Multiplicity = 1

                         Standard orientation:
 ---------------------------------------------------------------------
 Center     Atomic      Atomic             Coordinates (Angstroms)
 Number     Number       Type             X           Y           Z
 ---------------------------------------------------------------------
      1          6           0       -5.917385    1.413645    0.208890
      2          6           0       -4.654901    2.015231    0.236235
      3          6           0       -3.499935    1.250971    0.045162
      4          6           0       -3.644899   -0.118423   -0.171718
      5          6           0       -4.888737   -0.746976   -0.204552
      6          6           0       -6.030075    0.036889   -0.011029
      7          1           0       -6.809297    2.014955    0.358271
      8          1           0       -4.564361    3.084225    0.406821
      9          1           0       -2.510204    1.690954    0.061400
     10          1           0       -4.947135   -1.814846   -0.376774
     11          1           0       -7.009242   -0.433010   -0.032783
     12          7           0       -2.429402   -0.937888   -0.375295
     13          8           0       -2.584009   -2.142431   -0.564531
     14          8           0       -1.345103   -0.360125   -0.341768
     15          6           0        5.395375    0.537243   -0.040590
     16          6           0        6.839285    0.069911   -0.226899
     17          6           0        7.774464    1.198602   -0.661976
     18          1           0        5.033372    0.972975   -0.981885
     19          1           0        5.371552    1.342843    0.706295
     20          1           0        6.860201   -0.735513   -0.972198
     21          1           0        7.197829   -0.364932    0.714894
     22          1           0        7.783285    2.000464    0.083370
     23          1           0        7.443738    1.627776   -1.613307
     24          1           0        8.801497    0.842428   -0.789274
     25          6           0        4.448406   -0.579830    0.394294
     26          6           0        3.004497   -0.112497    0.580603
     27          6           0        2.069318   -1.241187    1.015679
     28          1           0        4.472230   -1.385429   -0.352591
     29          1           0        4.810410   -1.015560    1.335589
     30          1           0        2.645952    0.322346   -0.361190
     31          1           0        2.983580    0.692927    1.325902
     32          1           0        2.400043   -1.670362    1.967011
     33          1           0        2.060497   -2.043049    0.270334
     34          1           0        1.042285   -0.885014    1.142977
 ---------------------------------------------------------------------

 SCF Done:  E(RHF) =  -669.536024184     A.U. after   15 cycles
 E2 =    -0.2090699154D+01 EUMP2 =    -0.67162672333818D+03

 The electronic state is 1-A.
 Alpha  occ. eigenvalues --  -20.60935 -20.60927 -15.85968 -11.31292 -11.27856
 Alpha  occ. eigenvalues --  -11.27852 -11.27594 -11.26864 -11.26854 -11.21029
 Alpha  occ. eigenvalues --  -11.20677 -11.20611 -11.20469 -11.20394 -11.19426
 Alpha  occ. eigenvalues --   -1.59994  -1.39551  -1.19461  -1.08864  -1.07587
 Alpha  occ. eigenvalues --   -1.04857  -1.02593  -0.95707  -0.95021  -0.86258
 Alpha  occ. eigenvalues --   -0.86039  -0.82539  -0.78700  -0.77592  -0.77369
 Alpha  occ. eigenvalues --   -0.72192  -0.71310  -0.70569  -0.65117  -0.64860
 Alpha  occ. eigenvalues --   -0.64228  -0.62205  -0.59999  -0.58443  -0.56610
 Alpha  occ. eigenvalues --   -0.55361  -0.54328  -0.53190  -0.52950  -0.51680
 Alpha  occ. eigenvalues --   -0.51457  -0.49042  -0.48943  -0.48871  -0.46990
 Alpha  occ. eigenvalues --   -0.45763  -0.44976  -0.44890  -0.44824  -0.42811
 Alpha  occ. eigenvalues --   -0.37439  -0.36459
 Alpha virt. eigenvalues --    0.04914   0.11196   0.16396   0.21327   0.23644
 Alpha virt. eigenvalues --    0.25312   0.27250   0.27439   0.28146   0.28315
 Alpha virt. eigenvalues --    0.29058   0.30885   0.32287   0.32391   0.32537

 Mulliken charges:
               1
     1  C   -0.170607
     2  C   -0.218543
     3  C   -0.170873
     4  C    0.157884
     5  C   -0.170656
     6  C   -0.218577
     7  H    0.225986
     8  H    0.223846
     9  H    0.275761
    10  H    0.275898
    11  H    0.223815
    12  N    0.489712
    13  O   -0.458569
    14  O   -0.461199
    15  C   -0.297405
    16  C   -0.298987
    17  C   -0.475195
    18  H    0.148853
    19  H    0.147150
    20  H    0.151736
    21  H    0.150888
    22  H    0.153898
    23  H    0.154470
    24  H    0.158588
    25  C   -0.297470
    26  C   -0.299270
    27  C   -0.479062
    28  H    0.149483
    29  H    0.146987
    30  H    0.154506
    31  H    0.145287
    32  H    0.144669
    33  H    0.157110
    34  H    0.179887
 Sum of Mulliken charges =  -0.00000

 Dipole moment (field-independent basis, Debye):
    X=             -4.6497    Y=              2.8563    Z=              0.6534  Tot=              5.4959
 Quadrupole moment (field-independent basis, Debye-Ang):
   XX=            -64.1643   YY=            -92.8051   ZZ=            -95.1862
   XY=             -8.1287   XZ=             -1.3791   YZ=              0.4698

 Normal termination of Gaussian 16 at Thu May  6 16:04:33 2021.
