 Gaussian 16, Revision A.03,
 Gaussian 16:  EM64L-G16RevA.03 25-Dec-2016

 -------------
 #p 6-31g* mp2
 -------------

 ------------------------------------------------------
 Input file generated by CHIRIPA (05-May-2021 14:51:12)
 ------------------------------------------------------
 Symbolic Z-matrix:
 Charge =  0 Multiplicity = 1

                         Standard orientation:
 ---------------------------------------------------------------------
 Center     Atomic      Atomic             Coordinates (Angstroms)
 Number     Number       Type             X           Y           Z
 ---------------------------------------------------------------------
      1          6           0        3.128115    0.745354   -0.370099
      2          6           0        3.663174    2.066331    0.183719
      3          6           0        3.654962    3.189056   -0.854171
      4          1           0        3.731469    0.448054   -1.238731
      5          1           0        2.104154    0.898091   -0.738298
      6          1           0        4.685320    1.910820    0.552026
      7          1           0        3.058596    2.360423    1.051250
      8          1           0        2.637695    3.373049   -1.214606
      9          1           0        4.273662    2.920892   -1.716667
     10          1           0        4.041433    4.124213   -0.437058
     11          6           0        3.130025   -0.386702    0.655656
     12          6           0        2.594965   -1.707680    0.101838
     13          6           0        2.603177   -2.830405    1.139728
     14          1           0        4.153986   -0.539439    1.023855
     15          1           0        2.526670   -0.089402    1.524288
     16          1           0        3.199544   -2.001772   -0.765693
     17          1           0        1.572819   -1.552169   -0.266469
     18          1           0        1.984477   -2.562240    2.002224
     19          1           0        3.620445   -3.014398    1.500164
     20          1           0        2.216706   -3.765561    0.722616
     21          6           0       -2.473040   -0.517248   -0.339922
     22          6           0       -2.624462   -2.010006   -0.634424
     23          6           0       -1.303432   -2.672000   -1.027409
     24          1           0       -2.058933   -0.015511   -1.225202
     25          1           0       -1.739869   -0.382414    0.467341
     26          1           0       -3.358157   -2.142065   -1.439948
     27          1           0       -3.038436   -2.508216    0.251594
     28          1           0       -0.567188   -2.569732   -0.223614
     29          1           0       -0.888725   -2.201500   -1.924766
     30          1           0       -1.434699   -3.738838   -1.233526
     31          6           0       -3.785099    0.158597    0.054365
     32          6           0       -3.633678    1.651354    0.348867
     33          6           0       -4.954707    2.313349    0.741852
     34          1           0       -4.518271    0.023762   -0.752898
     35          1           0       -4.199207   -0.343141    0.939645
     36          1           0       -3.219703    2.149564   -0.537151
     37          1           0       -2.899982    1.783414    1.154391
     38          1           0       -5.369414    1.842849    1.639210
     39          1           0       -5.690952    2.211080   -0.061943
     40          1           0       -4.823440    3.380187    0.947969
 ---------------------------------------------------------------------

 SCF Done:  E(RHF) =  -470.733156594     A.U. after   11 cycles
 E2 =    -0.1582865162D+01 EUMP2 =    -0.47231602175577D+03

 The electronic state is 1-A.
 Alpha  occ. eigenvalues --  -11.21645 -11.21639 -11.21573 -11.21496 -11.21460
 Alpha  occ. eigenvalues --  -11.21398 -11.21361 -11.21301 -11.21103 -11.21082
 Alpha  occ. eigenvalues --  -11.21050 -11.21045  -1.08479  -1.08385  -1.03581
 Alpha  occ. eigenvalues --   -1.03482  -0.96032  -0.95936  -0.87040  -0.86961
 Alpha  occ. eigenvalues --   -0.79680  -0.79513  -0.78312  -0.78178  -0.65135
 Alpha  occ. eigenvalues --   -0.65003  -0.61069  -0.60819  -0.59395  -0.59310
 Alpha  occ. eigenvalues --   -0.57693  -0.57496  -0.55376  -0.55166  -0.52712
 Alpha  occ. eigenvalues --   -0.52642  -0.52447  -0.52367  -0.49971  -0.49882
 Alpha  occ. eigenvalues --   -0.48096  -0.47772  -0.46739  -0.46496  -0.45929
 Alpha  occ. eigenvalues --   -0.45768  -0.45721  -0.45475  -0.43827  -0.43741
 Alpha virt. eigenvalues --    0.21314   0.23171   0.23590   0.24803   0.26283
 Alpha virt. eigenvalues --    0.26681   0.27108   0.27328   0.28059   0.29004
 Alpha virt. eigenvalues --    0.31215   0.31534   0.31613   0.31783   0.32100

 Mulliken charges:
               1
     1  C   -0.298496
     2  C   -0.299549
     3  C   -0.475702
     4  H    0.149525
     5  H    0.150033
     6  H    0.151829
     7  H    0.151812
     8  H    0.155197
     9  H    0.155087
    10  H    0.160130
    11  C   -0.297545
    12  C   -0.306623
    13  C   -0.476199
    14  H    0.149197
    15  H    0.148801
    16  H    0.151768
    17  H    0.159139
    18  H    0.153915
    19  H    0.155244
    20  H    0.161095
    21  C   -0.298601
    22  C   -0.299600
    23  C   -0.481473
    24  H    0.149515
    25  H    0.148759
    26  H    0.152105
    27  H    0.152063
    28  H    0.161948
    29  H    0.155522
    30  H    0.160507
    31  C   -0.298234
    32  C   -0.299685
    33  C   -0.475742
    34  H    0.149828
    35  H    0.149835
    36  H    0.151916
    37  H    0.151720
    38  H    0.155271
    39  H    0.155315
    40  H    0.160372
 Sum of Mulliken charges =  -0.00000

 Dipole moment (field-independent basis, Debye):
    X=             -0.0340    Y=             -0.0171    Z=             -0.0174  Tot=              0.0418
 Quadrupole moment (field-independent basis, Debye-Ang):
   XX=            -84.6621   YY=            -85.8739   ZZ=            -84.2409
   XY=              0.1937   XZ=              0.1650   YZ=              0.2853

 Normal termination of Gaussian 16 at Wed May  5 18:19:29 2021.
