 Gaussian 16, Revision A.03,
 Gaussian 16:  EM64L-G16RevA.03 25-Dec-2016

 -------------
 #p 6-31g* mp2
 -------------

 ------------------------------------------------------
 Input file generated by CHIRIPA (05-May-2021 14:57:26)
 ------------------------------------------------------
 Symbolic Z-matrix:
 Charge =  0 Multiplicity = 1

                         Standard orientation:
 ---------------------------------------------------------------------
 Center     Atomic      Atomic             Coordinates (Angstroms)
 Number     Number       Type             X           Y           Z
 ---------------------------------------------------------------------
      1          6           0       -1.641556    1.766803   -1.276477
      2          6           0       -2.984340    1.734627   -1.666880
      3          6           0       -3.873576    0.830896   -1.077748
      4          6           0       -3.383891   -0.030197   -0.096923
      5          6           0       -2.051688   -0.022339    0.313521
      6          6           0       -1.180328    0.889763   -0.289263
      7          1           0       -0.957719    2.472095   -1.739432
      8          1           0       -3.345325    2.414570   -2.433309
      9          1           0       -4.918098    0.784632   -1.361035
     10          1           0       -1.721227   -0.712541    1.080226
     11          1           0       -0.138026    0.912514    0.015916
     12          7           0       -4.315823   -0.991368    0.533992
     13          8           0       -3.859599   -1.739523    1.395827
     14          8           0       -5.484848   -0.978379    0.154720
     15          6           0        2.508191    1.707238    1.774308
     16          6           0        3.505967    1.951390    0.824912
     17          6           0        3.913977    0.941858   -0.051970
     18          6           0        3.300107   -0.305660    0.048794
     19          6           0        2.303302   -0.579830    0.983942
     20          6           0        1.911097    0.444634    1.850659
     21          1           0        2.197378    2.497266    2.451543
     22          1           0        3.971433    2.930978    0.763332
     23          1           0        4.684041    1.103595   -0.796457
     24          1           0        1.857789   -1.566512    1.021261
     25          1           0        1.135961    0.252163    2.586979
     26          7           0        3.723684   -1.382310   -0.874140
     27          8           0        3.167257   -2.472780   -0.765048
     28          8           0        4.604089   -1.115330   -1.689154
 ---------------------------------------------------------------------

 SCF Done:  E(RHF) =  -868.337007736     A.U. after   16 cycles
 E2 =    -0.2601605707D+01 EUMP2 =    -0.87093861344308D+03

 The electronic state is 1-A.
 Alpha  occ. eigenvalues --  -20.61483 -20.61472 -20.60938 -20.60928 -15.86544
 Alpha  occ. eigenvalues --  -15.85987 -11.32157 -11.31366 -11.28759 -11.28729
 Alpha  occ. eigenvalues --  -11.28511 -11.27949 -11.27892 -11.27802 -11.27762
 Alpha  occ. eigenvalues --  -11.27613 -11.26919 -11.26777  -1.60553  -1.60009
 Alpha  occ. eigenvalues --   -1.40098  -1.39564  -1.20378  -1.19511  -1.09703
 Alpha  occ. eigenvalues --   -1.08899  -1.05814  -1.04911  -0.96485  -0.95746
 Alpha  occ. eigenvalues --   -0.87158  -0.86309  -0.83315  -0.82576  -0.78324
 Alpha  occ. eigenvalues --   -0.77633  -0.72749  -0.72206  -0.71887  -0.71404
 Alpha  occ. eigenvalues --   -0.71331  -0.70636  -0.65991  -0.65755  -0.65159
 Alpha  occ. eigenvalues --   -0.64937  -0.63113  -0.62296  -0.56229  -0.55444
 Alpha  occ. eigenvalues --   -0.54267  -0.53841  -0.53241  -0.52804  -0.49531
 Alpha  occ. eigenvalues --   -0.49494  -0.48968  -0.48955  -0.45449  -0.44968
 Alpha  occ. eigenvalues --   -0.38370  -0.37479  -0.37405  -0.36510
 Alpha virt. eigenvalues --    0.04187   0.04892   0.10124   0.11192   0.15574
 Alpha virt. eigenvalues --    0.16406   0.19883   0.21705   0.25207   0.27403
 Alpha virt. eigenvalues --    0.27852   0.28889   0.30197   0.31213   0.31725

 Mulliken charges:
               1
     1  C   -0.173269
     2  C   -0.217635
     3  C   -0.171424
     4  C    0.159931
     5  C   -0.175754
     6  C   -0.226340
     7  H    0.225536
     8  H    0.223804
     9  H    0.276098
    10  H    0.267916
    11  H    0.236082
    12  N    0.488262
    13  O   -0.461774
    14  O   -0.459276
    15  C   -0.171801
    16  C   -0.219732
    17  C   -0.170904
    18  C    0.160655
    19  C   -0.176042
    20  C   -0.233688
    21  H    0.230384
    22  H    0.226901
    23  H    0.278849
    24  H    0.280707
    25  H    0.229147
    26  N    0.487956
    27  O   -0.456368
    28  O   -0.458224
 Sum of Mulliken charges =  -0.00000

 Dipole moment (field-independent basis, Debye):
    X=              2.0755    Y=              7.1813    Z=              0.9920  Tot=              7.5407
 Quadrupole moment (field-independent basis, Debye-Ang):
   XX=           -131.7539   YY=           -105.5891   ZZ=           -102.4547
   XY=              2.3417   XZ=             18.9949   YZ=             -3.6603

 Normal termination of Gaussian 16 at Fri May  7 08:10:09 2021.
