 Gaussian 16, Revision A.03,
 Gaussian 16:  EM64L-G16RevA.03 25-Dec-2016

 -------------
 #p 6-31g* mp2
 -------------

 ------------------------------------------------------
 Input file generated by CHIRIPA (05-May-2021 14:57:22)
 ------------------------------------------------------
 Symbolic Z-matrix:
 Charge =  0 Multiplicity = 1

                         Standard orientation:
 ---------------------------------------------------------------------
 Center     Atomic      Atomic             Coordinates (Angstroms)
 Number     Number       Type             X           Y           Z
 ---------------------------------------------------------------------
      1          6           0        3.534712    2.596148   -0.555423
      2          6           0        2.503224    1.697719   -0.847619
      3          6           0        2.652339    0.333807   -0.579186
      4          6           0        3.851653   -0.099136   -0.015717
      5          6           0        4.897708    0.771242    0.286774
      6          6           0        4.726561    2.130862    0.009844
      7          1           0        3.410319    3.654000   -0.767248
      8          1           0        1.576523    2.056233   -1.286639
      9          1           0        1.869993   -0.383564   -0.795363
     10          1           0        5.809945    0.384004    0.724138
     11          1           0        5.529326    2.826304    0.237819
     12          7           0        4.021176   -1.540777    0.272958
     13          8           0        5.087519   -1.896997    0.769605
     14          8           0        3.084496   -2.287219   -0.002891
     15          6           0       -1.453238   -0.988959   -0.089773
     16          6           0       -2.411967   -1.418254   -1.013388
     17          6           0       -3.728396   -0.953600   -0.938148
     18          6           0       -4.052882   -0.056241    0.078092
     19          6           0       -3.120294    0.390097    1.013161
     20          6           0       -1.809833   -0.087742    0.918776
     21          1           0       -0.432923   -1.355034   -0.155657
     22          1           0       -2.137880   -2.118100   -1.797694
     23          1           0       -4.490570   -1.269517   -1.640079
     24          1           0       -3.423533    1.088269    1.783888
     25          1           0       -1.067364    0.247377    1.637441
     26          7           0       -5.443368    0.442647    0.167879
     27          8           0       -5.703900    1.232772    1.072568
     28          8           0       -6.246368    0.034103   -0.668134
 ---------------------------------------------------------------------

 SCF Done:  E(RHF) =  -868.338210116     A.U. after   16 cycles
 E2 =    -0.2599436161D+01 EUMP2 =    -0.87093764627680D+03

 The electronic state is 1-A.
 Alpha  occ. eigenvalues --  -20.61667 -20.61624 -20.60915 -20.60909 -15.86695
 Alpha  occ. eigenvalues --  -15.85968 -11.32024 -11.31361 -11.28656 -11.28511
 Alpha  occ. eigenvalues --  -11.28232 -11.27927 -11.27904 -11.27648 -11.27568
 Alpha  occ. eigenvalues --  -11.27511 -11.26952 -11.26916  -1.60714  -1.59990
 Alpha  occ. eigenvalues --   -1.40274  -1.39542  -1.20169  -1.19529  -1.09556
 Alpha  occ. eigenvalues --   -1.08919  -1.05567  -1.04929  -0.96410  -0.95750
 Alpha  occ. eigenvalues --   -0.86963  -0.86321  -0.83243  -0.82577  -0.78319
 Alpha  occ. eigenvalues --   -0.77621  -0.72914  -0.72184  -0.72033  -0.71314
 Alpha  occ. eigenvalues --   -0.71300  -0.70603  -0.65815  -0.65553  -0.65174
 Alpha  occ. eigenvalues --   -0.64917  -0.62930  -0.62266  -0.56050  -0.55407
 Alpha  occ. eigenvalues --   -0.53890  -0.53630  -0.53266  -0.53009  -0.49685
 Alpha  occ. eigenvalues --   -0.49649  -0.48945  -0.48939  -0.45686  -0.44941
 Alpha  occ. eigenvalues --   -0.38118  -0.37529  -0.37165  -0.36537
 Alpha virt. eigenvalues --    0.04206   0.04882   0.10461   0.11109   0.15747
 Alpha virt. eigenvalues --    0.16272   0.19308   0.21767   0.25119   0.27051
 Alpha virt. eigenvalues --    0.27243   0.29079   0.30091   0.30934   0.32379

 Mulliken charges:
               1
     1  C   -0.170490
     2  C   -0.220421
     3  C   -0.177487
     4  C    0.159445
     5  C   -0.170121
     6  C   -0.217942
     7  H    0.229040
     8  H    0.226988
     9  H    0.271002
    10  H    0.277765
    11  H    0.226610
    12  N    0.488389
    13  O   -0.455400
    14  O   -0.467496
    15  C   -0.182671
    16  C   -0.219341
    17  C   -0.171153
    18  C    0.158708
    19  C   -0.171530
    20  C   -0.221185
    21  H    0.236413
    22  H    0.226575
    23  H    0.276336
    24  H    0.275546
    25  H    0.224614
    26  N    0.487973
    27  O   -0.460449
    28  O   -0.459716
 Sum of Mulliken charges =  -0.00000

 Dipole moment (field-independent basis, Debye):
    X=              4.4871    Y=              3.4176    Z=             -1.3223  Tot=              5.7934
 Quadrupole moment (field-independent basis, Debye-Ang):
   XX=           -144.1115   YY=           -104.7023   ZZ=           -102.0237
   XY=             28.9495   XZ=              0.9237   YZ=              2.7490

 Normal termination of Gaussian 16 at Fri May  7 00:11:35 2021.
