 Gaussian 16, Revision A.03,
 Gaussian 16:  EM64L-G16RevA.03 25-Dec-2016

 -------------
 #p 6-31g* mp2
 -------------

 ------------------------------------------------------
 Input file generated by CHIRIPA (05-May-2021 14:55:23)
 ------------------------------------------------------
 Symbolic Z-matrix:
 Charge =  0 Multiplicity = 1

                         Standard orientation:
 ---------------------------------------------------------------------
 Center     Atomic      Atomic             Coordinates (Angstroms)
 Number     Number       Type             X           Y           Z
 ---------------------------------------------------------------------
      1          6           0       -2.204589    2.279781   -0.675450
      2          6           0       -3.575772    2.003941   -0.692496
      3          6           0       -4.049790    0.737850   -0.336313
      4          6           0       -3.120444   -0.233198    0.033379
      5          6           0       -1.748230    0.010921    0.060312
      6          6           0       -1.296795    1.284146   -0.299763
      7          1           0       -1.845132    3.266081   -0.953654
      8          1           0       -4.283079    2.775229   -0.983833
      9          1           0       -5.105958    0.497210   -0.340730
     10          1           0       -1.067407   -0.778333    0.355229
     11          1           0       -0.231354    1.495526   -0.285604
     12          7           0       -3.610312   -1.577328    0.412515
     13          8           0       -2.771078   -2.415602    0.734417
     14          8           0       -4.824228   -1.767132    0.380600
     15          6           0        3.963039    0.621536    0.495791
     16          6           0        3.224637    1.859166   -0.015107
     17          6           0        3.378539    3.064459    0.912995
     18          1           0        3.588337    0.365851    1.496376
     19          1           0        5.028913    0.861447    0.613059
     20          1           0        2.160708    1.616586   -0.132693
     21          1           0        3.601005    2.111820   -1.014672
     22          1           0        4.433917    3.334438    1.022026
     23          1           0        2.985437    2.836390    1.909016
     24          1           0        2.842827    3.938065    0.528696
     25          6           0        3.818612   -0.591664   -0.421279
     26          6           0        4.557014   -1.829294    0.089621
     27          6           0        4.403113   -3.034587   -0.838482
     28          1           0        2.752739   -0.831576   -0.538545
     29          1           0        4.193314   -0.335978   -1.421862
     30          1           0        4.180646   -2.081949    1.089185
     31          1           0        5.620944   -1.586714    0.207206
     32          1           0        4.796214   -2.806518   -1.834502
     33          1           0        3.347733   -3.304566   -0.947512
     34          1           0        4.938824   -3.908193   -0.454182
 ---------------------------------------------------------------------

 SCF Done:  E(RHF) =  -669.535507846     A.U. after   15 cycles
 E2 =    -0.2091130918D+01 EUMP2 =    -0.67162663876385D+03

 The electronic state is 1-A.
 Alpha  occ. eigenvalues --  -20.60759 -20.60754 -15.85813 -11.31175 -11.27743
 Alpha  occ. eigenvalues --  -11.27740 -11.27480 -11.26757 -11.26732 -11.22558
 Alpha  occ. eigenvalues --  -11.22046 -11.21959 -11.21899 -11.21876 -11.21273
 Alpha  occ. eigenvalues --   -1.59835  -1.39388  -1.19345  -1.09049  -1.08740
 Alpha  occ. eigenvalues --   -1.04750  -1.04113  -0.96532  -0.95576  -0.87549
 Alpha  occ. eigenvalues --   -0.86149  -0.82412  -0.80211  -0.78835  -0.77458
 Alpha  occ. eigenvalues --   -0.72031  -0.71158  -0.70454  -0.65716  -0.64997
 Alpha  occ. eigenvalues --   -0.64751  -0.62136  -0.61476  -0.59931  -0.58144
 Alpha  occ. eigenvalues --   -0.55807  -0.55249  -0.53239  -0.53077  -0.52970
 Alpha  occ. eigenvalues --   -0.52838  -0.50471  -0.48800  -0.48786  -0.48491
 Alpha  occ. eigenvalues --   -0.47246  -0.46368  -0.46280  -0.44795  -0.44365
 Alpha  occ. eigenvalues --   -0.37325  -0.36352
 Alpha virt. eigenvalues --    0.05077   0.11302   0.16572   0.19093   0.22793
 Alpha virt. eigenvalues --    0.23641   0.24868   0.26546   0.27290   0.28225
 Alpha virt. eigenvalues --    0.29414   0.29668   0.31191   0.31250   0.32083

 Mulliken charges:
               1
     1  C   -0.173566
     2  C   -0.218453
     3  C   -0.171187
     4  C    0.158889
     5  C   -0.174596
     6  C   -0.227530
     7  H    0.226414
     8  H    0.223359
     9  H    0.275535
    10  H    0.275176
    11  H    0.238033
    12  N    0.488152
    13  O   -0.460642
    14  O   -0.460504
    15  C   -0.298537
    16  C   -0.306283
    17  C   -0.475839
    18  H    0.151339
    19  H    0.153002
    20  H    0.143932
    21  H    0.155342
    22  H    0.159707
    23  H    0.157189
    24  H    0.157873
    25  C   -0.297616
    26  C   -0.300434
    27  C   -0.476442
    28  H    0.144937
    29  H    0.150968
    30  H    0.153828
    31  H    0.152834
    32  H    0.155119
    33  H    0.157477
    34  H    0.162522
 Sum of Mulliken charges =  -0.00000

 Dipole moment (field-independent basis, Debye):
    X=              1.9220    Y=              4.7099    Z=             -1.3154  Tot=              5.2543
 Quadrupole moment (field-independent basis, Debye-Ang):
   XX=            -99.4935   YY=            -97.7179   ZZ=            -95.6024
   XY=            -16.7669   XZ=              4.8314   YZ=             -0.5001

 Normal termination of Gaussian 16 at Thu May  6 19:15:27 2021.
