 Gaussian 16, Revision A.03,
 Gaussian 16:  EM64L-G16RevA.03 25-Dec-2016

 -------------
 #p 6-31g* mp2
 -------------

 ------------------------------------------------------
 Input file generated by CHIRIPA (05-May-2021 14:51:12)
 ------------------------------------------------------
 Symbolic Z-matrix:
 Charge =  0 Multiplicity = 1

                         Standard orientation:
 ---------------------------------------------------------------------
 Center     Atomic      Atomic             Coordinates (Angstroms)
 Number     Number       Type             X           Y           Z
 ---------------------------------------------------------------------
      1          6           0        2.492071    0.318932   -0.469474
      2          6           0        3.624926   -0.586260    0.015556
      3          6           0        3.874345   -1.772213   -0.916699
      4          1           0        1.572336   -0.274369   -0.564488
      5          1           0        2.731948    0.687139   -1.476588
      6          1           0        3.383627   -0.951543    1.022015
      7          1           0        4.542025    0.009306    0.109609
      8          1           0        4.139923   -1.424210   -1.920175
      9          1           0        2.974944   -2.390518   -1.002585
     10          1           0        4.688170   -2.406105   -0.551009
     11          6           0        2.230762    1.509008    0.452027
     12          6           0        1.097907    2.414199   -0.033003
     13          6           0        0.848488    3.600152    0.899252
     14          1           0        1.990885    1.140800    1.459141
     15          1           0        3.150497    2.102308    0.547040
     16          1           0        0.180808    1.818633   -0.127056
     17          1           0        1.339205    2.779482   -1.039462
     18          1           0        1.747889    4.218457    0.985138
     19          1           0        0.582910    3.252149    1.902727
     20          1           0        0.034663    4.234045    0.533561
     21          6           0       -2.536458   -0.347562   -0.472914
     22          6           0       -3.626841    0.584053    0.057316
     23          6           0       -3.966021    1.712121   -0.917472
     24          1           0       -1.632583    0.239735   -0.685133
     25          1           0       -2.863317   -0.775345   -1.430807
     26          1           0       -3.298607    1.008879    1.014605
     27          1           0       -4.528164   -0.005560    0.268479
     28          1           0       -4.318275    1.304704   -1.870640
     29          1           0       -3.081733    2.324907   -1.120275
     30          1           0       -4.747689    2.366054   -0.518440
     31          6           0       -2.186375   -1.480377    0.490361
     32          6           0       -1.095992   -2.411993   -0.039869
     33          6           0       -0.756812   -3.540061    0.934920
     34          1           0       -1.859516   -1.052594    1.448255
     35          1           0       -3.090249   -2.067674    0.702580
     36          1           0       -0.194669   -1.822379   -0.251031
     37          1           0       -1.424225   -2.836819   -0.997157
     38          1           0       -1.641100   -4.152846    1.137722
     39          1           0       -0.404559   -3.132642    1.888088
     40          1           0        0.024856   -4.193993    0.535886
 ---------------------------------------------------------------------

 SCF Done:  E(RHF) =  -470.733051344     A.U. after   11 cycles
 E2 =    -0.1584481384D+01 EUMP2 =    -0.47231753272755D+03

 The electronic state is 1-A.
 Alpha  occ. eigenvalues --  -11.21669 -11.21657 -11.21632 -11.21628 -11.21455
 Alpha  occ. eigenvalues --  -11.21451 -11.21392 -11.21387 -11.21130 -11.21129
 Alpha  occ. eigenvalues --  -11.21087 -11.21083  -1.08515  -1.08451  -1.03596
 Alpha  occ. eigenvalues --   -1.03554  -0.96023  -0.96020  -0.87059  -0.87017
 Alpha  occ. eigenvalues --   -0.79696  -0.79588  -0.78435  -0.78169  -0.65394
 Alpha  occ. eigenvalues --   -0.64859  -0.61147  -0.60825  -0.59428  -0.59347
 Alpha  occ. eigenvalues --   -0.57634  -0.57628  -0.55337  -0.55289  -0.52722
 Alpha  occ. eigenvalues --   -0.52707  -0.52500  -0.52397  -0.50081  -0.49868
 Alpha  occ. eigenvalues --   -0.48076  -0.47865  -0.46880  -0.46646  -0.46277
 Alpha  occ. eigenvalues --   -0.45800  -0.45786  -0.45064  -0.43832  -0.43822
 Alpha virt. eigenvalues --    0.19322   0.21852   0.24138   0.24758   0.25375
 Alpha virt. eigenvalues --    0.26644   0.26920   0.27241   0.28590   0.29243
 Alpha virt. eigenvalues --    0.31405   0.31539   0.31576   0.31727   0.31884

 Mulliken charges:
               1
     1  C   -0.308560
     2  C   -0.299110
     3  C   -0.476549
     4  H    0.158234
     5  H    0.150053
     6  H    0.151895
     7  H    0.152186
     8  H    0.155311
     9  H    0.155816
    10  H    0.160420
    11  C   -0.297283
    12  C   -0.308047
    13  C   -0.475337
    14  H    0.149061
    15  H    0.150173
    16  H    0.158380
    17  H    0.152465
    18  H    0.155627
    19  H    0.155022
    20  H    0.160408
    21  C   -0.306689
    22  C   -0.299407
    23  C   -0.476193
    24  H    0.156549
    25  H    0.150123
    26  H    0.151906
    27  H    0.152168
    28  H    0.155299
    29  H    0.155624
    30  H    0.160364
    31  C   -0.297418
    32  C   -0.309769
    33  C   -0.475304
    34  H    0.148929
    35  H    0.150169
    36  H    0.159903
    37  H    0.152621
    38  H    0.155658
    39  H    0.154911
    40  H    0.160393
 Sum of Mulliken charges =  -0.00000

 Dipole moment (field-independent basis, Debye):
    X=              0.0017    Y=              0.0007    Z=             -0.0104  Tot=              0.0106
 Quadrupole moment (field-independent basis, Debye-Ang):
   XX=            -83.9571   YY=            -85.6566   ZZ=            -85.0001
   XY=              1.4174   XZ=             -0.0851   YZ=             -0.0396

 Normal termination of Gaussian 16 at Wed May  5 23:09:53 2021.
