 Gaussian 16, Revision A.03,
 Gaussian 16:  EM64L-G16RevA.03 25-Dec-2016

 -------------
 #p 6-31g* mp2
 -------------

 ------------------------------------------------------
 Input file generated by CHIRIPA (05-May-2021 14:53:16)
 ------------------------------------------------------
 Symbolic Z-matrix:
 Charge =  0 Multiplicity = 1

                         Standard orientation:
 ---------------------------------------------------------------------
 Center     Atomic      Atomic             Coordinates (Angstroms)
 Number     Number       Type             X           Y           Z
 ---------------------------------------------------------------------
      1          6           0       -2.976566    0.078082   -0.209582
      2          6           0       -4.336546   -0.000396    0.484883
      3          6           0       -4.941028    1.377140    0.758363
      4          1           0       -2.287570    0.665440    0.412704
      5          1           0       -3.086946    0.625521   -1.155902
      6          1           0       -4.223901   -0.548725    1.428950
      7          1           0       -5.022329   -0.587797   -0.139038
      8          1           0       -5.082139    1.928483   -0.176896
      9          1           0       -4.279175    1.967777    1.400001
     10          1           0       -5.912951    1.297602    1.255253
     11          6           0       -2.359473   -1.291028   -0.489692
     12          6           0       -0.999493   -1.212550   -1.184157
     13          6           0       -0.395011   -2.590086   -1.457637
     14          1           0       -2.249093   -1.838467    0.456628
     15          1           0       -3.048470   -1.878386   -1.111978
     16          1           0       -0.313710   -0.625149   -0.560236
     17          1           0       -1.112138   -0.664221   -2.128224
     18          1           0       -1.056865   -3.180723   -2.099275
     19          1           0       -0.253900   -3.141429   -0.522378
     20          1           0        0.576911   -2.510549   -1.954527
     21          6           0        2.488434   -1.685432    1.514265
     22          6           0        3.017986   -1.505298    0.232217
     23          6           0        2.800470   -0.313047   -0.464756
     24          6           0        2.045329    0.682555    0.153168
     25          6           0        1.504454    0.533102    1.429259
     26          6           0        1.734688   -0.667452    2.107649
     27          1           0        2.662346   -2.614826    2.048473
     28          1           0        3.603741   -2.294152   -0.231083
     29          1           0        3.198723   -0.147106   -1.458374
     30          1           0        0.924604    1.337633    1.865057
     31          1           0        1.322203   -0.804570    3.103189
     32          7           0        1.808323    1.949131   -0.574850
     33          8           0        1.139617    2.810924   -0.008472
     34          8           0        2.295751    2.056100   -1.698063
 ---------------------------------------------------------------------

 SCF Done:  E(RHF) =  -669.534471277     A.U. after   15 cycles
 E2 =    -0.2094904349D+01 EUMP2 =    -0.67162937562528D+03

 The electronic state is 1-A.
 Alpha  occ. eigenvalues --  -20.60828 -20.60823 -15.85878 -11.31257 -11.27848
 Alpha  occ. eigenvalues --  -11.27845 -11.27619 -11.26913 -11.26896 -11.21508
 Alpha  occ. eigenvalues --  -11.21421 -11.21320 -11.21213 -11.21138 -11.20908
 Alpha  occ. eigenvalues --   -1.59900  -1.39453  -1.19488  -1.08860  -1.08331
 Alpha  occ. eigenvalues --   -1.04886  -1.03445  -0.95907  -0.95684  -0.86925
 Alpha  occ. eigenvalues --   -0.86274  -0.82516  -0.79521  -0.78145  -0.77555
 Alpha  occ. eigenvalues --   -0.72100  -0.71231  -0.70571  -0.65124  -0.64989
 Alpha  occ. eigenvalues --   -0.64879  -0.62226  -0.60897  -0.59308  -0.57540
 Alpha  occ. eigenvalues --   -0.55375  -0.55253  -0.53192  -0.52969  -0.52550
 Alpha  occ. eigenvalues --   -0.52329  -0.49854  -0.48862  -0.48852  -0.47819
 Alpha  occ. eigenvalues --   -0.46534  -0.45670  -0.45606  -0.44841  -0.43705
 Alpha  occ. eigenvalues --   -0.37366  -0.36459
 Alpha virt. eigenvalues --    0.04948   0.11091   0.16408   0.21164   0.22946
 Alpha virt. eigenvalues --    0.24239   0.26375   0.27057   0.27302   0.28131
 Alpha virt. eigenvalues --    0.28433   0.30867   0.31467   0.31709   0.32124

 Mulliken charges:
               1
     1  C   -0.298653
     2  C   -0.299528
     3  C   -0.475507
     4  H    0.149336
     5  H    0.153897
     6  H    0.148409
     7  H    0.151691
     8  H    0.157661
     9  H    0.155846
    10  H    0.158935
    11  C   -0.296898
    12  C   -0.307678
    13  C   -0.471908
    14  H    0.144683
    15  H    0.149150
    16  H    0.159721
    17  H    0.155435
    18  H    0.154151
    19  H    0.149857
    20  H    0.155248
    21  C   -0.171783
    22  C   -0.213494
    23  C   -0.171876
    24  C    0.159817
    25  C   -0.176925
    26  C   -0.214951
    27  H    0.226372
    28  H    0.224457
    29  H    0.276024
    30  H    0.275672
    31  H    0.224085
    32  N    0.489614
    33  O   -0.460555
    34  O   -0.460307
 Sum of Mulliken charges =  -0.00000

 Dipole moment (field-independent basis, Debye):
    X=              0.9385    Y=             -4.3658    Z=              2.5601  Tot=              5.1474
 Quadrupole moment (field-independent basis, Debye-Ang):
   XX=            -90.5446   YY=           -101.9814   ZZ=            -90.4863
   XY=             -9.5582   XZ=              3.8205   YZ=              2.1711

 Normal termination of Gaussian 16 at Thu May  6 17:14:47 2021.
