 Gaussian 16, Revision A.03,
 Gaussian 16:  EM64L-G16RevA.03 25-Dec-2016

 -------------
 #p 6-31g* mp2
 -------------

 ------------------------------------------------------
 Input file generated by CHIRIPA (05-May-2021 14:57:26)
 ------------------------------------------------------
 Symbolic Z-matrix:
 Charge =  0 Multiplicity = 1

                         Standard orientation:
 ---------------------------------------------------------------------
 Center     Atomic      Atomic             Coordinates (Angstroms)
 Number     Number       Type             X           Y           Z
 ---------------------------------------------------------------------
      1          6           0       -1.148266   -0.724113    1.722893
      2          6           0       -1.265408    0.522975    1.100342
      3          6           0       -2.361025    0.806686    0.279562
      4          6           0       -3.325277   -0.184358    0.102529
      5          6           0       -3.236822   -1.436403    0.709033
      6          6           0       -2.132612   -1.698105    1.525599
      7          1           0       -0.293827   -0.935958    2.358857
      8          1           0       -0.502476    1.281299    1.251755
      9          1           0       -2.476645    1.763721   -0.214537
     10          1           0       -4.013407   -2.172231    0.539058
     11          1           0       -2.044251   -2.667493    2.007808
     12          7           0       -4.489706    0.104344   -0.764164
     13          8           0       -5.325657   -0.785742   -0.904056
     14          8           0       -4.544386    1.215248   -1.287174
     15          6           0        1.907250    2.356439    0.345448
     16          6           0        2.816618    1.798391    1.249967
     17          6           0        3.501630    0.621548    0.933191
     18          6           0        3.251901    0.026551   -0.302488
     19          6           0        2.351958    0.558185   -1.224854
     20          6           0        1.678226    1.735649   -0.886902
     21          1           0        1.379497    3.270880    0.599753
     22          1           0        2.996474    2.278330    2.207754
     23          1           0        4.210999    0.168029    1.614758
     24          1           0        2.193668    0.056845   -2.171966
     25          1           0        0.972562    2.166784   -1.591321
     26          7           0        3.971122   -1.219649   -0.649054
     27          8           0        3.733383   -1.724499   -1.744154
     28          8           0        4.758969   -1.667974    0.180969
 ---------------------------------------------------------------------

 SCF Done:  E(RHF) =  -868.336698369     A.U. after   16 cycles
 E2 =    -0.2601931428D+01 EUMP2 =    -0.87093862979778D+03

 The electronic state is 1-A.
 Alpha  occ. eigenvalues --  -20.61497 -20.61481 -20.61041 -20.61023 -15.86548
 Alpha  occ. eigenvalues --  -15.86086 -11.32101 -11.31448 -11.28683 -11.28606
 Alpha  occ. eigenvalues --  -11.28454 -11.28034 -11.27951 -11.27779 -11.27691
 Alpha  occ. eigenvalues --  -11.27678 -11.26970 -11.26941  -1.60564  -1.60109
 Alpha  occ. eigenvalues --   -1.40111  -1.39664  -1.20296  -1.19595  -1.09685
 Alpha  occ. eigenvalues --   -1.08980  -1.05694  -1.05001  -0.96472  -0.95828
 Alpha  occ. eigenvalues --   -0.87091  -0.86393  -0.83274  -0.82667  -0.78276
 Alpha  occ. eigenvalues --   -0.77733  -0.72759  -0.72303  -0.71893  -0.71433
 Alpha  occ. eigenvalues --   -0.71411  -0.70697  -0.65934  -0.65678  -0.65240
 Alpha  occ. eigenvalues --   -0.65030  -0.63007  -0.62388  -0.56231  -0.55487
 Alpha  occ. eigenvalues --   -0.54220  -0.53765  -0.53297  -0.52912  -0.49535
 Alpha  occ. eigenvalues --   -0.49505  -0.49067  -0.49053  -0.45473  -0.45072
 Alpha  occ. eigenvalues --   -0.38337  -0.37619  -0.37330  -0.36449
 Alpha virt. eigenvalues --    0.04174   0.04799   0.10245   0.11110   0.15492
 Alpha virt. eigenvalues --    0.16348   0.20015   0.21721   0.26046   0.26676
 Alpha virt. eigenvalues --    0.28061   0.28463   0.29897   0.31511   0.31703

 Mulliken charges:
               1
     1  C   -0.174007
     2  C   -0.215963
     3  C   -0.177243
     4  C    0.159657
     5  C   -0.171300
     6  C   -0.217428
     7  H    0.226725
     8  H    0.224312
     9  H    0.269604
    10  H    0.276654
    11  H    0.225723
    12  N    0.488103
    13  O   -0.458575
    14  O   -0.462651
    15  C   -0.187834
    16  C   -0.220604
    17  C   -0.173492
    18  C    0.159223
    19  C   -0.168561
    20  C   -0.214127
    21  H    0.227422
    22  H    0.225958
    23  H    0.277591
    24  H    0.280427
    25  H    0.228629
    26  N    0.487610
    27  O   -0.456445
    28  O   -0.459410
 Sum of Mulliken charges =  -0.00000

 Dipole moment (field-independent basis, Debye):
    X=              1.7882    Y=              3.2058    Z=              4.1643  Tot=              5.5512
 Quadrupole moment (field-independent basis, Debye-Ang):
   XX=           -147.7473   YY=           -100.7300   ZZ=           -101.6025
   XY=             19.0887   XZ=             -3.2495   YZ=             -2.9387

 Normal termination of Gaussian 16 at Fri May  7 12:40:37 2021.
