 Gaussian 16, Revision A.03,
 Gaussian 16:  EM64L-G16RevA.03 25-Dec-2016

 -------------
 #p 6-31g* mp2
 -------------

 ------------------------------------------------------
 Input file generated by CHIRIPA (05-May-2021 14:51:09)
 ------------------------------------------------------
 Symbolic Z-matrix:
 Charge =  0 Multiplicity = 1

                         Standard orientation:
 ---------------------------------------------------------------------
 Center     Atomic      Atomic             Coordinates (Angstroms)
 Number     Number       Type             X           Y           Z
 ---------------------------------------------------------------------
      1          6           0        2.531920   -1.060606   -0.282677
      2          6           0        1.275021   -1.231200    0.571188
      3          6           0        0.268415   -2.202586   -0.046022
      4          1           0        2.243453   -0.706254   -1.281760
      5          1           0        3.006694   -2.041438   -0.423932
      6          1           0        0.803517   -0.250135    0.711947
      7          1           0        1.566529   -1.585004    1.568415
      8          1           0        0.716404   -3.193669   -0.171170
      9          1           0       -0.050944   -1.851216   -1.032505
     10          1           0       -0.622402   -2.309632    0.580752
     11          6           0        3.547739   -0.092519    0.321183
     12          6           0        4.804638    0.078075   -0.532683
     13          6           0        5.811243    1.049461    0.084527
     14          1           0        3.072964    0.888313    0.462438
     15          1           0        3.836205   -0.446871    1.320266
     16          1           0        4.513129    0.431879   -1.529910
     17          1           0        5.276142   -0.902989   -0.673442
     18          1           0        6.130602    0.698091    1.071010
     19          1           0        5.363255    2.040544    0.209676
     20          1           0        6.702061    1.156508   -0.542247
     21          6           0       -2.907637   -0.164369    0.111047
     22          6           0       -4.092247   -1.063366   -0.244605
     23          6           0       -3.812485   -2.542778    0.021606
     24          1           0       -2.028192   -0.482243   -0.465561
     25          1           0       -2.654289   -0.305657    1.170881
     26          1           0       -4.344168   -0.919397   -1.303106
     27          1           0       -4.969024   -0.743193    0.332775
     28          1           0       -3.582512   -2.707110    1.079296
     29          1           0       -2.954106   -2.884314   -0.565880
     30          1           0       -4.672465   -3.167325   -0.239610
     31          6           0       -3.172021    1.317494   -0.149552
     32          6           0       -1.987411    2.216491    0.206100
     33          6           0       -2.267174    3.695902   -0.060111
     34          1           0       -3.425370    1.458782   -1.209386
     35          1           0       -4.051467    1.635368    0.427055
     36          1           0       -1.110634    1.896318   -0.371280
     37          1           0       -1.735490    2.072522    1.264601
     38          1           0       -3.125553    4.037438    0.527375
     39          1           0       -2.497146    3.860235   -1.117801
     40          1           0       -1.407192    4.320450    0.201104
 ---------------------------------------------------------------------

 SCF Done:  E(RHF) =  -470.732116517     A.U. after   11 cycles
 E2 =    -0.1584310560D+01 EUMP2 =    -0.47231642707747D+03

 The electronic state is 1-A.
 Alpha  occ. eigenvalues --  -11.21637 -11.21594 -11.21567 -11.21556 -11.21389
 Alpha  occ. eigenvalues --  -11.21369 -11.21329 -11.21262 -11.21099 -11.21065
 Alpha  occ. eigenvalues --  -11.21024 -11.20984  -1.08451  -1.08378  -1.03559
 Alpha  occ. eigenvalues --   -1.03479  -0.95985  -0.95949  -0.87011  -0.86967
 Alpha  occ. eigenvalues --   -0.79693  -0.79481  -0.78236  -0.78222  -0.65167
 Alpha  occ. eigenvalues --   -0.64943  -0.60996  -0.60855  -0.59528  -0.59160
 Alpha  occ. eigenvalues --   -0.57590  -0.57563  -0.55379  -0.55156  -0.52740
 Alpha  occ. eigenvalues --   -0.52611  -0.52419  -0.52360  -0.50034  -0.49822
 Alpha  occ. eigenvalues --   -0.48008  -0.47775  -0.46740  -0.46496  -0.45843
 Alpha  occ. eigenvalues --   -0.45766  -0.45628  -0.45537  -0.43771  -0.43691
 Alpha virt. eigenvalues --    0.21054   0.23054   0.23599   0.24211   0.25822
 Alpha virt. eigenvalues --    0.26178   0.27152   0.27432   0.27821   0.29557
 Alpha virt. eigenvalues --    0.30393   0.31438   0.31557   0.31967   0.32404

 Mulliken charges:
               1
     1  C   -0.298156
     2  C   -0.303804
     3  C   -0.480838
     4  H    0.148971
     5  H    0.149542
     6  H    0.155468
     7  H    0.151828
     8  H    0.155045
     9  H    0.152445
    10  H    0.168545
    11  C   -0.298257
    12  C   -0.299591
    13  C   -0.475687
    14  H    0.149564
    15  H    0.149642
    16  H    0.151780
    17  H    0.151913
    18  H    0.155176
    19  H    0.155169
    20  H    0.160202
    21  C   -0.305942
    22  C   -0.298554
    23  C   -0.479393
    24  H    0.160735
    25  H    0.148173
    26  H    0.151387
    27  H    0.151441
    28  H    0.154090
    29  H    0.159976
    30  H    0.160055
    31  C   -0.297683
    32  C   -0.300968
    33  C   -0.475663
    34  H    0.149059
    35  H    0.149404
    36  H    0.151900
    37  H    0.152219
    38  H    0.155507
    39  H    0.155203
    40  H    0.160099
 Sum of Mulliken charges =  -0.00000

 Dipole moment (field-independent basis, Debye):
    X=             -0.0096    Y=             -0.0153    Z=              0.0035  Tot=              0.0184
 Quadrupole moment (field-independent basis, Debye-Ang):
   XX=            -85.3340   YY=            -85.8750   ZZ=            -83.7473
   XY=             -0.8394   XZ=             -0.3371   YZ=             -0.3633

 Normal termination of Gaussian 16 at Thu May  6 06:55:42 2021.
