 Gaussian 16, Revision A.03,
 Gaussian 16:  EM64L-G16RevA.03 25-Dec-2016

 -------------
 #p 6-31g* mp2
 -------------

 ------------------------------------------------------
 Input file generated by CHIRIPA (05-May-2021 14:51:09)
 ------------------------------------------------------
 Symbolic Z-matrix:
 Charge =  0 Multiplicity = 1

                         Standard orientation:
 ---------------------------------------------------------------------
 Center     Atomic      Atomic             Coordinates (Angstroms)
 Number     Number       Type             X           Y           Z
 ---------------------------------------------------------------------
      1          6           0       -3.136363   -0.341955   -0.451048
      2          6           0       -2.361140   -1.367502   -1.278857
      3          6           0       -3.141377   -2.664626   -1.494482
      4          1           0       -3.392424   -0.783532    0.521777
      5          1           0       -4.087907   -0.119369   -0.953457
      6          1           0       -1.410724   -1.587051   -0.775742
      7          1           0       -2.106728   -0.923366   -2.249750
      8          1           0       -4.082529   -2.465709   -2.017231
      9          1           0       -3.382570   -3.133165   -0.534847
     10          1           0       -2.568680   -3.383574   -2.088613
     11          6           0       -2.369444    0.960093   -0.226917
     12          6           0       -3.144667    1.985640    0.600892
     13          6           0       -2.364430    3.282763    0.816516
     14          1           0       -1.417900    0.737507    0.275492
     15          1           0       -2.113383    1.401670   -1.199742
     16          1           0       -3.399079    1.541504    1.571785
     17          1           0       -4.095083    2.205188    0.097777
     18          1           0       -2.123237    3.751302   -0.143118
     19          1           0       -1.423278    3.083847    1.339266
     20          1           0       -2.937127    4.001711    1.410647
     21          6           0        2.581062   -0.938121    0.736720
     22          6           0        1.304659   -0.800562    1.567297
     23          6           0        0.974102   -2.067178    2.357365
     24          1           0        2.471684   -1.785037    0.045551
     25          1           0        3.419101   -1.184824    1.403221
     26          1           0        0.469537   -0.552830    0.899601
     27          1           0        1.417014    0.046244    2.256435
     28          1           0        1.788105   -2.314917    3.046297
     29          1           0        0.835245   -2.917395    1.681753
     30          1           0        0.057976   -1.946823    2.943955
     31          6           0        2.924745    0.319983   -0.058755
     32          6           0        4.201149    0.182424   -0.889331
     33          6           0        4.531705    1.449041   -1.679399
     34          1           0        2.086705    0.566686   -0.725256
     35          1           0        3.034123    1.166900    0.632413
     36          1           0        4.088793   -0.664382   -1.578470
     37          1           0        5.036270   -0.065308   -0.221636
     38          1           0        4.670562    2.299257   -1.003788
     39          1           0        3.717703    1.696780   -2.368332
     40          1           0        5.447830    1.328686   -2.265990
 ---------------------------------------------------------------------

 SCF Done:  E(RHF) =  -470.733239359     A.U. after   11 cycles
 E2 =    -0.1583493792D+01 EUMP2 =    -0.47231673315083D+03

 The electronic state is 1-A.
 Alpha  occ. eigenvalues --  -11.21646 -11.21643 -11.21605 -11.21595 -11.21426
 Alpha  occ. eigenvalues --  -11.21409 -11.21361 -11.21340 -11.21135 -11.21098
 Alpha  occ. eigenvalues --  -11.21068 -11.21054  -1.08474  -1.08426  -1.03562
 Alpha  occ. eigenvalues --   -1.03538  -0.96007  -0.95985  -0.87024  -0.87000
 Alpha  occ. eigenvalues --   -0.79641  -0.79602  -0.78371  -0.78159  -0.65247
 Alpha  occ. eigenvalues --   -0.64936  -0.61004  -0.60893  -0.59379  -0.59354
 Alpha  occ. eigenvalues --   -0.57636  -0.57583  -0.55306  -0.55260  -0.52708
 Alpha  occ. eigenvalues --   -0.52680  -0.52440  -0.52403  -0.49980  -0.49906
 Alpha  occ. eigenvalues --   -0.47999  -0.47919  -0.46816  -0.46641  -0.46107
 Alpha  occ. eigenvalues --   -0.45778  -0.45764  -0.45157  -0.43810  -0.43788
 Alpha virt. eigenvalues --    0.20248   0.23275   0.23916   0.24430   0.25359
 Alpha virt. eigenvalues --    0.26830   0.27049   0.27865   0.28037   0.29611
 Alpha virt. eigenvalues --    0.30683   0.31576   0.31664   0.31890   0.32316

 Mulliken charges:
               1
     1  C   -0.297546
     2  C   -0.303644
     3  C   -0.475585
     4  H    0.149621
     5  H    0.149703
     6  H    0.154656
     7  H    0.151755
     8  H    0.155419
     9  H    0.155565
    10  H    0.160076
    11  C   -0.307414
    12  C   -0.298905
    13  C   -0.475904
    14  H    0.158144
    15  H    0.149188
    16  H    0.151831
    17  H    0.151842
    18  H    0.155113
    19  H    0.155735
    20  H    0.160121
    21  C   -0.297327
    22  C   -0.312157
    23  C   -0.475311
    24  H    0.149642
    25  H    0.149709
    26  H    0.162812
    27  H    0.151668
    28  H    0.155749
    29  H    0.155323
    30  H    0.159791
    31  C   -0.298908
    32  C   -0.299678
    33  C   -0.475735
    34  H    0.150383
    35  H    0.149547
    36  H    0.152010
    37  H    0.151903
    38  H    0.155223
    39  H    0.155358
    40  H    0.160227
 Sum of Mulliken charges =  -0.00000

 Dipole moment (field-independent basis, Debye):
    X=              0.0089    Y=             -0.0004    Z=              0.0013  Tot=              0.0090
 Quadrupole moment (field-independent basis, Debye-Ang):
   XX=            -84.6559   YY=            -86.2202   ZZ=            -83.8786
   XY=             -0.6889   XZ=              0.9087   YZ=              0.2332

 Normal termination of Gaussian 16 at Thu May  6 05:19:41 2021.
