 Gaussian 16, Revision A.03,
 Gaussian 16:  EM64L-G16RevA.03 25-Dec-2016

 -------------
 #p 6-31g* mp2
 -------------

 ------------------------------------------------------
 Input file generated by CHIRIPA (05-May-2021 14:57:25)
 ------------------------------------------------------
 Symbolic Z-matrix:
 Charge =  0 Multiplicity = 1

                         Standard orientation:
 ---------------------------------------------------------------------
 Center     Atomic      Atomic             Coordinates (Angstroms)
 Number     Number       Type             X           Y           Z
 ---------------------------------------------------------------------
      1          6           0       -4.696855    2.285390    0.647756
      2          6           0       -3.382139    1.955339    0.992878
      3          6           0       -2.854918    0.702884    0.664332
      4          6           0       -3.674061   -0.199394   -0.012565
      5          6           0       -4.987781    0.099860   -0.370160
      6          6           0       -5.494075    1.358232   -0.031464
      7          1           0       -5.098285    3.260626    0.906921
      8          1           0       -2.760710    2.673397    1.520385
      9          1           0       -1.840495    0.421266    0.919389
     10          1           0       -5.583033   -0.636861   -0.895836
     11          1           0       -6.515455    1.611818   -0.300761
     12          7           0       -3.126993   -1.528444   -0.365755
     13          8           0       -3.869107   -2.305686   -0.962245
     14          8           0       -1.966446   -1.767747   -0.039407
     15          6           0        2.744939   -2.248210    0.554771
     16          6           0        2.078620   -1.387664   -0.323863
     17          6           0        2.633984   -0.150451   -0.663601
     18          6           0        3.862765    0.195800   -0.103691
     19          6           0        4.551013   -0.639765    0.774623
     20          6           0        3.976838   -1.872177    1.100248
     21          1           0        2.306212   -3.207442    0.813206
     22          1           0        1.121780   -1.677070   -0.749009
     23          1           0        2.139651    0.535006   -1.341245
     24          1           0        5.503465   -0.323593    1.182409
     25          1           0        4.496565   -2.538470    1.782877
     26          7           0        4.460662    1.503041   -0.455885
     27          8           0        5.544378    1.784721    0.050921
     28          8           0        3.834256    2.221222   -1.232074
 ---------------------------------------------------------------------

 SCF Done:  E(RHF) =  -868.340191327     A.U. after   16 cycles
 E2 =    -0.2598201620D+01 EUMP2 =    -0.87093839294749D+03

 The electronic state is 1-A.
 Alpha  occ. eigenvalues --  -20.61577 -20.61508 -20.60480 -20.60474 -15.86582
 Alpha  occ. eigenvalues --  -15.85523 -11.31677 -11.30719 -11.28216 -11.28202
 Alpha  occ. eigenvalues --  -11.27887 -11.27268 -11.27202 -11.27160 -11.27144
 Alpha  occ. eigenvalues --  -11.26854 -11.26249 -11.26020  -1.60608  -1.59559
 Alpha  occ. eigenvalues --   -1.40172  -1.39118  -1.19820  -1.18844  -1.09262
 Alpha  occ. eigenvalues --   -1.08252  -1.05181  -1.04204  -0.96144  -0.95128
 Alpha  occ. eigenvalues --   -0.86591  -0.85591  -0.82989  -0.81958  -0.78068
 Alpha  occ. eigenvalues --   -0.77043  -0.72819  -0.71913  -0.71744  -0.70921
 Alpha  occ. eigenvalues --   -0.70883  -0.69918  -0.65477  -0.65174  -0.64475
 Alpha  occ. eigenvalues --   -0.64142  -0.62532  -0.61535  -0.55682  -0.54657
 Alpha  occ. eigenvalues --   -0.53525  -0.53265  -0.52567  -0.52248  -0.49577
 Alpha  occ. eigenvalues --   -0.49533  -0.48513  -0.48481  -0.45634  -0.44562
 Alpha  occ. eigenvalues --   -0.37780  -0.36798  -0.36773  -0.35819
 Alpha virt. eigenvalues --    0.04428   0.05451   0.10885   0.11839   0.15967
 Alpha virt. eigenvalues --    0.17006   0.21008   0.22164   0.26927   0.27508
 Alpha virt. eigenvalues --    0.28443   0.28933   0.30632   0.31609   0.32374

 Mulliken charges:
               1
     1  C   -0.169824
     2  C   -0.218171
     3  C   -0.171546
     4  C    0.157718
     5  C   -0.170620
     6  C   -0.218425
     7  H    0.228176
     8  H    0.226861
     9  H    0.274045
    10  H    0.276092
    11  H    0.225216
    12  N    0.491068
    13  O   -0.456405
    14  O   -0.472435
    15  C   -0.172358
    16  C   -0.224891
    17  C   -0.176116
    18  C    0.158106
    19  C   -0.173087
    20  C   -0.218961
    21  H    0.230125
    22  H    0.244725
    23  H    0.272762
    24  H    0.273197
    25  H    0.221715
    26  N    0.488025
    27  O   -0.461993
    28  O   -0.463000
 Sum of Mulliken charges =  -0.00000

 Dipole moment (field-independent basis, Debye):
    X=             -4.4433    Y=              0.0285    Z=              2.4886  Tot=              5.0929
 Quadrupole moment (field-independent basis, Debye-Ang):
   XX=           -100.5272   YY=           -108.8251   ZZ=           -103.7566
   XY=            -35.6668   XZ=              5.2285   YZ=              0.5624

 Normal termination of Gaussian 16 at Fri May  7 06:34:43 2021.
