 Gaussian 16, Revision A.03,
 Gaussian 16:  EM64L-G16RevA.03 25-Dec-2016

 -------------
 #p 6-31g* mp2
 -------------

 ------------------------------------------------------
 Input file generated by CHIRIPA (05-May-2021 14:55:18)
 ------------------------------------------------------
 Symbolic Z-matrix:
 Charge =  0 Multiplicity = 1

                         Standard orientation:
 ---------------------------------------------------------------------
 Center     Atomic      Atomic             Coordinates (Angstroms)
 Number     Number       Type             X           Y           Z
 ---------------------------------------------------------------------
      1          6           0        5.147681    0.251647    0.346161
      2          6           0        4.163388    0.962165    1.041036
      3          6           0        2.810341    0.657229    0.865466
      4          6           0        2.475701   -0.368915   -0.016767
      5          6           0        3.433113   -1.094982   -0.723504
      6          6           0        4.780050   -0.772853   -0.532343
      7          1           0        6.196387    0.495206    0.488603
      8          1           0        4.445969    1.758306    1.723937
      9          1           0        2.027808    1.191265    1.390696
     10          1           0        3.120588   -1.883343   -1.397473
     11          1           0        5.542313   -1.326331   -1.073326
     12          7           0        1.046525   -0.700838   -0.210888
     13          8           0        0.777739   -1.609322   -0.993861
     14          8           0        0.222183   -0.046229    0.423610
     15          6           0       -3.147326    0.900036   -0.500330
     16          6           0       -2.776183    2.227933    0.160676
     17          6           0       -2.130870    3.213470   -0.814044
     18          1           0       -2.244822    0.449586   -0.935674
     19          1           0       -3.834186    1.093710   -1.335858
     20          1           0       -2.091317    2.031683    0.995577
     21          1           0       -3.679643    2.675183    0.594666
     22          1           0       -2.811523    3.438425   -1.641514
     23          1           0       -1.214172    2.791270   -1.238324
     24          1           0       -1.873605    4.155900   -0.320587
     25          6           0       -3.793464   -0.095660    0.461349
     26          6           0       -4.164607   -1.423556   -0.199657
     27          6           0       -4.809920   -2.409093    0.775064
     28          1           0       -3.106604   -0.289334    1.296878
     29          1           0       -4.695968    0.354791    0.896693
     30          1           0       -3.261147   -1.870806   -0.633646
     31          1           0       -4.849474   -1.227307   -1.034558
     32          1           0       -5.726618   -1.986894    1.199345
     33          1           0       -4.129268   -2.634048    1.602534
     34          1           0       -5.067185   -3.351523    0.281606
 ---------------------------------------------------------------------

 SCF Done:  E(RHF) =  -669.536795469     A.U. after   15 cycles
 E2 =    -0.2091967561D+01 EUMP2 =    -0.67162876303064D+03

 The electronic state is 1-A.
 Alpha  occ. eigenvalues --  -20.61168 -20.61159 -15.86173 -11.31414 -11.27965
 Alpha  occ. eigenvalues --  -11.27962 -11.27689 -11.26954 -11.26944 -11.20202
 Alpha  occ. eigenvalues --  -11.20137 -11.20013 -11.19906 -11.19805 -11.19608
 Alpha  occ. eigenvalues --   -1.60211  -1.39769  -1.19573  -1.08994  -1.06887
 Alpha  occ. eigenvalues --   -1.04956  -1.02182  -0.95848  -0.94647  -0.86361
 Alpha  occ. eigenvalues --   -0.85681  -0.82684  -0.78240  -0.77748  -0.76696
 Alpha  occ. eigenvalues --   -0.72403  -0.71516  -0.70681  -0.65235  -0.64961
 Alpha  occ. eigenvalues --   -0.63454  -0.62303  -0.59560  -0.58040  -0.56278
 Alpha  occ. eigenvalues --   -0.55466  -0.53930  -0.53292  -0.53045  -0.51422
 Alpha  occ. eigenvalues --   -0.51112  -0.49191  -0.49150  -0.48542  -0.46586
 Alpha  occ. eigenvalues --   -0.45252  -0.45183  -0.44255  -0.44030  -0.42378
 Alpha  occ. eigenvalues --   -0.37547  -0.36552
 Alpha virt. eigenvalues --    0.04754   0.11104   0.16257   0.21192   0.24367
 Alpha virt. eigenvalues --    0.25479   0.27157   0.27761   0.28526   0.28954
 Alpha virt. eigenvalues --    0.29320   0.30854   0.32121   0.32728   0.32995

 Mulliken charges:
               1
     1  C   -0.170275
     2  C   -0.218540
     3  C   -0.170467
     4  C    0.157740
     5  C   -0.170481
     6  C   -0.218608
     7  H    0.226499
     8  H    0.224379
     9  H    0.275980
    10  H    0.276082
    11  H    0.224260
    12  N    0.490547
    13  O   -0.458603
    14  O   -0.462146
    15  C   -0.300427
    16  C   -0.297904
    17  C   -0.475244
    18  H    0.171513
    19  H    0.139385
    20  H    0.157928
    21  H    0.143969
    22  H    0.151448
    23  H    0.155803
    24  H    0.152324
    25  C   -0.297060
    26  C   -0.301859
    27  C   -0.474804
    28  H    0.156435
    29  H    0.140686
    30  H    0.163768
    31  H    0.146090
    32  H    0.150537
    33  H    0.154787
    34  H    0.156257
 Sum of Mulliken charges =  -0.00000

 Dipole moment (field-independent basis, Debye):
    X=              5.5243    Y=              0.9867    Z=              0.6864  Tot=              5.6535
 Quadrupole moment (field-independent basis, Debye-Ang):
   XX=            -71.0540   YY=            -94.9393   ZZ=            -93.5794
   XY=             -0.3682   XZ=              1.2341   YZ=              3.1307

 Normal termination of Gaussian 16 at Thu May  6 01:17:14 2021.
