 Gaussian 16, Revision A.03,
 Gaussian 16:  EM64L-G16RevA.03 25-Dec-2016

 -------------
 #p 6-31g* mp2
 -------------

 ------------------------------------------------------
 Input file generated by CHIRIPA (05-May-2021 14:57:25)
 ------------------------------------------------------
 Symbolic Z-matrix:
 Charge =  0 Multiplicity = 1

                         Standard orientation:
 ---------------------------------------------------------------------
 Center     Atomic      Atomic             Coordinates (Angstroms)
 Number     Number       Type             X           Y           Z
 ---------------------------------------------------------------------
      1          6           0       -2.119197   -1.465007    2.013161
      2          6           0       -1.376245   -0.386602    1.521646
      3          6           0       -1.886996    0.421106    0.501210
      4          6           0       -3.149788    0.120369   -0.006927
      5          6           0       -3.914232   -0.946986    0.461763
      6          6           0       -3.383590   -1.741270    1.482586
      7          1           0       -1.714708   -2.087240    2.806011
      8          1           0       -0.394019   -0.169695    1.931803
      9          1           0       -1.333201    1.262223    0.102149
     10          1           0       -4.890395   -1.138369    0.032931
     11          1           0       -3.962817   -2.578118    1.862359
     12          7           0       -3.701026    0.968347   -1.087422
     13          8           0       -4.816054    0.682426   -1.518233
     14          8           0       -3.007620    1.902857   -1.483043
     15          6           0        3.191452    2.232310    1.033563
     16          6           0        4.359323    1.511748    0.762655
     17          6           0        4.297835    0.284544    0.095767
     18          6           0        3.046127   -0.194549   -0.287620
     19          6           0        1.864692    0.499881   -0.032140
     20          6           0        1.950053    1.724970    0.636002
     21          1           0        3.248491    3.184810    1.552105
     22          1           0        5.324785    1.903315    1.070230
     23          1           0        5.186204   -0.294012   -0.126696
     24          1           0        0.916763    0.083837   -0.351137
     25          1           0        1.041419    2.282396    0.845059
     26          7           0        2.968395   -1.492616   -0.994288
     27          8           0        1.853403   -1.892992   -1.321592
     28          8           0        4.023934   -2.085086   -1.207490
 ---------------------------------------------------------------------

 SCF Done:  E(RHF) =  -868.336241496     A.U. after   16 cycles
 E2 =    -0.2602339655D+01 EUMP2 =    -0.87093858115137D+03

 The electronic state is 1-A.
 Alpha  occ. eigenvalues --  -20.61168 -20.61160 -20.61032 -20.61016 -15.86225
 Alpha  occ. eigenvalues --  -15.86083 -11.31713 -11.31525 -11.28304 -11.28288
 Alpha  occ. eigenvalues --  -11.28207 -11.28062 -11.28012 -11.27744 -11.27421
 Alpha  occ. eigenvalues --  -11.27293 -11.27120 -11.27025  -1.60243  -1.60097
 Alpha  occ. eigenvalues --   -1.39791  -1.39652  -1.19921  -1.19673  -1.09272
 Alpha  occ. eigenvalues --   -1.09031  -1.05427  -1.05067  -0.96090  -0.95874
 Alpha  occ. eigenvalues --   -0.86729  -0.86487  -0.83011  -0.82677  -0.78102
 Alpha  occ. eigenvalues --   -0.77658  -0.72441  -0.72302  -0.71573  -0.71416
 Alpha  occ. eigenvalues --   -0.71057  -0.70724  -0.65589  -0.65396  -0.65316
 Alpha  occ. eigenvalues --   -0.65100  -0.63075  -0.62070  -0.55812  -0.55528
 Alpha  occ. eigenvalues --   -0.53747  -0.53623  -0.53215  -0.53097  -0.49210
 Alpha  occ. eigenvalues --   -0.49185  -0.49068  -0.49049  -0.45169  -0.45044
 Alpha  occ. eigenvalues --   -0.37880  -0.37588  -0.36992  -0.36649
 Alpha virt. eigenvalues --    0.04531   0.04742   0.10533   0.11099   0.15901
 Alpha virt. eigenvalues --    0.16160   0.19195   0.22062   0.24818   0.27673
 Alpha virt. eigenvalues --    0.27813   0.29604   0.30567   0.31150   0.32125

 Mulliken charges:
               1
     1  C   -0.168327
     2  C   -0.218651
     3  C   -0.181871
     4  C    0.162042
     5  C   -0.169328
     6  C   -0.216640
     7  H    0.228759
     8  H    0.224244
     9  H    0.268368
    10  H    0.277578
    11  H    0.226185
    12  N    0.488567
    13  O   -0.457560
    14  O   -0.462655
    15  C   -0.169808
    16  C   -0.218745
    17  C   -0.169428
    18  C    0.157874
    19  C   -0.180130
    20  C   -0.226908
    21  H    0.228601
    22  H    0.225955
    23  H    0.277619
    24  H    0.281647
    25  H    0.222547
    26  N    0.487600
    27  O   -0.458393
    28  O   -0.459142
 Sum of Mulliken charges =  -0.00000

 Dipole moment (field-independent basis, Debye):
    X=              2.1959    Y=              1.3965    Z=              6.3000  Tot=              6.8163
 Quadrupole moment (field-independent basis, Debye-Ang):
   XX=           -105.4724   YY=           -106.5560   ZZ=           -107.6583
   XY=             26.5628   XZ=             -4.2482   YZ=             -1.4733

 Normal termination of Gaussian 16 at Thu May  6 18:03:53 2021.
