 Gaussian 16, Revision A.03,
 Gaussian 16:  EM64L-G16RevA.03 25-Dec-2016

 -------------
 #p 6-31g* mp2
 -------------

 ------------------------------------------------------
 Input file generated by CHIRIPA (05-May-2021 14:57:24)
 ------------------------------------------------------
 Symbolic Z-matrix:
 Charge =  0 Multiplicity = 1

                         Standard orientation:
 ---------------------------------------------------------------------
 Center     Atomic      Atomic             Coordinates (Angstroms)
 Number     Number       Type             X           Y           Z
 ---------------------------------------------------------------------
      1          6           0       -3.194143   -2.441601    0.246191
      2          6           0       -2.243513   -1.889968    1.111365
      3          6           0       -2.023835   -0.509535    1.137727
      4          6           0       -2.775913    0.293380    0.281575
      5          6           0       -3.730228   -0.226221   -0.591687
      6          6           0       -3.933163   -1.609434   -0.601080
      7          1           0       -3.358291   -3.515034    0.232303
      8          1           0       -1.668121   -2.533817    1.770476
      9          1           0       -1.294225   -0.056005    1.797573
     10          1           0       -4.288436    0.441126   -1.237032
     11          1           0       -4.672099   -2.035064   -1.274028
     12          7           0       -2.552212    1.756254    0.300501
     13          8           0       -3.227772    2.442072   -0.463639
     14          8           0       -1.705552    2.189337    1.079117
     15          6           0        5.199686   -0.158661    0.532281
     16          6           0        4.507922   -1.337667    0.235759
     17          6           0        3.185081   -1.290700   -0.214168
     18          6           0        2.582024   -0.041996   -0.356834
     19          6           0        3.244755    1.150293   -0.069564
     20          6           0        4.567010    1.079374    0.378944
     21          1           0        6.227073   -0.204449    0.881244
     22          1           0        4.996742   -2.300549    0.353907
     23          1           0        2.626165   -2.187904   -0.450928
     24          1           0        2.730874    2.095310   -0.197190
     25          1           0        5.101793    1.996636    0.608473
     26          7           0        1.181902    0.020405   -0.832401
     27          8           0        0.673067    1.133035   -0.949774
     28          8           0        0.619833   -1.044498   -1.078771
 ---------------------------------------------------------------------

 SCF Done:  E(RHF) =  -868.337729488     A.U. after   16 cycles
 E2 =    -0.2602055462D+01 EUMP2 =    -0.87093978494981D+03

 The electronic state is 1-A.
 Alpha  occ. eigenvalues --  -20.60843 -20.60744 -20.59337 -20.59313 -15.85788
 Alpha  occ. eigenvalues --  -15.84380 -11.31182 -11.29742 -11.27804 -11.27684
 Alpha  occ. eigenvalues --  -11.27504 -11.26803 -11.26726 -11.26383 -11.26350
 Alpha  occ. eigenvalues --  -11.26167 -11.25448 -11.25433  -1.59860  -1.58364
 Alpha  occ. eigenvalues --   -1.39404  -1.37937  -1.19359  -1.17923  -1.08757
 Alpha  occ. eigenvalues --   -1.07338  -1.04757  -1.03388  -0.95587  -0.94188
 Alpha  occ. eigenvalues --   -0.86154  -0.84808  -0.82411  -0.81060  -0.77456
 Alpha  occ. eigenvalues --   -0.76086  -0.72043  -0.71230  -0.70644  -0.70460
 Alpha  occ. eigenvalues --   -0.69566  -0.69147  -0.65005  -0.64758  -0.63643
 Alpha  occ. eigenvalues --   -0.63473  -0.62096  -0.60793  -0.55267  -0.53958
 Alpha  occ. eigenvalues --   -0.53101  -0.52845  -0.51665  -0.51556  -0.48798
 Alpha  occ. eigenvalues --   -0.48770  -0.47393  -0.47384  -0.44843  -0.43273
 Alpha  occ. eigenvalues --   -0.37354  -0.36363  -0.35874  -0.34900
 Alpha virt. eigenvalues --    0.05033   0.06565   0.11291   0.12684   0.16546
 Alpha virt. eigenvalues --    0.18010   0.21439   0.22517   0.27350   0.28269
 Alpha virt. eigenvalues --    0.28433   0.29397   0.30993   0.31939   0.32645

 Mulliken charges:
               1
     1  C   -0.169583
     2  C   -0.209952
     3  C   -0.163058
     4  C    0.171001
     5  C   -0.169342
     6  C   -0.217133
     7  H    0.219126
     8  H    0.214865
     9  H    0.266911
    10  H    0.271978
    11  H    0.217960
    12  N    0.494265
    13  O   -0.465528
    14  O   -0.463157
    15  C   -0.170830
    16  C   -0.218819
    17  C   -0.172848
    18  C    0.157079
    19  C   -0.169877
    20  C   -0.218854
    21  H    0.225571
    22  H    0.222107
    23  H    0.272326
    24  H    0.282337
    25  H    0.225120
    26  N    0.485512
    27  O   -0.451920
    28  O   -0.465258
 Sum of Mulliken charges =  -0.00000

 Dipole moment (field-independent basis, Debye):
    X=              4.3698    Y=             -5.1244    Z=              1.4882  Tot=              6.8971
 Quadrupole moment (field-independent basis, Debye-Ang):
   XX=            -74.3668   YY=           -103.7656   ZZ=           -105.1124
   XY=             13.2605   XZ=              5.7947   YZ=             -1.6221

 Normal termination of Gaussian 16 at Thu May  6 22:47:03 2021.
