 Gaussian 16, Revision A.03,
 Gaussian 16:  EM64L-G16RevA.03 25-Dec-2016

 -------------
 #p 6-31g* mp2
 -------------

 ------------------------------------------------------
 Input file generated by CHIRIPA (05-May-2021 14:53:15)
 ------------------------------------------------------
 Symbolic Z-matrix:
 Charge =  0 Multiplicity = 1

                         Standard orientation:
 ---------------------------------------------------------------------
 Center     Atomic      Atomic             Coordinates (Angstroms)
 Number     Number       Type             X           Y           Z
 ---------------------------------------------------------------------
      1          6           0       -4.857149   -0.319803   -0.087453
      2          6           0       -5.506579    0.989710   -0.536228
      3          6           0       -6.985549    0.825993   -0.887854
      4          1           0       -4.965284   -1.067512   -0.885063
      5          1           0       -5.400942   -0.711024    0.783541
      6          1           0       -4.960871    1.379057   -1.405267
      7          1           0       -5.396717    1.734446    0.262468
      8          1           0       -7.548913    0.460434   -0.023223
      9          1           0       -7.110591    0.103025   -1.700432
     10          1           0       -7.429907    1.774232   -1.206050
     11          6           0       -3.378645   -0.172293    0.267506
     12          6           0       -2.729214   -1.481806    0.716281
     13          6           0       -1.250245   -1.318088    1.067907
     14          1           0       -2.834851    0.218928   -0.603488
     15          1           0       -3.270509    0.575416    1.065116
     16          1           0       -2.839077   -2.226542   -0.082414
     17          1           0       -3.274922   -1.871153    1.585320
     18          1           0       -1.125202   -0.595121    1.880486
     19          1           0       -0.686880   -0.952529    0.203276
     20          1           0       -0.805887   -2.266328    1.386103
     21          6           0        3.452694   -2.270568   -0.565381
     22          6           0        4.414740   -1.367933   -1.030395
     23          6           0        4.294385   -0.001162   -0.762065
     24          6           0        3.194331    0.430318   -0.022474
     25          6           0        2.219210   -0.444231    0.454591
     26          6           0        2.359926   -1.806655    0.174324
     27          1           0        3.554097   -3.330620   -0.778463
     28          1           0        5.264443   -1.725372   -1.605100
     29          1           0        5.024512    0.719483   -1.109922
     30          1           0        1.383198   -0.057971    1.024948
     31          1           0        1.611252   -2.505363    0.536732
     32          7           0        3.056139    1.874957    0.267914
     33          8           0        2.077690    2.229808    0.921638
     34          8           0        3.928890    2.625057   -0.163703
 ---------------------------------------------------------------------

 SCF Done:  E(RHF) =  -669.534581547     A.U. after   15 cycles
 E2 =    -0.2092322553D+01 EUMP2 =    -0.67162690410031D+03

 The electronic state is 1-A.
 Alpha  occ. eigenvalues --  -20.60692 -20.60686 -15.85742 -11.31066 -11.27658
 Alpha  occ. eigenvalues --  -11.27554 -11.27389 -11.26674 -11.26596 -11.22126
 Alpha  occ. eigenvalues --  -11.21930 -11.21657 -11.21624 -11.21527 -11.21109
 Alpha  occ. eigenvalues --   -1.59767  -1.39321  -1.19248  -1.08698  -1.08651
 Alpha  occ. eigenvalues --   -1.04659  -1.03866  -0.96368  -0.95487  -0.87416
 Alpha  occ. eigenvalues --   -0.86044  -0.82328  -0.79975  -0.78461  -0.77347
 Alpha  occ. eigenvalues --   -0.71962  -0.71090  -0.70365  -0.65326  -0.64897
 Alpha  occ. eigenvalues --   -0.64673  -0.62061  -0.61231  -0.59749  -0.57935
 Alpha  occ. eigenvalues --   -0.55641  -0.55163  -0.53146  -0.53094  -0.52874
 Alpha  occ. eigenvalues --   -0.52428  -0.50279  -0.48721  -0.48717  -0.48229
 Alpha  occ. eigenvalues --   -0.46942  -0.46009  -0.45902  -0.44733  -0.44107
 Alpha  occ. eigenvalues --   -0.37242  -0.36219
 Alpha virt. eigenvalues --    0.05124   0.11386   0.16568   0.20737   0.22692
 Alpha virt. eigenvalues --    0.23998   0.25818   0.26433   0.26886   0.28034
 Alpha virt. eigenvalues --    0.29272   0.29640   0.31133   0.31649   0.32418

 Mulliken charges:
               1
     1  C   -0.298828
     2  C   -0.300176
     3  C   -0.475936
     4  H    0.149006
     5  H    0.149639
     6  H    0.153335
     7  H    0.153990
     8  H    0.155076
     9  H    0.154673
    10  H    0.161458
    11  C   -0.299958
    12  C   -0.299140
    13  C   -0.488941
    14  H    0.152261
    15  H    0.153887
    16  H    0.152093
    17  H    0.154100
    18  H    0.162121
    19  H    0.158548
    20  H    0.153714
    21  C   -0.171427
    22  C   -0.218849
    23  C   -0.171097
    24  C    0.158458
    25  C   -0.177452
    26  C   -0.221835
    27  H    0.225122
    28  H    0.222878
    29  H    0.275070
    30  H    0.284241
    31  H    0.227519
    32  N    0.488137
    33  O   -0.460787
    34  O   -0.460900
 Sum of Mulliken charges =  -0.00000

 Dipole moment (field-independent basis, Debye):
    X=              0.2896    Y=             -5.0257    Z=             -1.0137  Tot=              5.1351
 Quadrupole moment (field-independent basis, Debye-Ang):
   XX=            -89.0629   YY=            -99.7520   ZZ=            -93.2744
   XY=            -15.5091   XZ=             -6.3662   YZ=             -0.5453

 Normal termination of Gaussian 16 at Thu May  6 09:00:58 2021.
