 Gaussian 16, Revision A.03,
 Gaussian 16:  EM64L-G16RevA.03 25-Dec-2016

 -------------
 #p 6-31g* mp2
 -------------

 ------------------------------------------------------
 Input file generated by CHIRIPA (05-May-2021 14:53:18)
 ------------------------------------------------------
 Symbolic Z-matrix:
 Charge =  0 Multiplicity = 1

                         Standard orientation:
 ---------------------------------------------------------------------
 Center     Atomic      Atomic             Coordinates (Angstroms)
 Number     Number       Type             X           Y           Z
 ---------------------------------------------------------------------
      1          6           0       -4.135342   -0.266753    0.781222
      2          6           0       -2.760056   -0.808725    0.390272
      3          6           0       -1.929670   -1.241310    1.599041
      4          1           0       -4.006485    0.584941    1.463100
      5          1           0       -4.679312   -1.038082    1.343844
      6          1           0       -2.219376   -0.037095   -0.172639
      7          1           0       -2.892198   -1.659108   -0.290906
      8          1           0       -2.445049   -2.028618    2.158624
      9          1           0       -1.768405   -0.397389    2.277563
     10          1           0       -0.950447   -1.625453    1.296689
     11          6           0       -4.977287    0.169813   -0.416387
     12          6           0       -6.352572    0.711785   -0.025437
     13          6           0       -7.182958    1.144370   -1.234206
     14          1           0       -4.433316    0.941142   -0.979008
     15          1           0       -5.106143   -0.681881   -1.098265
     16          1           0       -6.220431    1.562168    0.655742
     17          1           0       -6.893252   -0.059845    0.537474
     18          1           0       -7.344223    0.300449   -1.912727
     19          1           0       -6.667579    1.931678   -1.793788
     20          1           0       -8.162181    1.528513   -0.931854
     21          6           0        4.792171    2.207280    0.232172
     22          6           0        3.422790    2.124070    0.504919
     23          6           0        2.729671    0.927170    0.301044
     24          6           0        3.440462   -0.171864   -0.178737
     25          6           0        4.804881   -0.120448   -0.459820
     26          6           0        5.477638    1.086731   -0.248480
     27          1           0        5.322694    3.141052    0.393447
     28          1           0        2.887872    2.992695    0.878281
     29          1           0        1.669603    0.834968    0.503954
     30          1           0        5.310977   -1.003291   -0.831135
     31          1           0        6.541124    1.148440   -0.461161
     32          7           0        2.717466   -1.444409   -0.398523
     33          8           0        3.366584   -2.398345   -0.821947
     34          8           0        1.515354   -1.463797   -0.143204
 ---------------------------------------------------------------------

 SCF Done:  E(RHF) =  -669.536120924     A.U. after   15 cycles
 E2 =    -0.2090733499D+01 EUMP2 =    -0.67162685442344D+03

 The electronic state is 1-A.
 Alpha  occ. eigenvalues --  -20.60912 -20.60899 -15.85955 -11.31269 -11.27834
 Alpha  occ. eigenvalues --  -11.27829 -11.27575 -11.26843 -11.26834 -11.21292
 Alpha  occ. eigenvalues --  -11.20971 -11.20859 -11.20821 -11.20800 -11.20047
 Alpha  occ. eigenvalues --   -1.59975  -1.39531  -1.19440  -1.08845  -1.07926
 Alpha  occ. eigenvalues --   -1.04836  -1.02962  -0.95691  -0.95404  -0.86430
 Alpha  occ. eigenvalues --   -0.86236  -0.82523  -0.79047  -0.77723  -0.77574
 Alpha  occ. eigenvalues --   -0.72185  -0.71290  -0.70549  -0.65098  -0.64840
 Alpha  occ. eigenvalues --   -0.64572  -0.62183  -0.60381  -0.58773  -0.56974
 Alpha  occ. eigenvalues --   -0.55342  -0.54728  -0.53168  -0.52928  -0.52048
 Alpha  occ. eigenvalues --   -0.51827  -0.49394  -0.48932  -0.48919  -0.47342
 Alpha  occ. eigenvalues --   -0.46112  -0.45264  -0.45201  -0.44943  -0.43192
 Alpha  occ. eigenvalues --   -0.37420  -0.36438
 Alpha virt. eigenvalues --    0.04949   0.11217   0.16439   0.21163   0.23248
 Alpha virt. eigenvalues --    0.24542   0.26948   0.27317   0.27722   0.28075
 Alpha virt. eigenvalues --    0.29007   0.30915   0.31808   0.32140   0.32425

 Mulliken charges:
               1
     1  C   -0.297583
     2  C   -0.296397
     3  C   -0.487816
     4  H    0.145637
     5  H    0.148863
     6  H    0.148421
     7  H    0.155060
     8  H    0.151566
     9  H    0.144456
    10  H    0.188549
    11  C   -0.297550
    12  C   -0.299081
    13  C   -0.475347
    14  H    0.147525
    15  H    0.150487
    16  H    0.150195
    17  H    0.151833
    18  H    0.155506
    19  H    0.154094
    20  H    0.159014
    21  C   -0.170602
    22  C   -0.218602
    23  C   -0.170822
    24  C    0.157712
    25  C   -0.170756
    26  C   -0.218601
    27  H    0.225904
    28  H    0.223773
    29  H    0.276392
    30  H    0.275785
    31  H    0.223725
    32  N    0.494869
    33  O   -0.459102
    34  O   -0.467106
 Sum of Mulliken charges =  -0.00000

 Dipole moment (field-independent basis, Debye):
    X=              2.7941    Y=              4.3836    Z=              0.7141  Tot=              5.2472
 Quadrupole moment (field-independent basis, Debye-Ang):
   XX=            -74.8174   YY=            -94.9663   ZZ=            -96.2379
   XY=             14.0284   XZ=              0.3653   YZ=              0.2396

 Normal termination of Gaussian 16 at Wed May  5 17:18:36 2021.
