 Gaussian 16, Revision A.03,
 Gaussian 16:  EM64L-G16RevA.03 25-Dec-2016

 -------------
 #p 6-31g* mp2
 -------------

 ------------------------------------------------------
 Input file generated by CHIRIPA (05-May-2021 14:51:13)
 ------------------------------------------------------
 Symbolic Z-matrix:
 Charge =  0 Multiplicity = 1

                         Standard orientation:
 ---------------------------------------------------------------------
 Center     Atomic      Atomic             Coordinates (Angstroms)
 Number     Number       Type             X           Y           Z
 ---------------------------------------------------------------------
      1          6           0       -2.600974   -0.294637   -0.863259
      2          6           0       -2.443418   -1.804925   -0.683842
      3          6           0       -1.480934   -2.423505   -1.698129
      4          1           0       -2.956852   -0.087967   -1.881878
      5          1           0       -1.615486    0.183021   -0.773535
      6          1           0       -3.429107   -2.279448   -0.772501
      7          1           0       -2.088056   -2.008035    0.334530
      8          1           0       -0.485471   -1.977132   -1.606460
      9          1           0       -1.834141   -2.250087   -2.719781
     10          1           0       -1.383154   -3.503723   -1.551741
     11          6           0       -3.560054    0.338236    0.143401
     12          6           0       -3.717611    1.848524   -0.036016
     13          6           0       -4.680094    2.467104    0.978271
     14          1           0       -4.545543   -0.139423    0.053677
     15          1           0       -3.204176    0.131566    1.162020
     16          1           0       -4.072972    2.051634   -1.054388
     17          1           0       -2.731922    2.323047    0.052643
     18          1           0       -4.326887    2.293686    1.999923
     19          1           0       -5.675558    2.020730    0.886602
     20          1           0       -4.777875    3.547321    0.831883
     21          6           0        2.410062   -0.220460    0.667272
     22          6           0        2.346951   -1.689391    1.087087
     23          6           0        0.999441   -2.071615    1.700206
     24          1           0        2.210777    0.413252    1.542282
     25          1           0        1.606961   -0.017876   -0.054796
     26          1           0        3.150794   -1.889480    1.807100
     27          1           0        2.546600   -2.319675    0.211017
     28          1           0        0.188336   -1.900157    0.985145
     29          1           0        0.795964   -1.467517    2.590297
     30          1           0        0.976247   -3.125896    1.993148
     31          6           0        3.750966    0.176861    0.052586
     32          6           0        3.814076    1.645792   -0.367229
     33          6           0        5.161587    2.028017   -0.980348
     34          1           0        4.554067   -0.025723    0.774654
     35          1           0        3.950251   -0.456850   -0.822423
     36          1           0        3.614429    2.276077    0.508841
     37          1           0        3.010235    1.845881   -1.087242
     38          1           0        5.365065    1.423919   -1.870439
     39          1           0        5.972692    1.856558   -0.265287
     40          1           0        5.184780    3.082297   -1.273290
 ---------------------------------------------------------------------

 SCF Done:  E(RHF) =  -470.733107196     A.U. after   11 cycles
 E2 =    -0.1583460358D+01 EUMP2 =    -0.47231656755375D+03

 The electronic state is 1-A.
 Alpha  occ. eigenvalues --  -11.21629 -11.21626 -11.21601 -11.21593 -11.21452
 Alpha  occ. eigenvalues --  -11.21415 -11.21387 -11.21350 -11.21118 -11.21087
 Alpha  occ. eigenvalues --  -11.21063 -11.21061  -1.08475  -1.08431  -1.03594
 Alpha  occ. eigenvalues --   -1.03508  -0.96040  -0.95961  -0.87025  -0.87010
 Alpha  occ. eigenvalues --   -0.79650  -0.79574  -0.78281  -0.78250  -0.65242
 Alpha  occ. eigenvalues --   -0.64964  -0.61248  -0.60692  -0.59382  -0.59346
 Alpha  occ. eigenvalues --   -0.57623  -0.57590  -0.55496  -0.55072  -0.52701
 Alpha  occ. eigenvalues --   -0.52678  -0.52455  -0.52389  -0.49960  -0.49929
 Alpha  occ. eigenvalues --   -0.48049  -0.47819  -0.46728  -0.46545  -0.45927
 Alpha  occ. eigenvalues --   -0.45785  -0.45697  -0.45605  -0.43813  -0.43792
 Alpha virt. eigenvalues --    0.19562   0.23094   0.23749   0.25054   0.25534
 Alpha virt. eigenvalues --    0.26464   0.27028   0.28061   0.28445   0.29121
 Alpha virt. eigenvalues --    0.30760   0.31171   0.31518   0.31769   0.31996

 Mulliken charges:
               1
     1  C   -0.299747
     2  C   -0.304987
     3  C   -0.477567
     4  H    0.149831
     5  H    0.149922
     6  H    0.153055
     7  H    0.156082
     8  H    0.155137
     9  H    0.155707
    10  H    0.161089
    11  C   -0.298296
    12  C   -0.299770
    13  C   -0.475722
    14  H    0.149558
    15  H    0.150351
    16  H    0.151796
    17  H    0.152209
    18  H    0.155286
    19  H    0.155141
    20  H    0.160224
    21  C   -0.300142
    22  C   -0.299333
    23  C   -0.484685
    24  H    0.149752
    25  H    0.149542
    26  H    0.152145
    27  H    0.152388
    28  H    0.165309
    29  H    0.154514
    30  H    0.160458
    31  C   -0.298278
    32  C   -0.299743
    33  C   -0.475741
    34  H    0.149812
    35  H    0.149927
    36  H    0.151894
    37  H    0.151975
    38  H    0.155327
    39  H    0.155223
    40  H    0.160354
 Sum of Mulliken charges =  -0.00000

 Dipole moment (field-independent basis, Debye):
    X=             -0.0072    Y=             -0.0107    Z=              0.0014  Tot=              0.0129
 Quadrupole moment (field-independent basis, Debye-Ang):
   XX=            -85.2697   YY=            -85.2041   ZZ=            -84.1734
   XY=              0.2540   XZ=              1.6845   YZ=              0.1583

 Normal termination of Gaussian 16 at Wed May  5 15:20:48 2021.
