 Gaussian 16, Revision A.03,
 Gaussian 16:  EM64L-G16RevA.03 25-Dec-2016

 -------------
 #p 6-31g* mp2
 -------------

 ------------------------------------------------------
 Input file generated by CHIRIPA (05-May-2021 14:53:18)
 ------------------------------------------------------
 Symbolic Z-matrix:
 Charge =  0 Multiplicity = 1

                         Standard orientation:
 ---------------------------------------------------------------------
 Center     Atomic      Atomic             Coordinates (Angstroms)
 Number     Number       Type             X           Y           Z
 ---------------------------------------------------------------------
      1          6           0       -4.228109   -0.139377    0.277588
      2          6           0       -4.093237   -1.463645   -0.474814
      3          6           0       -5.019009   -2.550936    0.071576
      4          1           0       -4.012238   -0.306000    1.341817
      5          1           0       -5.270786    0.202526    0.219951
      6          1           0       -3.050829   -1.802251   -0.416948
      7          1           0       -4.309267   -1.293814   -1.537407
      8          1           0       -6.065629   -2.238033   -0.001075
      9          1           0       -4.800042   -2.749359    1.125750
     10          1           0       -4.906254   -3.489056   -0.480761
     11          6           0       -3.308960    0.957475   -0.257023
     12          6           0       -3.443832    2.281743    0.495378
     13          6           0       -2.518061    3.369033   -0.051011
     14          1           0       -2.266283    0.615571   -0.199386
     15          1           0       -3.524831    1.124097   -1.321252
     16          1           0       -3.227803    2.111911    1.557972
     17          1           0       -4.486240    2.620348    0.437513
     18          1           0       -2.737027    3.567456   -1.105185
     19          1           0       -1.471440    3.056130    0.021640
     20          1           0       -2.630815    4.307154    0.501326
     21          6           0        5.199272    0.811971   -0.001387
     22          6           0        4.036965    1.568619   -0.183174
     23          6           0        2.782127    0.952258   -0.188640
     24          6           0        2.726152   -0.428962   -0.008676
     25          6           0        3.866070   -1.210122    0.174813
     26          6           0        5.110272   -0.572544    0.176712
     27          1           0        6.169929    1.299016    0.001474
     28          1           0        4.103060    2.644017   -0.321722
     29          1           0        1.866321    1.513948   -0.327282
     30          1           0        3.768317   -2.280383    0.310468
     31          1           0        6.011259   -1.162691    0.318109
     32          7           0        1.403342   -1.092707   -0.012574
     33          8           0        1.380932   -2.311040    0.148047
     34          8           0        0.413980   -0.382049   -0.176177
 ---------------------------------------------------------------------

 SCF Done:  E(RHF) =  -669.536427504     A.U. after   15 cycles
 E2 =    -0.2091131956D+01 EUMP2 =    -0.67162755946093D+03

 The electronic state is 1-A.
 Alpha  occ. eigenvalues --  -20.61020 -20.61015 -15.86059 -11.31339 -11.27898
 Alpha  occ. eigenvalues --  -11.27894 -11.27628 -11.26896 -11.26886 -11.20726
 Alpha  occ. eigenvalues --  -11.20472 -11.20313 -11.20210 -11.20029 -11.20022
 Alpha  occ. eigenvalues --   -1.60081  -1.39638  -1.19503  -1.08914  -1.07287
 Alpha  occ. eigenvalues --   -1.04894  -1.02524  -0.95764  -0.94989  -0.86296
 Alpha  occ. eigenvalues --   -0.86022  -0.82601  -0.78577  -0.77661  -0.77056
 Alpha  occ. eigenvalues --   -0.72284  -0.71392  -0.70612  -0.65162  -0.64897
 Alpha  occ. eigenvalues --   -0.63898  -0.62242  -0.59922  -0.58372  -0.56592
 Alpha  occ. eigenvalues --   -0.55400  -0.54278  -0.53228  -0.52985  -0.51742
 Alpha  occ. eigenvalues --   -0.51430  -0.49075  -0.49033  -0.48917  -0.46905
 Alpha  occ. eigenvalues --   -0.45576  -0.45060  -0.44654  -0.44420  -0.42729
 Alpha  occ. eigenvalues --   -0.37480  -0.36493
 Alpha virt. eigenvalues --    0.04877   0.11162   0.16384   0.21038   0.23802
 Alpha virt. eigenvalues --    0.24921   0.26629   0.27456   0.28051   0.28987
 Alpha virt. eigenvalues --    0.29103   0.30667   0.31622   0.32487   0.32867

 Mulliken charges:
               1
     1  C   -0.296179
     2  C   -0.303416
     3  C   -0.474946
     4  H    0.148443
     5  H    0.143243
     6  H    0.168666
     7  H    0.147611
     8  H    0.150529
     9  H    0.154333
    10  H    0.158467
    11  C   -0.312144
    12  C   -0.297696
    13  C   -0.474503
    14  H    0.180189
    15  H    0.143990
    16  H    0.150463
    17  H    0.147970
    18  H    0.153323
    19  H    0.152893
    20  H    0.155434
    21  C   -0.170469
    22  C   -0.218610
    23  C   -0.170856
    24  C    0.157186
    25  C   -0.170341
    26  C   -0.218635
    27  H    0.226204
    28  H    0.224263
    29  H    0.275876
    30  H    0.275921
    31  H    0.223961
    32  N    0.496624
    33  O   -0.458794
    34  O   -0.469001
 Sum of Mulliken charges =  -0.00000

 Dipole moment (field-independent basis, Debye):
    X=              5.0290    Y=              2.1873    Z=              0.0071  Tot=              5.4841
 Quadrupole moment (field-independent basis, Debye-Ang):
   XX=            -70.0263   YY=            -94.3144   ZZ=            -95.3351
   XY=              1.7588   XZ=              1.0408   YZ=             -0.7838

 Normal termination of Gaussian 16 at Thu May  6 02:49:07 2021.
