 Gaussian 16, Revision A.03,
 Gaussian 16:  EM64L-G16RevA.03 25-Dec-2016

 -------------
 #p 6-31g* mp2
 -------------

 ------------------------------------------------------
 Input file generated by CHIRIPA (05-May-2021 14:53:13)
 ------------------------------------------------------
 Symbolic Z-matrix:
 Charge =  0 Multiplicity = 1

                         Standard orientation:
 ---------------------------------------------------------------------
 Center     Atomic      Atomic             Coordinates (Angstroms)
 Number     Number       Type             X           Y           Z
 ---------------------------------------------------------------------
      1          6           0       -3.982531   -0.213762   -0.443230
      2          6           0       -5.302509   -0.969316   -0.285805
      3          6           0       -5.346317   -2.259753   -1.104735
      4          1           0       -3.824899    0.018768   -1.505316
      5          1           0       -3.154397   -0.869492   -0.140566
      6          1           0       -6.128018   -0.311887   -0.587364
      7          1           0       -5.457111   -1.199906    0.776053
      8          1           0       -4.542547   -2.937393   -0.799188
      9          1           0       -5.217266   -2.044328   -2.170352
     10          1           0       -6.298666   -2.783866   -0.977470
     11          6           0       -3.923525    1.078479    0.369395
     12          6           0       -2.603547    1.834032    0.211970
     13          6           0       -2.559740    3.124469    1.030900
     14          1           0       -4.751660    1.734209    0.066731
     15          1           0       -4.081158    0.845948    1.431481
     16          1           0       -2.448945    2.064623   -0.849888
     17          1           0       -1.778038    1.176603    0.513529
     18          1           0       -2.688791    2.909045    2.096517
     19          1           0       -3.363510    3.802110    0.725353
     20          1           0       -1.607391    3.648583    0.903635
     21          6           0        1.454647   -1.977802    1.032544
     22          6           0        2.812394   -2.303783    0.950167
     23          6           0        3.726541   -1.402810    0.395974
     24          6           0        3.246239   -0.179228   -0.068192
     25          6           0        1.899603    0.174641   -0.000090
     26          6           0        1.003382   -0.741810    0.557989
     27          1           0        0.751479   -2.683712    1.464565
     28          1           0        3.165692   -3.262943    1.317913
     29          1           0        4.783060   -1.629507    0.319871
     30          1           0        1.577331    1.138448   -0.375103
     31          1           0       -0.050495   -0.485959    0.620672
     32          7           0        4.204517    0.782784   -0.656950
     33          8           0        3.756117    1.854286   -1.058768
     34          8           0        5.385870    0.447092   -0.705451
 ---------------------------------------------------------------------

 SCF Done:  E(RHF) =  -669.535489053     A.U. after   15 cycles
 E2 =    -0.2091226514D+01 EUMP2 =    -0.67162671556720D+03

 The electronic state is 1-A.
 Alpha  occ. eigenvalues --  -20.60734 -20.60729 -15.85787 -11.31148 -11.27720
 Alpha  occ. eigenvalues --  -11.27706 -11.27465 -11.26738 -11.26706 -11.22503
 Alpha  occ. eigenvalues --  -11.22239 -11.22168 -11.22106 -11.21686 -11.21636
 Alpha  occ. eigenvalues --   -1.59809  -1.39363  -1.19321  -1.09180  -1.08719
 Alpha  occ. eigenvalues --   -1.04724  -1.04225  -0.96643  -0.95554  -0.87657
 Alpha  occ. eigenvalues --   -0.86125  -0.82389  -0.80307  -0.79007  -0.77430
 Alpha  occ. eigenvalues --   -0.72006  -0.71132  -0.70434  -0.65846  -0.64974
 Alpha  occ. eigenvalues --   -0.64723  -0.62121  -0.61582  -0.60011  -0.58263
 Alpha  occ. eigenvalues --   -0.55924  -0.55233  -0.53329  -0.53067  -0.53053
 Alpha  occ. eigenvalues --   -0.52828  -0.50583  -0.48776  -0.48760  -0.48595
 Alpha  occ. eigenvalues --   -0.47343  -0.46526  -0.46455  -0.44769  -0.44484
 Alpha  occ. eigenvalues --   -0.37306  -0.36324
 Alpha virt. eigenvalues --    0.05102   0.11321   0.16588   0.19002   0.22635
 Alpha virt. eigenvalues --    0.23645   0.24496   0.26348   0.26940   0.28345
 Alpha virt. eigenvalues --    0.29051   0.30243   0.31150   0.31389   0.32328

 Mulliken charges:
               1
     1  C   -0.298136
     2  C   -0.300241
     3  C   -0.475771
     4  H    0.152840
     5  H    0.141363
     6  H    0.154742
     7  H    0.152049
     8  H    0.153036
     9  H    0.157073
    10  H    0.162372
    11  C   -0.298465
    12  C   -0.305767
    13  C   -0.475870
    14  H    0.153917
    15  H    0.150096
    16  H    0.156364
    17  H    0.143056
    18  H    0.156123
    19  H    0.159045
    20  H    0.163460
    21  C   -0.172013
    22  C   -0.218460
    23  C   -0.171131
    24  C    0.158671
    25  C   -0.173507
    26  C   -0.226158
    27  H    0.225702
    28  H    0.223196
    29  H    0.275472
    30  H    0.275830
    31  H    0.234073
    32  N    0.488138
    33  O   -0.460432
    34  O   -0.460666
 Sum of Mulliken charges =  -0.00000

 Dipole moment (field-independent basis, Debye):
    X=             -3.5867    Y=             -3.2946    Z=              2.0409  Tot=              5.2805
 Quadrupole moment (field-independent basis, Debye-Ang):
   XX=           -113.1766   YY=            -92.1077   ZZ=            -95.3552
   XY=            -13.9232   XZ=              8.0559   YZ=             -1.6940

 Normal termination of Gaussian 16 at Thu May  6 13:43:09 2021.
