 Gaussian 16, Revision A.03,
 Gaussian 16:  EM64L-G16RevA.03 25-Dec-2016

 -------------
 #p 6-31g* mp2
 -------------

 ------------------------------------------------------
 Input file generated by CHIRIPA (05-May-2021 14:51:10)
 ------------------------------------------------------
 Symbolic Z-matrix:
 Charge =  0 Multiplicity = 1

                         Standard orientation:
 ---------------------------------------------------------------------
 Center     Atomic      Atomic             Coordinates (Angstroms)
 Number     Number       Type             X           Y           Z
 ---------------------------------------------------------------------
      1          6           0       -3.084872    0.482521   -0.855811
      2          6           0       -2.707605    1.861356   -0.313159
      3          6           0       -1.981700    2.724574   -1.345491
      4          1           0       -2.175303   -0.033328   -1.192749
      5          1           0       -3.720659    0.606864   -1.743340
      6          1           0       -2.073855    1.734438    0.573898
      7          1           0       -3.618156    2.373906    0.022704
      8          1           0       -2.610737    2.880692   -2.227840
      9          1           0       -1.057661    2.237590   -1.673515
     10          1           0       -1.721351    3.705815   -0.936534
     11          6           0       -3.811233   -0.392119    0.164549
     12          6           0       -4.188500   -1.770953   -0.378103
     13          6           0       -4.914405   -2.634171    0.654229
     14          1           0       -3.175446   -0.516461    1.052078
     15          1           0       -4.720802    0.123731    0.501488
     16          1           0       -3.277949   -2.283504   -0.713966
     17          1           0       -4.822250   -1.644035   -1.265159
     18          1           0       -5.838444   -2.147187    0.982253
     19          1           0       -4.285368   -2.790289    1.536579
     20          1           0       -5.174754   -3.615412    0.245272
     21          6           0        2.715065   -0.043004    0.560469
     22          6           0        2.319920    1.201947    1.355418
     23          6           0        0.850557    1.191727    1.778102
     24          1           0        2.076379   -0.119596   -0.330126
     25          1           0        2.513396   -0.936441    1.167507
     26          1           0        2.523565    2.092840    0.747591
     27          1           0        2.959748    1.275690    2.244125
     28          1           0        0.636292    0.320644    2.405721
     29          1           0        0.197631    1.142438    0.900686
     30          1           0        0.589644    2.090801    2.345068
     31          6           0        4.181040   -0.047399    0.130793
     32          6           0        4.576185   -1.292350   -0.664156
     33          6           0        6.045548   -1.282129   -1.086840
     34          1           0        4.382709    0.846038   -0.476245
     35          1           0        4.819725    0.029194    1.021388
     36          1           0        3.936357   -1.366093   -1.552863
     37          1           0        4.372540   -2.183244   -0.056330
     38          1           0        6.698474   -1.232841   -0.209424
     39          1           0        6.259813   -0.411047   -1.714459
     40          1           0        6.306461   -2.181203   -1.653807
 ---------------------------------------------------------------------

 SCF Done:  E(RHF) =  -470.733194726     A.U. after   11 cycles
 E2 =    -0.1582799822D+01 EUMP2 =    -0.47231599454862D+03

 The electronic state is 1-A.
 Alpha  occ. eigenvalues --  -11.21644 -11.21629 -11.21574 -11.21523 -11.21447
 Alpha  occ. eigenvalues --  -11.21385 -11.21375 -11.21314 -11.21118 -11.21091
 Alpha  occ. eigenvalues --  -11.21074 -11.21049  -1.08471  -1.08398  -1.03580
 Alpha  occ. eigenvalues --   -1.03493  -0.96030  -0.95951  -0.87047  -0.86969
 Alpha  occ. eigenvalues --   -0.79670  -0.79531  -0.78288  -0.78203  -0.65165
 Alpha  occ. eigenvalues --   -0.64990  -0.61143  -0.60757  -0.59392  -0.59318
 Alpha  occ. eigenvalues --   -0.57627  -0.57565  -0.55408  -0.55146  -0.52720
 Alpha  occ. eigenvalues --   -0.52647  -0.52460  -0.52371  -0.50024  -0.49855
 Alpha  occ. eigenvalues --   -0.48023  -0.47822  -0.46769  -0.46481  -0.45878
 Alpha  occ. eigenvalues --   -0.45763  -0.45720  -0.45569  -0.43820  -0.43754
 Alpha virt. eigenvalues --    0.20719   0.23051   0.23810   0.24980   0.26191
 Alpha virt. eigenvalues --    0.26435   0.27209   0.27791   0.28040   0.28978
 Alpha virt. eigenvalues --    0.30696   0.31064   0.31685   0.31758   0.32240

 Mulliken charges:
               1
     1  C   -0.298470
     2  C   -0.306339
     3  C   -0.475869
     4  H    0.148925
     5  H    0.149462
     6  H    0.159160
     7  H    0.152153
     8  H    0.155330
     9  H    0.153931
    10  H    0.160511
    11  C   -0.298408
    12  C   -0.299653
    13  C   -0.475685
    14  H    0.150268
    15  H    0.149579
    16  H    0.151954
    17  H    0.151770
    18  H    0.155125
    19  H    0.155216
    20  H    0.160128
    21  C   -0.298384
    22  C   -0.299720
    23  C   -0.481254
    24  H    0.149062
    25  H    0.149505
    26  H    0.152460
    27  H    0.152119
    28  H    0.154898
    29  H    0.161084
    30  H    0.160658
    31  C   -0.298346
    32  C   -0.299690
    33  C   -0.475738
    34  H    0.149740
    35  H    0.149809
    36  H    0.151926
    37  H    0.151921
    38  H    0.155231
    39  H    0.155287
    40  H    0.160345
 Sum of Mulliken charges =  -0.00000

 Dipole moment (field-independent basis, Debye):
    X=              0.0181    Y=              0.0080    Z=              0.0215  Tot=              0.0292
 Quadrupole moment (field-independent basis, Debye-Ang):
   XX=            -85.2724   YY=            -85.0034   ZZ=            -84.4848
   XY=             -0.7217   XZ=              1.2091   YZ=             -0.0942

 Normal termination of Gaussian 16 at Thu May  6 03:48:47 2021.
