 Gaussian 16, Revision A.03,
 Gaussian 16:  EM64L-G16RevA.03 25-Dec-2016

 -------------
 #p 6-31g* mp2
 -------------

 ------------------------------------------------------
 Input file generated by CHIRIPA (05-May-2021 14:51:14)
 ------------------------------------------------------
 Symbolic Z-matrix:
 Charge =  0 Multiplicity = 1

                         Standard orientation:
 ---------------------------------------------------------------------
 Center     Atomic      Atomic             Coordinates (Angstroms)
 Number     Number       Type             X           Y           Z
 ---------------------------------------------------------------------
      1          6           0       -2.690701    0.265359   -0.081869
      2          6           0       -3.326237    0.134538   -1.466414
      3          6           0       -3.783704    1.477626   -2.036180
      4          1           0       -3.412958    0.729250    0.603766
      5          1           0       -1.833394    0.949980   -0.142812
      6          1           0       -4.181249   -0.550712   -1.403161
      7          1           0       -2.602450   -0.329270   -2.148786
      8          1           0       -2.937023    2.165586   -2.128073
      9          1           0       -4.524792    1.942885   -1.378212
     10          1           0       -4.234990    1.360868   -3.026416
     11          6           0       -2.228295   -1.068879    0.500984
     12          6           0       -1.592759   -0.938058    1.885529
     13          6           0       -1.135292   -2.281146    2.455295
     14          1           0       -3.085602   -1.753500    0.561927
     15          1           0       -1.506038   -1.532770   -0.184652
     16          1           0       -2.316546   -0.474250    2.567901
     17          1           0       -0.737747   -0.252808    1.822275
     18          1           0       -0.394203   -2.746405    1.797326
     19          1           0       -1.981973   -2.969106    2.547188
     20          1           0       -0.684006   -2.164388    3.445531
     21          6           0        2.268831    0.758479    0.438386
     22          6           0        2.148421    2.274833    0.282950
     23          6           0        1.766415    2.974350    1.587764
     24          1           0        1.314397    0.356979    0.805532
     25          1           0        3.019350    0.534337    1.209019
     26          1           0        1.399350    2.496026   -0.488142
     27          1           0        3.103194    2.672746   -0.084052
     28          1           0        2.516928    2.782953    2.361519
     29          1           0        0.803404    2.605228    1.955134
     30          1           0        1.685817    4.057602    1.453869
     31          6           0        2.650164    0.045040   -0.857500
     32          6           0        2.770574   -1.471312   -0.702065
     33          6           0        3.152581   -2.170830   -2.006879
     34          1           0        1.899646    0.269183   -1.628135
     35          1           0        3.604599    0.446540   -1.224647
     36          1           0        1.815802   -1.869226   -0.335063
     37          1           0        3.519646   -1.692506    0.069026
     38          1           0        4.115591   -1.801709   -2.374250
     39          1           0        2.402067   -1.979432   -2.780634
     40          1           0        3.233180   -3.254082   -1.872983
 ---------------------------------------------------------------------

 SCF Done:  E(RHF) =  -470.733420553     A.U. after   11 cycles
 E2 =    -0.1583854633D+01 EUMP2 =    -0.47231727518603D+03

 The electronic state is 1-A.
 Alpha  occ. eigenvalues --  -11.21669 -11.21656 -11.21652 -11.21645 -11.21474
 Alpha  occ. eigenvalues --  -11.21457 -11.21414 -11.21395 -11.21119 -11.21113
 Alpha  occ. eigenvalues --  -11.21105 -11.21103  -1.08518  -1.08463  -1.03586
 Alpha  occ. eigenvalues --   -1.03575  -0.96029  -0.96024  -0.87052  -0.87033
 Alpha  occ. eigenvalues --   -0.79688  -0.79604  -0.78364  -0.78248  -0.65372
 Alpha  occ. eigenvalues --   -0.64895  -0.61008  -0.60958  -0.59424  -0.59365
 Alpha  occ. eigenvalues --   -0.57654  -0.57618  -0.55327  -0.55303  -0.52720
 Alpha  occ. eigenvalues --   -0.52715  -0.52464  -0.52440  -0.50034  -0.49920
 Alpha  occ. eigenvalues --   -0.48023  -0.47949  -0.46895  -0.46545  -0.46108
 Alpha  occ. eigenvalues --   -0.45795  -0.45789  -0.45353  -0.43839  -0.43832
 Alpha virt. eigenvalues --    0.18706   0.22384   0.23603   0.24050   0.25777
 Alpha virt. eigenvalues --    0.26760   0.27225   0.27963   0.28056   0.29821
 Alpha virt. eigenvalues --    0.30428   0.31553   0.31578   0.31820   0.32368

 Mulliken charges:
               1
     1  C   -0.299072
     2  C   -0.299659
     3  C   -0.475714
     4  H    0.150163
     5  H    0.149135
     6  H    0.152274
     7  H    0.151735
     8  H    0.155065
     9  H    0.155405
    10  H    0.160476
    11  C   -0.298946
    12  C   -0.307565
    13  C   -0.476670
    14  H    0.150188
    15  H    0.149608
    16  H    0.152576
    17  H    0.158263
    18  H    0.156149
    19  H    0.155438
    20  H    0.160827
    21  C   -0.308021
    22  C   -0.299296
    23  C   -0.476993
    24  H    0.158579
    25  H    0.149928
    26  H    0.151367
    27  H    0.152320
    28  H    0.155409
    29  H    0.156068
    30  H    0.160592
    31  C   -0.297562
    32  C   -0.301621
    33  C   -0.475708
    34  H    0.148992
    35  H    0.150110
    36  H    0.152498
    37  H    0.152528
    38  H    0.155511
    39  H    0.155084
    40  H    0.160540
 Sum of Mulliken charges =  -0.00000

 Dipole moment (field-independent basis, Debye):
    X=              0.0018    Y=             -0.0031    Z=              0.0129  Tot=              0.0134
 Quadrupole moment (field-independent basis, Debye-Ang):
   XX=            -83.0114   YY=            -85.9625   ZZ=            -85.5530
   XY=              0.7449   XZ=             -0.1412   YZ=             -0.1088

 Normal termination of Gaussian 16 at Wed May  5 20:01:47 2021.
