 Gaussian 16, Revision A.03,
 Gaussian 16:  EM64L-G16RevA.03 25-Dec-2016

 -------------
 #p 6-31g* mp2
 -------------

 ------------------------------------------------------
 Input file generated by CHIRIPA (05-May-2021 14:51:09)
 ------------------------------------------------------
 Symbolic Z-matrix:
 Charge =  0 Multiplicity = 1

                         Standard orientation:
 ---------------------------------------------------------------------
 Center     Atomic      Atomic             Coordinates (Angstroms)
 Number     Number       Type             X           Y           Z
 ---------------------------------------------------------------------
      1          6           0        2.853912   -0.873294    0.325640
      2          6           0        1.656837   -0.134005    0.924346
      3          6           0        0.465021   -1.054766    1.188104
      4          1           0        2.546980   -1.355933   -0.612335
      5          1           0        3.156430   -1.679873    1.007775
      6          1           0        1.357537    0.671819    0.241936
      7          1           0        1.966704    0.347089    1.860906
      8          1           0        0.740826   -1.851372    1.886639
      9          1           0        0.128197   -1.524798    0.258469
     10          1           0       -0.379526   -0.505682    1.616014
     11          6           0        4.053233    0.033802    0.056317
     12          6           0        5.250308   -0.705487   -0.542389
     13          6           0        6.442124    0.215274   -0.806147
     14          1           0        3.750715    0.840381   -0.625818
     15          1           0        4.360165    0.516441    0.994292
     16          1           0        4.940441   -1.186581   -1.478950
     17          1           0        5.549608   -1.511311    0.140021
     18          1           0        6.778947    0.685306    0.123487
     19          1           0        6.166319    1.011880   -1.504682
     20          1           0        7.286671   -0.333811   -1.234057
     21          6           0       -3.099103    1.017955   -0.507096
     22          6           0       -2.450493    1.949315    0.517530
     23          6           0       -1.745297    3.141336   -0.130218
     24          1           0       -2.329908    0.656694   -1.203353
     25          1           0       -3.820216    1.589904   -1.107316
     26          1           0       -1.731825    1.375470    1.116558
     27          1           0       -3.221288    2.308249    1.211546
     28          1           0       -2.454333    3.738327   -0.712859
     29          1           0       -0.956407    2.800248   -0.808386
     30          1           0       -1.288684    3.794023    0.620358
     31          6           0       -3.808042   -0.178463    0.125139
     32          6           0       -4.456651   -1.109823   -0.899487
     33          6           0       -5.161848   -2.301844   -0.251739
     34          1           0       -3.086929   -0.750411    0.725359
     35          1           0       -4.577236    0.182798    0.821397
     36          1           0       -3.685856   -1.468757   -1.593502
     37          1           0       -5.175320   -0.535977   -1.498515
     38          1           0       -5.950737   -1.960755    0.426429
     39          1           0       -4.452812   -2.898834    0.330902
     40          1           0       -5.618461   -2.954531   -1.002315
 ---------------------------------------------------------------------

 SCF Done:  E(RHF) =  -470.733204176     A.U. after   11 cycles
 E2 =    -0.1583221985D+01 EUMP2 =    -0.47231642616069D+03

 The electronic state is 1-A.
 Alpha  occ. eigenvalues --  -11.21672 -11.21629 -11.21570 -11.21566 -11.21451
 Alpha  occ. eigenvalues --  -11.21388 -11.21367 -11.21304 -11.21154 -11.21090
 Alpha  occ. eigenvalues --  -11.21067 -11.21039  -1.08481  -1.08395  -1.03591
 Alpha  occ. eigenvalues --   -1.03495  -0.96035  -0.95951  -0.87058  -0.86964
 Alpha  occ. eigenvalues --   -0.79648  -0.79566  -0.78287  -0.78214  -0.65162
 Alpha  occ. eigenvalues --   -0.65003  -0.61043  -0.60875  -0.59436  -0.59271
 Alpha  occ. eigenvalues --   -0.57643  -0.57558  -0.55324  -0.55230  -0.52785
 Alpha  occ. eigenvalues --   -0.52622  -0.52475  -0.52366  -0.49977  -0.49887
 Alpha  occ. eigenvalues --   -0.48009  -0.47856  -0.46672  -0.46585  -0.45831
 Alpha  occ. eigenvalues --   -0.45758  -0.45743  -0.45660  -0.43798  -0.43741
 Alpha virt. eigenvalues --    0.20147   0.23113   0.23680   0.24756   0.25867
 Alpha virt. eigenvalues --    0.26254   0.27047   0.27318   0.28235   0.29404
 Alpha virt. eigenvalues --    0.30446   0.30920   0.31761   0.31888   0.32274

 Mulliken charges:
               1
     1  C   -0.298395
     2  C   -0.300979
     3  C   -0.482322
     4  H    0.149596
     5  H    0.149796
     6  H    0.153099
     7  H    0.152358
     8  H    0.155843
     9  H    0.155064
    10  H    0.165859
    11  C   -0.298326
    12  C   -0.299699
    13  C   -0.475744
    14  H    0.149655
    15  H    0.149828
    16  H    0.151953
    17  H    0.151982
    18  H    0.155253
    19  H    0.155279
    20  H    0.160343
    21  C   -0.297549
    22  C   -0.306269
    23  C   -0.475597
    24  H    0.149473
    25  H    0.149387
    26  H    0.158294
    27  H    0.151780
    28  H    0.155147
    29  H    0.154901
    30  H    0.160334
    31  C   -0.301388
    32  C   -0.299420
    33  C   -0.475800
    34  H    0.152938
    35  H    0.149267
    36  H    0.151648
    37  H    0.151735
    38  H    0.155060
    39  H    0.155564
    40  H    0.160050
 Sum of Mulliken charges =  -0.00000

 Dipole moment (field-independent basis, Debye):
    X=              0.0311    Y=             -0.0076    Z=              0.0176  Tot=              0.0365
 Quadrupole moment (field-independent basis, Debye-Ang):
   XX=            -85.1298   YY=            -85.6211   ZZ=            -84.0341
   XY=             -1.5331   XZ=              0.6850   YZ=              0.2712

 Normal termination of Gaussian 16 at Thu May  6 05:21:03 2021.
