 Gaussian 16, Revision A.03,
 Gaussian 16:  EM64L-G16RevA.03 25-Dec-2016

 -------------
 #p 6-31g* mp2
 -------------

 ------------------------------------------------------
 Input file generated by CHIRIPA (05-May-2021 14:55:22)
 ------------------------------------------------------
 Symbolic Z-matrix:
 Charge =  0 Multiplicity = 1

                         Standard orientation:
 ---------------------------------------------------------------------
 Center     Atomic      Atomic             Coordinates (Angstroms)
 Number     Number       Type             X           Y           Z
 ---------------------------------------------------------------------
      1          6           0       -2.930141    2.636869   -0.505392
      2          6           0       -2.455136    2.317682    0.770935
      3          6           0       -2.362327    0.984370    1.181074
      4          6           0       -2.754894   -0.008964    0.285268
      5          6           0       -3.232203    0.277111   -0.992867
      6          6           0       -3.316477    1.617363   -1.381674
      7          1           0       -2.998922    3.675314   -0.815712
      8          1           0       -2.154395    3.107370    1.453571
      9          1           0       -1.998168    0.709084    2.163430
     10          1           0       -3.524541   -0.531945   -1.651186
     11          1           0       -3.685747    1.862294   -2.373488
     12          7           0       -2.661159   -1.424155    0.708172
     13          8           0       -3.013306   -2.280832   -0.099748
     14          8           0       -2.237317   -1.649908    1.839556
     15          6           0        4.203156    0.066383   -0.439320
     16          6           0        5.002191    0.465028    0.801894
     17          6           0        6.314232    1.171126    0.458722
     18          1           0        4.819804   -0.588783   -1.069755
     19          1           0        3.991996    0.965135   -1.035182
     20          1           0        5.210590   -0.434023    1.395943
     21          1           0        4.383501    1.119166    1.429541
     22          1           0        6.122017    2.084005   -0.114260
     23          1           0        6.953805    0.521991   -0.148049
     24          1           0        6.869382    1.447240    1.360625
     25          6           0        2.888922   -0.640531   -0.112534
     26          6           0        2.089887   -1.039175   -1.353748
     27          6           0        0.777846   -1.745274   -1.010576
     28          1           0        3.100082   -1.539282    0.483327
     29          1           0        2.272274    0.014635    0.517901
     30          1           0        2.708577   -1.693314   -1.981395
     31          1           0        1.881488   -0.140125   -1.947797
     32          1           0        0.138272   -1.096139   -0.403804
     33          1           0        0.970060   -2.658153   -0.437594
     34          1           0        0.222695   -2.021388   -1.912479
 ---------------------------------------------------------------------

 SCF Done:  E(RHF) =  -669.535544003     A.U. after   15 cycles
 E2 =    -0.2091871688D+01 EUMP2 =    -0.67162741569027D+03

 The electronic state is 1-A.
 Alpha  occ. eigenvalues --  -20.60762 -20.60748 -15.85803 -11.31207 -11.27783
 Alpha  occ. eigenvalues --  -11.27771 -11.27527 -11.26804 -11.26793 -11.21525
 Alpha  occ. eigenvalues --  -11.21335 -11.21266 -11.21148 -11.21036 -11.20619
 Alpha  occ. eigenvalues --   -1.59826  -1.39379  -1.19386  -1.08775  -1.08256
 Alpha  occ. eigenvalues --   -1.04790  -1.03333  -0.95770  -0.95602  -0.86783
 Alpha  occ. eigenvalues --   -0.86186  -0.82431  -0.79403  -0.78066  -0.77473
 Alpha  occ. eigenvalues --   -0.72027  -0.71159  -0.70488  -0.65036  -0.64893
 Alpha  occ. eigenvalues --   -0.64792  -0.62135  -0.60737  -0.59145  -0.57380
 Alpha  occ. eigenvalues --   -0.55291  -0.55072  -0.53120  -0.52882  -0.52452
 Alpha  occ. eigenvalues --   -0.52181  -0.49712  -0.48790  -0.48779  -0.47709
 Alpha  occ. eigenvalues --   -0.46449  -0.45605  -0.45535  -0.44777  -0.43578
 Alpha  occ. eigenvalues --   -0.37351  -0.36394
 Alpha virt. eigenvalues --    0.05061   0.11240   0.16531   0.21393   0.22999
 Alpha virt. eigenvalues --    0.24434   0.26748   0.27283   0.27576   0.27956
 Alpha virt. eigenvalues --    0.28355   0.30822   0.31432   0.31964   0.32045

 Mulliken charges:
               1
     1  C   -0.170919
     2  C   -0.218379
     3  C   -0.172991
     4  C    0.156527
     5  C   -0.170663
     6  C   -0.218470
     7  H    0.225623
     8  H    0.223473
     9  H    0.275968
    10  H    0.275871
    11  H    0.223547
    12  N    0.492223
    13  O   -0.459313
    14  O   -0.460391
    15  C   -0.297982
    16  C   -0.299249
    17  C   -0.475509
    18  H    0.149873
    19  H    0.147224
    20  H    0.153320
    21  H    0.150231
    22  H    0.153808
    23  H    0.155556
    24  H    0.159882
    25  C   -0.297548
    26  C   -0.300301
    27  C   -0.474048
    28  H    0.152423
    29  H    0.147677
    30  H    0.151733
    31  H    0.147912
    32  H    0.148177
    33  H    0.163481
    34  H    0.161235
 Sum of Mulliken charges =  -0.00000

 Dipole moment (field-independent basis, Debye):
    X=             -0.3930    Y=              4.8876    Z=             -1.4820  Tot=              5.1224
 Quadrupole moment (field-independent basis, Debye-Ang):
   XX=            -93.9635   YY=            -94.1991   ZZ=            -91.8984
   XY=            -14.4426   XZ=              6.1150   YZ=              2.9765

 Normal termination of Gaussian 16 at Wed May  5 20:39:31 2021.
