 Gaussian 16, Revision A.03,
 Gaussian 16:  EM64L-G16RevA.03 25-Dec-2016

 -------------
 #p 6-31g* mp2
 -------------

 ------------------------------------------------------
 Input file generated by CHIRIPA (05-May-2021 14:53:14)
 ------------------------------------------------------
 Symbolic Z-matrix:
 Charge =  0 Multiplicity = 1

                         Standard orientation:
 ---------------------------------------------------------------------
 Center     Atomic      Atomic             Coordinates (Angstroms)
 Number     Number       Type             X           Y           Z
 ---------------------------------------------------------------------
      1          6           0       -3.609696    0.160071    0.122351
      2          6           0       -2.868006    1.236965   -0.670227
      3          6           0       -1.438468    1.456732   -0.174327
      4          1           0       -3.627639    0.442153    1.183979
      5          1           0       -3.049549   -0.783122    0.058974
      6          1           0       -3.430105    2.177498   -0.606520
      7          1           0       -2.851993    0.952382   -1.730120
      8          1           0       -0.856828    0.532614   -0.253710
      9          1           0       -1.438225    1.764691    0.876274
     10          1           0       -0.926675    2.230643   -0.754834
     11          6           0       -5.040117   -0.071092   -0.361577
     12          6           0       -5.781807   -1.147986    0.431001
     13          6           0       -7.211345   -1.367752   -0.064899
     14          1           0       -5.600264    0.872102   -0.298200
     15          1           0       -5.022174   -0.353173   -1.423205
     16          1           0       -5.797820   -0.863402    1.490894
     17          1           0       -5.219708   -2.088519    0.367294
     18          1           0       -7.211588   -1.675712   -1.115500
     19          1           0       -7.792985   -0.443634    0.014484
     20          1           0       -7.723138   -2.141664    0.515608
     21          6           0        2.055825    2.050811    0.609180
     22          6           0        2.220387    1.066095    1.588861
     23          6           0        2.951439   -0.093512    1.314227
     24          6           0        3.506736   -0.236383    0.043588
     25          6           0        3.360437    0.726733   -0.953554
     26          6           0        2.625372    1.878291   -0.656669
     27          1           0        1.486368    2.948494    0.831166
     28          1           0        1.779194    1.197392    2.572810
     29          1           0        3.094417   -0.871712    2.054079
     30          1           0        3.812086    0.567573   -1.925203
     31          1           0        2.499205    2.641372   -1.419451
     32          7           0        4.282793   -1.459746   -0.258932
     33          8           0        4.762009   -1.561742   -1.386135
     34          8           0        4.397155   -2.293457    0.636882
 ---------------------------------------------------------------------

 SCF Done:  E(RHF) =  -669.535472745     A.U. after   15 cycles
 E2 =    -0.2091499585D+01 EUMP2 =    -0.67162697233001D+03

 The electronic state is 1-A.
 Alpha  occ. eigenvalues --  -20.60739 -20.60734 -15.85794 -11.31142 -11.27725
 Alpha  occ. eigenvalues --  -11.27721 -11.27453 -11.26724 -11.26714 -11.22065
 Alpha  occ. eigenvalues --  -11.21842 -11.21770 -11.21700 -11.21665 -11.21267
 Alpha  occ. eigenvalues --   -1.59816  -1.39370  -1.19324  -1.08793  -1.08712
 Alpha  occ. eigenvalues --   -1.04726  -1.03906  -0.96373  -0.95549  -0.87390
 Alpha  occ. eigenvalues --   -0.86123  -0.82386  -0.79974  -0.78585  -0.77436
 Alpha  occ. eigenvalues --   -0.72012  -0.71141  -0.70428  -0.65413  -0.64976
 Alpha  occ. eigenvalues --   -0.64730  -0.62076  -0.61299  -0.59758  -0.57971
 Alpha  occ. eigenvalues --   -0.55663  -0.55218  -0.53375  -0.52894  -0.52819
 Alpha  occ. eigenvalues --   -0.52652  -0.50296  -0.48769  -0.48767  -0.48288
 Alpha  occ. eigenvalues --   -0.46993  -0.46134  -0.46042  -0.44779  -0.44170
 Alpha  occ. eigenvalues --   -0.37234  -0.36330
 Alpha virt. eigenvalues --    0.05094   0.11285   0.16571   0.20877   0.22600
 Alpha virt. eigenvalues --    0.24013   0.26233   0.26865   0.26922   0.27420
 Alpha virt. eigenvalues --    0.28842   0.30794   0.30895   0.31338   0.31892

 Mulliken charges:
               1
     1  C   -0.298727
     2  C   -0.300978
     3  C   -0.473917
     4  H    0.148298
     5  H    0.151545
     6  H    0.151132
     7  H    0.153850
     8  H    0.162752
     9  H    0.148065
    10  H    0.152745
    11  C   -0.298515
    12  C   -0.299972
    13  C   -0.475909
    14  H    0.149306
    15  H    0.150728
    16  H    0.151535
    17  H    0.153144
    18  H    0.155876
    19  H    0.155023
    20  H    0.161141
    21  C   -0.163753
    22  C   -0.219340
    23  C   -0.171468
    24  C    0.157906
    25  C   -0.171219
    26  C   -0.219496
    27  H    0.226462
    28  H    0.223251
    29  H    0.275426
    30  H    0.275384
    31  H    0.222964
    32  N    0.488115
    33  O   -0.460685
    34  O   -0.460674
 Sum of Mulliken charges =  -0.00000

 Dipole moment (field-independent basis, Debye):
    X=             -2.7966    Y=              4.2768    Z=              1.0573  Tot=              5.2182
 Quadrupole moment (field-independent basis, Debye-Ang):
   XX=           -115.5369   YY=            -96.5404   ZZ=            -90.1205
   XY=             15.9095   XZ=              2.3467   YZ=             -1.4214

 Normal termination of Gaussian 16 at Thu May  6 07:23:23 2021.
