 Gaussian 16, Revision A.03,
 Gaussian 16:  EM64L-G16RevA.03 25-Dec-2016

 -------------
 #p 6-31g* mp2
 -------------

 ------------------------------------------------------
 Input file generated by CHIRIPA (05-May-2021 14:51:14)
 ------------------------------------------------------
 Symbolic Z-matrix:
 Charge =  0 Multiplicity = 1

                         Standard orientation:
 ---------------------------------------------------------------------
 Center     Atomic      Atomic             Coordinates (Angstroms)
 Number     Number       Type             X           Y           Z
 ---------------------------------------------------------------------
      1          6           0       -4.656947   -0.134643   -0.113654
      2          6           0       -4.654593   -1.660909   -0.205811
      3          6           0       -6.016834   -2.274824    0.118535
      4          1           0       -4.964240    0.164802    0.897706
      5          1           0       -5.414006    0.266122   -0.801872
      6          1           0       -3.896805   -2.058612    0.481361
      7          1           0       -4.347085   -1.956758   -1.217013
      8          1           0       -6.780331   -1.906021   -0.574038
      9          1           0       -6.327492   -2.008454    1.133985
     10          1           0       -5.992515   -3.366655    0.046608
     11          6           0       -3.302158    0.493776   -0.435155
     12          6           0       -3.304513    2.020042   -0.342998
     13          6           0       -1.942271    2.633957   -0.667344
     14          1           0       -2.545099    0.093011    0.253063
     15          1           0       -2.994866    0.194331   -1.446515
     16          1           0       -3.612020    2.315891    0.668204
     17          1           0       -4.062301    2.417745   -1.030170
     18          1           0       -1.631613    2.367587   -1.682794
     19          1           0       -1.178775    2.265154    0.025229
     20          1           0       -1.966591    3.725788   -0.595418
     21          6           0        3.216577   -0.215608    0.274992
     22          6           0        2.578787    0.455193    1.492052
     23          6           0        1.051971    0.374828    1.478923
     24          1           0        2.831024    0.255613   -0.639472
     25          1           0        2.904187   -1.268489    0.239664
     26          1           0        2.893394    1.506143    1.525850
     27          1           0        2.966046   -0.017552    2.403731
     28          1           0        0.721202   -0.668772    1.469246
     29          1           0        0.648137    0.863581    0.586377
     30          1           0        0.616813    0.860507    2.357908
     31          6           0        4.742529   -0.143526    0.273816
     32          6           0        5.380319   -0.814326   -0.943243
     33          6           0        6.907134   -0.733961   -0.930115
     34          1           0        5.054918    0.909357    0.309146
     35          1           0        5.128081   -0.614747    1.188281
     36          1           0        4.993058   -0.341581   -1.854922
     37          1           0        5.065711   -1.865276   -0.977041
     38          1           0        7.310968   -1.222714   -0.037568
     39          1           0        7.237902    0.309638   -0.920437
     40          1           0        7.342292   -1.219640   -1.809098
 ---------------------------------------------------------------------

 SCF Done:  E(RHF) =  -470.733291892     A.U. after   11 cycles
 E2 =    -0.1582471674D+01 EUMP2 =    -0.47231576356535D+03

 The electronic state is 1-A.
 Alpha  occ. eigenvalues --  -11.21622 -11.21601 -11.21567 -11.21553 -11.21409
 Alpha  occ. eigenvalues --  -11.21353 -11.21349 -11.21290 -11.21099 -11.21070
 Alpha  occ. eigenvalues --  -11.21045 -11.21005  -1.08438  -1.08382  -1.03549
 Alpha  occ. eigenvalues --   -1.03483  -0.96009  -0.95927  -0.87039  -0.86936
 Alpha  occ. eigenvalues --   -0.79647  -0.79517  -0.78257  -0.78183  -0.65081
 Alpha  occ. eigenvalues --   -0.65002  -0.61026  -0.60820  -0.59362  -0.59307
 Alpha  occ. eigenvalues --   -0.57639  -0.57527  -0.55436  -0.55094  -0.52702
 Alpha  occ. eigenvalues --   -0.52634  -0.52490  -0.52303  -0.50104  -0.49718
 Alpha  occ. eigenvalues --   -0.48026  -0.47778  -0.46724  -0.46469  -0.45848
 Alpha  occ. eigenvalues --   -0.45728  -0.45700  -0.45562  -0.43796  -0.43741
 Alpha virt. eigenvalues --    0.22015   0.22962   0.23582   0.24731   0.25939
 Alpha virt. eigenvalues --    0.26540   0.27131   0.27589   0.27833   0.29052
 Alpha virt. eigenvalues --    0.30667   0.31568   0.31689   0.31802   0.32161

 Mulliken charges:
               1
     1  C   -0.298248
     2  C   -0.299607
     3  C   -0.475675
     4  H    0.149569
     5  H    0.149344
     6  H    0.151991
     7  H    0.151836
     8  H    0.155107
     9  H    0.155133
    10  H    0.160099
    11  C   -0.299957
    12  C   -0.298930
    13  C   -0.483069
    14  H    0.152182
    15  H    0.149196
    16  H    0.151779
    17  H    0.151593
    18  H    0.154252
    19  H    0.163008
    20  H    0.159902
    21  C   -0.298639
    22  C   -0.299487
    23  C   -0.482409
    24  H    0.150254
    25  H    0.149561
    26  H    0.152253
    27  H    0.151952
    28  H    0.155350
    29  H    0.161829
    30  H    0.159732
    31  C   -0.298345
    32  C   -0.299679
    33  C   -0.475716
    34  H    0.149619
    35  H    0.149612
    36  H    0.152040
    37  H    0.151928
    38  H    0.155157
    39  H    0.155216
    40  H    0.160266
 Sum of Mulliken charges =  -0.00000

 Dipole moment (field-independent basis, Debye):
    X=              0.0288    Y=             -0.0063    Z=              0.0077  Tot=              0.0305
 Quadrupole moment (field-independent basis, Debye-Ang):
   XX=            -86.8879   YY=            -84.4054   ZZ=            -83.6317
   XY=             -0.5371   XZ=              0.5739   YZ=             -0.3726

 Normal termination of Gaussian 16 at Thu May  6 05:36:22 2021.
