 Gaussian 16, Revision A.03,
 Gaussian 16:  EM64L-G16RevA.03 25-Dec-2016

 -------------
 #p 6-31g* mp2
 -------------

 ------------------------------------------------------
 Input file generated by CHIRIPA (05-May-2021 14:55:22)
 ------------------------------------------------------
 Symbolic Z-matrix:
 Charge =  0 Multiplicity = 1

                         Standard orientation:
 ---------------------------------------------------------------------
 Center     Atomic      Atomic             Coordinates (Angstroms)
 Number     Number       Type             X           Y           Z
 ---------------------------------------------------------------------
      1          6           0        2.154013   -2.153276   -1.069485
      2          6           0        3.379385   -2.051387   -0.402700
      3          6           0        3.849914   -0.808787    0.032151
      4          6           0        3.065799    0.316403   -0.217652
      5          6           0        1.840785    0.247365   -0.879365
      6          6           0        1.389970   -1.005598   -1.305273
      7          1           0        1.796152   -3.122583   -1.403814
      8          1           0        3.974867   -2.940999   -0.218208
      9          1           0        4.794899   -0.701252    0.550666
     10          1           0        1.269478    1.151979   -1.048773
     11          1           0        0.437946   -1.081723   -1.822864
     12          7           0        3.553492    1.637374    0.237971
     13          8           0        2.843861    2.613635    0.005649
     14          8           0        4.636141    1.671476    0.818784
     15          6           0       -4.548284   -0.188472    0.148612
     16          6           0       -5.109708    1.101911   -0.449469
     17          6           0       -6.564962    0.961762   -0.897119
     18          1           0       -4.629131   -0.994554   -0.593440
     19          1           0       -5.168908   -0.488078    1.004448
     20          1           0       -4.487394    1.399744   -1.303071
     21          1           0       -5.027340    1.905060    0.294025
     22          1           0       -7.203584    0.687879   -0.051098
     23          1           0       -6.660569    0.179692   -1.657267
     24          1           0       -6.946170    1.895797   -1.321523
     25          6           0       -3.094396   -0.064178    0.600816
     26          6           0       -2.532972   -1.354560    1.198895
     27          6           0       -1.077718   -1.214412    1.646545
     28          1           0       -2.473771    0.235429   -0.255022
     29          1           0       -3.013548    0.741905    1.342866
     30          1           0       -2.615340   -2.157710    0.455403
     31          1           0       -3.155286   -1.652393    2.052498
     32          1           0       -0.982110   -0.432341    2.406693
     33          1           0       -0.439096   -0.940529    0.800524
     34          1           0       -0.696510   -2.148447    2.070950
 ---------------------------------------------------------------------

 SCF Done:  E(RHF) =  -669.534721652     A.U. after   15 cycles
 E2 =    -0.2092439517D+01 EUMP2 =    -0.67162716116941D+03

 The electronic state is 1-A.
 Alpha  occ. eigenvalues --  -20.60786 -20.60781 -15.85842 -11.31234 -11.27810
 Alpha  occ. eigenvalues --  -11.27800 -11.27551 -11.26831 -11.26819 -11.21961
 Alpha  occ. eigenvalues --  -11.21866 -11.21782 -11.21693 -11.21295 -11.21213
 Alpha  occ. eigenvalues --   -1.59861  -1.39414  -1.19419  -1.08809  -1.08758
 Alpha  occ. eigenvalues --   -1.04840  -1.03815  -0.96257  -0.95632  -0.87273
 Alpha  occ. eigenvalues --   -0.86221  -0.82472  -0.79880  -0.78581  -0.77510
 Alpha  occ. eigenvalues --   -0.72060  -0.71184  -0.70514  -0.65418  -0.65071
 Alpha  occ. eigenvalues --   -0.64829  -0.62185  -0.61226  -0.59629  -0.57881
 Alpha  occ. eigenvalues --   -0.55619  -0.55318  -0.53300  -0.52928  -0.52905
 Alpha  occ. eigenvalues --   -0.52551  -0.50166  -0.48822  -0.48812  -0.48186
 Alpha  occ. eigenvalues --   -0.46926  -0.46113  -0.46060  -0.44813  -0.44085
 Alpha  occ. eigenvalues --   -0.37377  -0.36345
 Alpha virt. eigenvalues --    0.05014   0.11183   0.16418   0.20457   0.22747
 Alpha virt. eigenvalues --    0.24035   0.25786   0.26901   0.27802   0.28164
 Alpha virt. eigenvalues --    0.28489   0.30694   0.31385   0.31664   0.32063

 Mulliken charges:
               1
     1  C   -0.169034
     2  C   -0.218335
     3  C   -0.170565
     4  C    0.159701
     5  C   -0.169721
     6  C   -0.220820
     7  H    0.226059
     8  H    0.223767
     9  H    0.275919
    10  H    0.276373
    11  H    0.224570
    12  N    0.488105
    13  O   -0.460178
    14  O   -0.460285
    15  C   -0.298245
    16  C   -0.299743
    17  C   -0.475864
    18  H    0.147592
    19  H    0.151200
    20  H    0.150590
    21  H    0.154197
    22  H    0.155950
    23  H    0.154367
    24  H    0.161548
    25  C   -0.296631
    26  C   -0.299769
    27  C   -0.482377
    28  H    0.141513
    29  H    0.153976
    30  H    0.146383
    31  H    0.153776
    32  H    0.158382
    33  H    0.159529
    34  H    0.158068
 Sum of Mulliken charges =  -0.00000

 Dipole moment (field-independent basis, Debye):
    X=             -1.6737    Y=             -4.6236    Z=             -1.5801  Tot=              5.1648
 Quadrupole moment (field-independent basis, Debye-Ang):
   XX=           -102.8342   YY=            -97.2492   ZZ=            -93.3143
   XY=            -17.3118   XZ=             -3.6167   YZ=              0.0079

 Normal termination of Gaussian 16 at Thu May  6 06:15:48 2021.
