 Gaussian 16, Revision A.03,
 Gaussian 16:  EM64L-G16RevA.03 25-Dec-2016

 -------------
 #p 6-31g* mp2
 -------------

 ------------------------------------------------------
 Input file generated by CHIRIPA (05-May-2021 14:57:22)
 ------------------------------------------------------
 Symbolic Z-matrix:
 Charge =  0 Multiplicity = 1

                         Standard orientation:
 ---------------------------------------------------------------------
 Center     Atomic      Atomic             Coordinates (Angstroms)
 Number     Number       Type             X           Y           Z
 ---------------------------------------------------------------------
      1          6           0       -1.483256    2.361884    0.290664
      2          6           0       -1.615683    1.744216   -0.957323
      3          6           0       -2.490996    0.667422   -1.127290
      4          6           0       -3.221754    0.232180   -0.022823
      5          6           0       -3.111851    0.826769    1.233232
      6          6           0       -2.230446    1.902000    1.380038
      7          1           0       -0.800926    3.197756    0.413702
      8          1           0       -1.036672    2.099246   -1.805112
      9          1           0       -2.612961    0.170884   -2.082273
     10          1           0       -3.702375    0.450490    2.059739
     11          1           0       -2.129639    2.379764    2.350411
     12          7           0       -4.151634   -0.906947   -0.190500
     13          8           0       -4.784172   -1.271511    0.798249
     14          8           0       -4.230327   -1.413660   -1.307498
     15          6           0        5.191965    0.938719   -0.109260
     16          6           0        3.970890    1.519743   -0.466901
     17          6           0        2.788047    0.776433   -0.412859
     18          6           0        2.863210   -0.551270    0.005286
     19          6           0        4.064457   -1.158479    0.368042
     20          6           0        5.234776   -0.396184    0.306338
     21          1           0        6.105962    1.523514   -0.154216
     22          1           0        3.934637    2.556235   -0.790036
     23          1           0        1.829196    1.201253   -0.684061
     24          1           0        4.068915   -2.193942    0.686187
     25          1           0        6.181660   -0.850034    0.584681
     26          7           0        1.617617   -1.348228    0.066554
     27          8           0        1.710583   -2.516048    0.438292
     28          8           0        0.571938   -0.789973   -0.258324
 ---------------------------------------------------------------------

 SCF Done:  E(RHF) =  -868.336523862     A.U. after   16 cycles
 E2 =    -0.2601435238D+01 EUMP2 =    -0.87093795910038D+03

 The electronic state is 1-A.
 Alpha  occ. eigenvalues --  -20.61073 -20.61053 -20.59857 -20.59846 -15.86116
 Alpha  occ. eigenvalues --  -15.84909 -11.31611 -11.30248 -11.28245 -11.28149
 Alpha  occ. eigenvalues --  -11.27931 -11.27263 -11.27182 -11.26876 -11.26841
 Alpha  occ. eigenvalues --  -11.26764 -11.25979 -11.25958  -1.60142  -1.58920
 Alpha  occ. eigenvalues --   -1.39694  -1.38479  -1.19788  -1.18445  -1.09155
 Alpha  occ. eigenvalues --   -1.07895  -1.05216  -1.03883  -0.95974  -0.94728
 Alpha  occ. eigenvalues --   -0.86603  -0.85327  -0.82810  -0.81575  -0.77846
 Alpha  occ. eigenvalues --   -0.76586  -0.72350  -0.71470  -0.71150  -0.70893
 Alpha  occ. eigenvalues --   -0.70215  -0.69694  -0.65441  -0.65221  -0.64167
 Alpha  occ. eigenvalues --   -0.63987  -0.62569  -0.61271  -0.55693  -0.54528
 Alpha  occ. eigenvalues --   -0.53529  -0.53314  -0.52123  -0.52055  -0.49110
 Alpha  occ. eigenvalues --   -0.49074  -0.47904  -0.47888  -0.45071  -0.43892
 Alpha  occ. eigenvalues --   -0.37761  -0.36827  -0.36446  -0.35378
 Alpha virt. eigenvalues --    0.04688   0.05993   0.10829   0.12078   0.16173
 Alpha virt. eigenvalues --    0.17449   0.20431   0.22015   0.26208   0.27338
 Alpha virt. eigenvalues --    0.28436   0.29091   0.30641   0.31389   0.32147

 Mulliken charges:
               1
     1  C   -0.171605
     2  C   -0.208855
     3  C   -0.155731
     4  C    0.163652
     5  C   -0.168690
     6  C   -0.217207
     7  H    0.215147
     8  H    0.213492
     9  H    0.274539
    10  H    0.273440
    11  H    0.218663
    12  N    0.488777
    13  O   -0.463033
    14  O   -0.460650
    15  C   -0.170670
    16  C   -0.218794
    17  C   -0.172032
    18  C    0.158373
    19  C   -0.170266
    20  C   -0.218333
    21  H    0.226483
    22  H    0.221082
    23  H    0.269396
    24  H    0.277610
    25  H    0.225141
    26  N    0.490764
    27  O   -0.457129
    28  O   -0.463563
 Sum of Mulliken charges =  -0.00000

 Dipole moment (field-independent basis, Debye):
    X=              7.7300    Y=              6.5082    Z=              0.3562  Tot=             10.1112
 Quadrupole moment (field-independent basis, Debye-Ang):
   XX=           -100.0501   YY=           -104.4847   ZZ=           -100.6515
   XY=             -8.8952   XZ=             -2.7459   YZ=             -0.9605

 Normal termination of Gaussian 16 at Fri May  7 03:18:36 2021.
