 Gaussian 16, Revision A.03,
 Gaussian 16:  EM64L-G16RevA.03 25-Dec-2016

 -------------
 #p 6-31g* mp2
 -------------

 ------------------------------------------------------
 Input file generated by CHIRIPA (05-May-2021 14:57:25)
 ------------------------------------------------------
 Symbolic Z-matrix:
 Charge =  0 Multiplicity = 1

                         Standard orientation:
 ---------------------------------------------------------------------
 Center     Atomic      Atomic             Coordinates (Angstroms)
 Number     Number       Type             X           Y           Z
 ---------------------------------------------------------------------
      1          6           0        6.437531   -0.192880    0.483999
      2          6           0        5.734900    1.015965    0.523030
      3          6           0        4.390380    1.068284    0.143458
      4          6           0        3.776960   -0.112638   -0.271787
      5          6           0        4.450076   -1.332362   -0.321567
      6          6           0        5.794011   -1.361126    0.062568
      7          1           0        7.481759   -0.224374    0.780632
      8          1           0        6.232101    1.924810    0.849890
      9          1           0        3.822662    1.990613    0.164063
     10          1           0        3.927412   -2.221805   -0.651916
     11          1           0        6.337193   -2.301349    0.031249
     12          7           0        2.353886   -0.069719   -0.676038
     13          8           0        1.836284   -1.124076   -1.038054
     14          8           0        1.783030    1.017466   -0.623220
     15          6           0       -1.775028    1.093151    0.850553
     16          6           0       -2.327895    0.050875    1.601896
     17          6           0       -3.566420   -0.496146    1.253514
     18          6           0       -4.227714    0.025604    0.142767
     19          6           0       -3.702995    1.063572   -0.625726
     20          6           0       -2.463130    1.595289   -0.258904
     21          1           0       -0.812390    1.512146    1.128346
     22          1           0       -1.795751   -0.341077    2.464012
     23          1           0       -4.017476   -1.303464    1.817611
     24          1           0       -4.257124    1.433376   -1.479893
     25          1           0       -2.036181    2.404691   -0.844249
     26          7           0       -5.539595   -0.545402   -0.235810
     27          8           0       -6.102218   -0.068085   -1.218795
     28          8           0       -5.980384   -1.459460    0.457616
 ---------------------------------------------------------------------

 SCF Done:  E(RHF) =  -868.339463290     A.U. after   16 cycles
 E2 =    -0.2598411633D+01 EUMP2 =    -0.87093787492285D+03

 The electronic state is 1-A.
 Alpha  occ. eigenvalues --  -20.61721 -20.61652 -20.59871 -20.59864 -15.86723
 Alpha  occ. eigenvalues --  -15.84919 -11.31894 -11.30050 -11.28458 -11.28413
 Alpha  occ. eigenvalues --  -11.28127 -11.27408 -11.27381 -11.26652 -11.26601
 Alpha  occ. eigenvalues --  -11.26186 -11.25575 -11.25477  -1.60752  -1.58952
 Alpha  occ. eigenvalues --   -1.40314  -1.38512  -1.20045  -1.18196  -1.09472
 Alpha  occ. eigenvalues --   -1.07601  -1.05416  -1.03585  -0.96341  -0.94482
 Alpha  occ. eigenvalues --   -0.86822  -0.84978  -0.83181  -0.81343  -0.78253
 Alpha  occ. eigenvalues --   -0.76447  -0.72954  -0.72070  -0.71145  -0.71143
 Alpha  occ. eigenvalues --   -0.70271  -0.69236  -0.65698  -0.65411  -0.63845
 Alpha  occ. eigenvalues --   -0.63588  -0.62766  -0.60961  -0.55914  -0.53999
 Alpha  occ. eigenvalues --   -0.53752  -0.53501  -0.51897  -0.51681  -0.49710
 Alpha  occ. eigenvalues --   -0.49669  -0.47910  -0.47879  -0.45758  -0.43972
 Alpha  occ. eigenvalues --   -0.38010  -0.37012  -0.36080  -0.35192
 Alpha virt. eigenvalues --    0.04243   0.06112   0.10645   0.12484   0.15769
 Alpha virt. eigenvalues --    0.17686   0.20820   0.22650   0.26744   0.27674
 Alpha virt. eigenvalues --    0.28419   0.29558   0.30441   0.31834   0.32330

 Mulliken charges:
               1
     1  C   -0.170038
     2  C   -0.218392
     3  C   -0.171458
     4  C    0.157477
     5  C   -0.170651
     6  C   -0.218459
     7  H    0.227927
     8  H    0.224919
     9  H    0.273361
    10  H    0.277263
    11  H    0.225901
    12  N    0.488686
    13  O   -0.454145
    14  O   -0.470371
    15  C   -0.161793
    16  C   -0.219118
    17  C   -0.171392
    18  C    0.157277
    19  C   -0.171951
    20  C   -0.216088
    21  H    0.233063
    22  H    0.218305
    23  H    0.271411
    24  H    0.272226
    25  H    0.224730
    26  N    0.488393
    27  O   -0.463150
    28  O   -0.463932
 Sum of Mulliken charges =  -0.00000

 Dipole moment (field-independent basis, Debye):
    X=             10.1830    Y=              1.8472    Z=              2.7000  Tot=             10.6956
 Quadrupole moment (field-independent basis, Debye-Ang):
   XX=           -107.7979   YY=            -98.2014   ZZ=           -103.4097
   XY=            -10.3924   XZ=             -0.4300   YZ=             -1.4299

 Normal termination of Gaussian 16 at Thu May  6 22:52:10 2021.
