 Gaussian 16, Revision A.03,
 Gaussian 16:  EM64L-G16RevA.03 25-Dec-2016

 -------------
 #p 6-31g* mp2
 -------------

 ------------------------------------------------------
 Input file generated by CHIRIPA (05-May-2021 14:57:23)
 ------------------------------------------------------
 Symbolic Z-matrix:
 Charge =  0 Multiplicity = 1

                         Standard orientation:
 ---------------------------------------------------------------------
 Center     Atomic      Atomic             Coordinates (Angstroms)
 Number     Number       Type             X           Y           Z
 ---------------------------------------------------------------------
      1          6           0        1.528328    1.012826   -0.391491
      2          6           0        2.540545    1.734647    0.249535
      3          6           0        3.795790    1.158299    0.465707
      4          6           0        4.005217   -0.147830    0.025868
      5          6           0        3.016930   -0.892716   -0.615788
      6          6           0        1.769327   -0.296244   -0.821349
      7          1           0        0.556192    1.468364   -0.555297
      8          1           0        2.356220    2.751460    0.584437
      9          1           0        4.597245    1.694415    0.959334
     10          1           0        3.230578   -1.904504   -0.938368
     11          1           0        0.985095   -0.859197   -1.319454
     12          7           0        5.330044   -0.768636    0.249103
     13          8           0        5.489302   -1.920875   -0.147909
     14          8           0        6.184099   -0.091229    0.816859
     15          6           0       -4.997076   -2.109558    0.517866
     16          6           0       -4.895816   -1.116416    1.497630
     17          6           0       -4.227582    0.081593    1.227843
     18          6           0       -3.669872    0.253858   -0.038086
     19          6           0       -3.753940   -0.716722   -1.035180
     20          6           0       -4.426821   -1.906899   -0.743188
     21          1           0       -5.517981   -3.037159    0.736067
     22          1           0       -5.337718   -1.271062    2.477861
     23          1           0       -4.134347    0.867138    1.967873
     24          1           0       -3.303246   -0.533668   -2.003056
     25          1           0       -4.503906   -2.676436   -1.506022
     26          7           0       -2.959982    1.517991   -0.335450
     27          8           0       -2.477237    1.645360   -1.458558
     28          8           0       -2.899758    2.357512    0.560214
 ---------------------------------------------------------------------

 SCF Done:  E(RHF) =  -868.340064456     A.U. after   16 cycles
 E2 =    -0.2598439940D+01 EUMP2 =    -0.87093850439619D+03

 The electronic state is 1-A.
 Alpha  occ. eigenvalues --  -20.61983 -20.61959 -20.60341 -20.60333 -15.86989
 Alpha  occ. eigenvalues --  -15.85391 -11.32073 -11.30605 -11.28622 -11.28580
 Alpha  occ. eigenvalues --  -11.28267 -11.27548 -11.27519 -11.27204 -11.27158
 Alpha  occ. eigenvalues --  -11.26692 -11.26129 -11.26048  -1.61046  -1.59420
 Alpha  occ. eigenvalues --   -1.40600  -1.38978  -1.20214  -1.18755  -1.09658
 Alpha  occ. eigenvalues --   -1.08139  -1.05569  -1.04150  -0.96537  -0.95002
 Alpha  occ. eigenvalues --   -0.86978  -0.85531  -0.83375  -0.81856  -0.78463
 Alpha  occ. eigenvalues --   -0.76959  -0.73198  -0.72371  -0.71610  -0.71305
 Alpha  occ. eigenvalues --   -0.70743  -0.69741  -0.65862  -0.65558  -0.64390
 Alpha  occ. eigenvalues --   -0.64136  -0.62918  -0.61513  -0.56064  -0.54502
 Alpha  occ. eigenvalues --   -0.53911  -0.53649  -0.52477  -0.52228  -0.49981
 Alpha  occ. eigenvalues --   -0.49941  -0.48375  -0.48353  -0.46055  -0.44418
 Alpha  occ. eigenvalues --   -0.38170  -0.37161  -0.36673  -0.35777
 Alpha virt. eigenvalues --    0.04008   0.05591   0.10494   0.11894   0.15565
 Alpha virt. eigenvalues --    0.17137   0.20673   0.22178   0.26604   0.27452
 Alpha virt. eigenvalues --    0.27975   0.29045   0.30431   0.31634   0.31867

 Mulliken charges:
               1
     1  C   -0.177546
     2  C   -0.220044
     3  C   -0.171591
     4  C    0.157240
     5  C   -0.171903
     6  C   -0.220104
     7  H    0.244576
     8  H    0.226458
     9  H    0.273870
    10  H    0.272137
    11  H    0.219663
    12  N    0.488284
    13  O   -0.463032
    14  O   -0.461709
    15  C   -0.169481
    16  C   -0.218221
    17  C   -0.170153
    18  C    0.157218
    19  C   -0.173063
    20  C   -0.218388
    21  H    0.229032
    22  H    0.226681
    23  H    0.276994
    24  H    0.274318
    25  H    0.225880
    26  N    0.486545
    27  O   -0.466099
    28  O   -0.457561
 Sum of Mulliken charges =  -0.00000

 Dipole moment (field-independent basis, Debye):
    X=             -7.6393    Y=             -2.2295    Z=              0.3559  Tot=              7.9660
 Quadrupole moment (field-independent basis, Debye-Ang):
   XX=           -124.3533   YY=           -104.1481   ZZ=           -100.4085
   XY=             27.3684   XZ=             -7.7019   YZ=              4.4999

 Normal termination of Gaussian 16 at Fri May  7 03:24:20 2021.
