 Gaussian 16, Revision A.03,
 Gaussian 16:  EM64L-G16RevA.03 25-Dec-2016

 -------------
 #p 6-31g* mp2
 -------------

 ------------------------------------------------------
 Input file generated by CHIRIPA (05-May-2021 14:55:23)
 ------------------------------------------------------
 Symbolic Z-matrix:
 Charge =  0 Multiplicity = 1

                         Standard orientation:
 ---------------------------------------------------------------------
 Center     Atomic      Atomic             Coordinates (Angstroms)
 Number     Number       Type             X           Y           Z
 ---------------------------------------------------------------------
      1          6           0       -1.206804   -2.091266    1.385155
      2          6           0       -2.025842   -1.156405    2.026820
      3          6           0       -2.587736   -0.095053    1.311031
      4          6           0       -2.308337    0.001471   -0.051287
      5          6           0       -1.496285   -0.913960   -0.719004
      6          6           0       -0.945101   -1.967278    0.016704
      7          1           0       -0.774471   -2.912629    1.948934
      8          1           0       -2.230810   -1.250198    3.089475
      9          1           0       -3.225316    0.642796    1.782718
     10          1           0       -1.310146   -0.794143   -1.779388
     11          1           0       -0.309393   -2.691824   -0.484249
     12          7           0       -2.897520    1.120825   -0.819604
     13          8           0       -2.636018    1.183641   -2.018899
     14          8           0       -3.609667    1.914163   -0.207968
     15          6           0        2.937121   -0.508109    0.048248
     16          6           0        2.483287   -1.419584   -1.092469
     17          6           0        2.703281   -2.901729   -0.788099
     18          1           0        4.001656   -0.688080    0.251521
     19          1           0        2.393763   -0.779948    0.963815
     20          1           0        3.026333   -1.145194   -2.005938
     21          1           0        1.419756   -1.237286   -1.293177
     22          1           0        2.148312   -3.197476    0.108085
     23          1           0        3.764018   -3.104861   -0.608725
     24          1           0        2.371942   -3.535241   -1.616796
     25          6           0        2.723635    0.976618   -0.241122
     26          6           0        3.177468    1.888093    0.899595
     27          6           0        2.957475    3.370239    0.595226
     28          1           0        3.266992    1.248457   -1.156687
     29          1           0        1.659099    1.156589   -0.444394
     30          1           0        4.241000    1.705795    1.100304
     31          1           0        2.634422    1.613703    1.813065
     32          1           0        1.896737    3.573370    0.415852
     33          1           0        3.512443    3.665985   -0.300958
     34          1           0        3.288814    4.003750    1.423922
 ---------------------------------------------------------------------

 SCF Done:  E(RHF) =  -669.534290669     A.U. after   15 cycles
 E2 =    -0.2094227815D+01 EUMP2 =    -0.67162851848475D+03

 The electronic state is 1-A.
 Alpha  occ. eigenvalues --  -20.60836 -20.60831 -15.85890 -11.31289 -11.27833
 Alpha  occ. eigenvalues --  -11.27828 -11.27571 -11.26866 -11.26809 -11.22193
 Alpha  occ. eigenvalues --  -11.21996 -11.21793 -11.21729 -11.21553 -11.21056
 Alpha  occ. eigenvalues --   -1.59912  -1.39464  -1.19455  -1.08871  -1.08761
 Alpha  occ. eigenvalues --   -1.04875  -1.03929  -0.96391  -0.95672  -0.87403
 Alpha  occ. eigenvalues --   -0.86249  -0.82518  -0.80019  -0.78556  -0.77550
 Alpha  occ. eigenvalues --   -0.72105  -0.71237  -0.70552  -0.65618  -0.65099
 Alpha  occ. eigenvalues --   -0.64771  -0.62356  -0.61154  -0.59789  -0.57975
 Alpha  occ. eigenvalues --   -0.55715  -0.55310  -0.53201  -0.53085  -0.52888
 Alpha  occ. eigenvalues --   -0.52797  -0.50337  -0.48864  -0.48860  -0.48314
 Alpha  occ. eigenvalues --   -0.47065  -0.46098  -0.45996  -0.44861  -0.44152
 Alpha  occ. eigenvalues --   -0.37424  -0.36378
 Alpha virt. eigenvalues --    0.04942   0.11091   0.16334   0.20083   0.22991
 Alpha virt. eigenvalues --    0.24082   0.25763   0.26129   0.26818   0.28368
 Alpha virt. eigenvalues --    0.28975   0.30662   0.31053   0.31734   0.32014

 Mulliken charges:
               1
     1  C   -0.174834
     2  C   -0.218202
     3  C   -0.171596
     4  C    0.157547
     5  C   -0.172209
     6  C   -0.218916
     7  H    0.226120
     8  H    0.223898
     9  H    0.275888
    10  H    0.276465
    11  H    0.233113
    12  N    0.487975
    13  O   -0.459956
    14  O   -0.460105
    15  C   -0.297184
    16  C   -0.303882
    17  C   -0.480859
    18  H    0.150293
    19  H    0.147931
    20  H    0.156418
    21  H    0.149488
    22  H    0.146080
    23  H    0.162314
    24  H    0.159075
    25  C   -0.299631
    26  C   -0.299897
    27  C   -0.476417
    28  H    0.150996
    29  H    0.152972
    30  H    0.151146
    31  H    0.150761
    32  H    0.158916
    33  H    0.156107
    34  H    0.160186
 Sum of Mulliken charges =  -0.00000

 Dipole moment (field-independent basis, Debye):
    X=              2.0909    Y=             -3.8538    Z=              2.7045  Tot=              5.1515
 Quadrupole moment (field-independent basis, Debye-Ang):
   XX=           -102.9345   YY=            -96.0823   ZZ=            -91.6398
   XY=              8.5690   XZ=             -9.0739   YZ=              1.7663

 Normal termination of Gaussian 16 at Thu May  6 20:49:23 2021.
