 Gaussian 16, Revision A.03,
 Gaussian 16:  EM64L-G16RevA.03 25-Dec-2016

 -------------
 #p 6-31g* mp2
 -------------

 ------------------------------------------------------
 Input file generated by CHIRIPA (05-May-2021 14:57:23)
 ------------------------------------------------------
 Symbolic Z-matrix:
 Charge =  0 Multiplicity = 1

                         Standard orientation:
 ---------------------------------------------------------------------
 Center     Atomic      Atomic             Coordinates (Angstroms)
 Number     Number       Type             X           Y           Z
 ---------------------------------------------------------------------
      1          6           0       -0.346490   -1.869390    1.203551
      2          6           0       -0.741421   -0.689142    1.841960
      3          6           0       -1.820073    0.054937    1.354718
      4          6           0       -2.484279   -0.412586    0.221782
      5          6           0       -2.114744   -1.584556   -0.436412
      6          6           0       -1.033201   -2.312549    0.068404
      7          1           0        0.492555   -2.441161    1.588879
      8          1           0       -0.209960   -0.342575    2.723711
      9          1           0       -2.146943    0.972123    1.829423
     10          1           0       -2.664003   -1.904699   -1.313476
     11          1           0       -0.728707   -3.228780   -0.429439
     12          7           0       -3.627729    0.366623   -0.303342
     13          8           0       -4.196455   -0.066653   -1.303072
     14          8           0       -3.933588    1.395888    0.294739
     15          6           0        3.772646   -1.503786   -0.369413
     16          6           0        4.120347   -0.412938    0.434124
     17          6           0        3.309568    0.725241    0.475764
     18          6           0        2.153051    0.738692   -0.302424
     19          6           0        1.779699   -0.332222   -1.113005
     20          6           0        2.605489   -1.460025   -1.139057
     21          1           0        4.408310   -2.383921   -0.395706
     22          1           0        5.026190   -0.444135    1.032891
     23          1           0        3.554986    1.583793    1.089014
     24          1           0        0.870522   -0.271739   -1.698801
     25          1           0        2.332969   -2.305719   -1.764019
     26          7           0        1.286768    1.938139   -0.266593
     27          8           0        0.273100    1.925181   -0.961535
     28          8           0        1.637849    2.868511    0.455756
 ---------------------------------------------------------------------

 SCF Done:  E(RHF) =  -868.336161329     A.U. after   16 cycles
 E2 =    -0.2605115246D+01 EUMP2 =    -0.87094127657491D+03

 The electronic state is 1-A.
 Alpha  occ. eigenvalues --  -20.61137 -20.61110 -20.60295 -20.60253 -15.86169
 Alpha  occ. eigenvalues --  -15.85345 -11.31615 -11.30909 -11.28286 -11.28210
 Alpha  occ. eigenvalues --  -11.28079 -11.27651 -11.27513 -11.27407 -11.27295
 Alpha  occ. eigenvalues --  -11.27285 -11.26699 -11.26555  -1.60193  -1.59339
 Alpha  occ. eigenvalues --   -1.39745  -1.38891  -1.19870  -1.19160  -1.09240
 Alpha  occ. eigenvalues --   -1.08518  -1.05287  -1.04624  -0.96047  -0.95306
 Alpha  occ. eigenvalues --   -0.86674  -0.86001  -0.82878  -0.82152  -0.77899
 Alpha  occ. eigenvalues --   -0.77142  -0.72394  -0.71577  -0.71539  -0.70979
 Alpha  occ. eigenvalues --   -0.70632  -0.70282  -0.65513  -0.65296  -0.64822
 Alpha  occ. eigenvalues --   -0.64639  -0.62629  -0.61957  -0.55804  -0.55143
 Alpha  occ. eigenvalues --   -0.53956  -0.53392  -0.52717  -0.52589  -0.49161
 Alpha  occ. eigenvalues --   -0.49135  -0.48349  -0.48302  -0.45122  -0.44258
 Alpha  occ. eigenvalues --   -0.38101  -0.37653  -0.36370  -0.35953
 Alpha virt. eigenvalues --    0.04516   0.05481   0.10719   0.11416   0.16089
 Alpha virt. eigenvalues --    0.16808   0.20586   0.21660   0.26214   0.27729
 Alpha virt. eigenvalues --    0.27814   0.28411   0.30083   0.31242   0.32113

 Mulliken charges:
               1
     1  C   -0.164817
     2  C   -0.227748
     3  C   -0.161533
     4  C    0.166889
     5  C   -0.174390
     6  C   -0.226717
     7  H    0.222762
     8  H    0.223998
     9  H    0.281516
    10  H    0.274502
    11  H    0.216299
    12  N    0.489594
    13  O   -0.463777
    14  O   -0.455248
    15  C   -0.173591
    16  C   -0.221125
    17  C   -0.173674
    18  C    0.158076
    19  C   -0.161107
    20  C   -0.225098
    21  H    0.225537
    22  H    0.223989
    23  H    0.276206
    24  H    0.278707
    25  H    0.220690
    26  N    0.487488
    27  O   -0.456086
    28  O   -0.461342
 Sum of Mulliken charges =  -0.00000

 Dipole moment (field-independent basis, Debye):
    X=              6.8944    Y=             -6.6391    Z=              1.7419  Tot=              9.7286
 Quadrupole moment (field-independent basis, Debye-Ang):
   XX=           -110.8884   YY=           -107.0463   ZZ=            -99.9598
   XY=             -0.0729   XZ=             -2.2570   YZ=              4.2577

 Normal termination of Gaussian 16 at Thu May  6 22:43:46 2021.
