 Gaussian 16, Revision A.03,
 Gaussian 16:  EM64L-G16RevA.03 25-Dec-2016

 -------------
 #p 6-31g* mp2
 -------------

 ------------------------------------------------------
 Input file generated by CHIRIPA (05-May-2021 14:55:25)
 ------------------------------------------------------
 Symbolic Z-matrix:
 Charge =  0 Multiplicity = 1

                         Standard orientation:
 ---------------------------------------------------------------------
 Center     Atomic      Atomic             Coordinates (Angstroms)
 Number     Number       Type             X           Y           Z
 ---------------------------------------------------------------------
      1          6           0       -0.882751   -1.921567    0.833338
      2          6           0       -2.015192   -2.489691    0.240604
      3          6           0       -3.079643   -1.683628   -0.173829
      4          6           0       -2.977755   -0.307008    0.020661
      5          6           0       -1.862816    0.288882    0.608125
      6          6           0       -0.810305   -0.536536    1.014886
      7          1           0       -0.060498   -2.555254    1.152299
      8          1           0       -2.074203   -3.565018    0.098353
      9          1           0       -3.968111   -2.097108   -0.635430
     10          1           0       -1.832943    1.364058    0.736667
     11          1           0        0.067930   -0.092562    1.474925
     12          7           0       -4.098321    0.556580   -0.414020
     13          8           0       -3.984116    1.766651   -0.231478
     14          8           0       -5.069609    0.007037   -0.929035
     15          6           0        2.845059    0.797028   -0.083572
     16          6           0        2.678030    2.293261    0.183583
     17          6           0        1.211845    2.721849    0.249969
     18          1           0        2.343730    0.541297   -1.027084
     19          1           0        2.332062    0.231108    0.706342
     20          1           0        3.192363    2.856185   -0.605844
     21          1           0        3.179979    2.545495    1.126473
     22          1           0        0.689689    2.186090    1.049290
     23          1           0        0.702143    2.498545   -0.692868
     24          1           0        1.115587    3.795073    0.441762
     25          6           0        4.305207    0.353276   -0.152720
     26          6           0        4.472236   -1.142957   -0.419874
     27          6           0        5.938421   -1.571546   -0.486260
     28          1           0        4.818203    0.919195   -0.942634
     29          1           0        4.806536    0.609007    0.790792
     30          1           0        3.970287   -1.395191   -1.362764
     31          1           0        3.957902   -1.705880    0.369552
     32          1           0        6.448122   -1.348241    0.456576
     33          1           0        6.460576   -1.035786   -1.285582
     34          1           0        6.034678   -2.644769   -0.678054
 ---------------------------------------------------------------------

 SCF Done:  E(RHF) =  -669.534401373     A.U. after   15 cycles
 E2 =    -0.2092799852D+01 EUMP2 =    -0.67162720122526D+03

 The electronic state is 1-A.
 Alpha  occ. eigenvalues --  -20.60690 -20.60684 -15.85741 -11.31086 -11.27662
 Alpha  occ. eigenvalues --  -11.27616 -11.27396 -11.26679 -11.26612 -11.22368
 Alpha  occ. eigenvalues --  -11.22321 -11.22255 -11.22085 -11.21916 -11.21655
 Alpha  occ. eigenvalues --   -1.59765  -1.39319  -1.19259  -1.09210  -1.08658
 Alpha  occ. eigenvalues --   -1.04675  -1.04263  -0.96730  -0.95495  -0.87747
 Alpha  occ. eigenvalues --   -0.86064  -0.82347  -0.80346  -0.79050  -0.77364
 Alpha  occ. eigenvalues --   -0.71961  -0.71089  -0.70371  -0.65896  -0.64916
 Alpha  occ. eigenvalues --   -0.64660  -0.62164  -0.61554  -0.60061  -0.58330
 Alpha  occ. eigenvalues --   -0.56030  -0.55168  -0.53401  -0.53190  -0.52985
 Alpha  occ. eigenvalues --   -0.52741  -0.50682  -0.48751  -0.48716  -0.48608
 Alpha  occ. eigenvalues --   -0.47357  -0.46537  -0.46470  -0.44729  -0.44526
 Alpha  occ. eigenvalues --   -0.37240  -0.36236
 Alpha virt. eigenvalues --    0.05144   0.11332   0.16604   0.19708   0.22543
 Alpha virt. eigenvalues --    0.23593   0.25218   0.25663   0.26499   0.28762
 Alpha virt. eigenvalues --    0.29379   0.29559   0.31142   0.31418   0.31441

 Mulliken charges:
               1
     1  C   -0.172114
     2  C   -0.218827
     3  C   -0.171215
     4  C    0.158390
     5  C   -0.173872
     6  C   -0.219647
     7  H    0.225021
     8  H    0.222942
     9  H    0.275134
    10  H    0.278130
    11  H    0.228064
    12  N    0.488189
    13  O   -0.460461
    14  O   -0.460943
    15  C   -0.299744
    16  C   -0.301360
    17  C   -0.479021
    18  H    0.154711
    19  H    0.138659
    20  H    0.156997
    21  H    0.153299
    22  H    0.143112
    23  H    0.162340
    24  H    0.167705
    25  C   -0.298540
    26  C   -0.299277
    27  C   -0.476047
    28  H    0.153142
    29  H    0.150697
    30  H    0.153571
    31  H    0.146333
    32  H    0.156077
    33  H    0.157492
    34  H    0.161062
 Sum of Mulliken charges =  -0.00000

 Dipole moment (field-independent basis, Debye):
    X=              4.1505    Y=             -2.9202    Z=              1.4027  Tot=              5.2652
 Quadrupole moment (field-independent basis, Debye-Ang):
   XX=           -118.0737   YY=            -89.6322   ZZ=            -93.9758
   XY=             10.8798   XZ=             -3.7941   YZ=              0.6104

 Normal termination of Gaussian 16 at Thu May  6 11:06:45 2021.
