 Gaussian 16, Revision A.03,
 Gaussian 16:  EM64L-G16RevA.03 25-Dec-2016

 -------------
 #p 6-31g* mp2
 -------------

 ------------------------------------------------------
 Input file generated by CHIRIPA (05-May-2021 14:51:11)
 ------------------------------------------------------
 Symbolic Z-matrix:
 Charge =  0 Multiplicity = 1

                         Standard orientation:
 ---------------------------------------------------------------------
 Center     Atomic      Atomic             Coordinates (Angstroms)
 Number     Number       Type             X           Y           Z
 ---------------------------------------------------------------------
      1          6           0        4.026772   -0.685085   -0.135650
      2          6           0        5.391911   -1.344900    0.061900
      3          6           0        5.326697   -2.870865   -0.008613
      4          1           0        3.331666   -1.059496    0.628280
      5          1           0        3.616757   -0.990943   -1.108138
      6          1           0        5.799847   -1.036790    1.033122
      7          1           0        6.083900   -0.968730   -0.702471
      8          1           0        4.943659   -3.195539   -0.981479
      9          1           0        4.657992   -3.263985    0.763975
     10          1           0        6.313464   -3.321940    0.135197
     11          6           0        4.075665    0.840280   -0.067832
     12          6           0        2.710527    1.500095   -0.265381
     13          6           0        2.775741    3.026060   -0.194869
     14          1           0        4.485681    1.146138    0.904656
     15          1           0        4.770771    1.214692   -0.831761
     16          1           0        2.018537    1.123925    0.498989
     17          1           0        2.302590    1.191985   -1.236603
     18          1           0        3.444446    3.419181   -0.967456
     19          1           0        3.158778    3.350734    0.777998
     20          1           0        1.788973    3.477136   -0.338678
     21          6           0       -3.380226    0.172463   -0.164098
     22          6           0       -2.324479    0.352000    0.927301
     23          6           0       -0.987553    0.852749    0.379875
     24          1           0       -3.003460   -0.532968   -0.917331
     25          1           0       -3.530211    1.130647   -0.680606
     26          1           0       -2.177532   -0.605904    1.442511
     27          1           0       -2.703880    1.056938    1.678122
     28          1           0       -1.112810    1.820218   -0.117030
     29          1           0       -0.583472    0.147928   -0.353981
     30          1           0       -0.247461    0.974068    1.176998
     31          6           0       -4.722212   -0.327657    0.367580
     32          6           0       -5.777958   -0.507195   -0.723819
     33          6           0       -7.114884   -1.007945   -0.176394
     34          1           0       -4.572226   -1.285842    0.884087
     35          1           0       -5.098977    0.377773    1.120813
     36          1           0       -5.398558   -1.212133   -1.474641
     37          1           0       -5.924905    0.450709   -1.239029
     38          1           0       -7.518966   -0.303123    0.557463
     39          1           0       -6.989627   -1.975413    0.320512
     40          1           0       -7.854977   -1.129264   -0.973517
 ---------------------------------------------------------------------

 SCF Done:  E(RHF) =  -470.732810256     A.U. after   11 cycles
 E2 =    -0.1582776496D+01 EUMP2 =    -0.47231558675236D+03

 The electronic state is 1-A.
 Alpha  occ. eigenvalues --  -11.21602 -11.21589 -11.21570 -11.21436 -11.21405
 Alpha  occ. eigenvalues --  -11.21347 -11.21346 -11.21275 -11.21072 -11.21052
 Alpha  occ. eigenvalues --  -11.21050 -11.20982  -1.08432  -1.08361  -1.03547
 Alpha  occ. eigenvalues --   -1.03444  -0.96000  -0.95900  -0.87018  -0.86921
 Alpha  occ. eigenvalues --   -0.79697  -0.79433  -0.78264  -0.78143  -0.65060
 Alpha  occ. eigenvalues --   -0.65004  -0.60928  -0.60890  -0.59455  -0.59187
 Alpha  occ. eigenvalues --   -0.57594  -0.57521  -0.55266  -0.55213  -0.52741
 Alpha  occ. eigenvalues --   -0.52582  -0.52401  -0.52336  -0.49929  -0.49854
 Alpha  occ. eigenvalues --   -0.47919  -0.47827  -0.46630  -0.46545  -0.45827
 Alpha  occ. eigenvalues --   -0.45722  -0.45653  -0.45647  -0.43767  -0.43648
 Alpha virt. eigenvalues --    0.22033   0.23043   0.23606   0.24833   0.26338
 Alpha virt. eigenvalues --    0.26477   0.26657   0.27520   0.27838   0.29037
 Alpha virt. eigenvalues --    0.30082   0.30809   0.31277   0.31964   0.32402

 Mulliken charges:
               1
     1  C   -0.298117
     2  C   -0.299525
     3  C   -0.475654
     4  H    0.149295
     5  H    0.149186
     6  H    0.151823
     7  H    0.151923
     8  H    0.155043
     9  H    0.155017
    10  H    0.160149
    11  C   -0.297947
    12  C   -0.303466
    13  C   -0.476467
    14  H    0.148841
    15  H    0.149065
    16  H    0.158810
    17  H    0.151515
    18  H    0.154651
    19  H    0.154324
    20  H    0.160826
    21  C   -0.298637
    22  C   -0.300372
    23  C   -0.475983
    24  H    0.149662
    25  H    0.149439
    26  H    0.151734
    27  H    0.151694
    28  H    0.155047
    29  H    0.156747
    30  H    0.161344
    31  C   -0.298244
    32  C   -0.299614
    33  C   -0.475697
    34  H    0.149507
    35  H    0.149628
    36  H    0.151938
    37  H    0.151911
    38  H    0.155171
    39  H    0.155181
    40  H    0.160253
 Sum of Mulliken charges =  -0.00000

 Dipole moment (field-independent basis, Debye):
    X=             -0.0317    Y=             -0.0017    Z=              0.0011  Tot=              0.0318
 Quadrupole moment (field-independent basis, Debye-Ang):
   XX=            -86.0145   YY=            -85.2721   ZZ=            -83.8108
   XY=             -0.5721   XZ=              0.0613   YZ=              0.1634

 Normal termination of Gaussian 16 at Thu May  6 00:41:54 2021.
