 Gaussian 16, Revision A.03,
 Gaussian 16:  EM64L-G16RevA.03 25-Dec-2016

 -------------
 #p 6-31g* mp2
 -------------

 ------------------------------------------------------
 Input file generated by CHIRIPA (05-May-2021 14:51:08)
 ------------------------------------------------------
 Symbolic Z-matrix:
 Charge =  0 Multiplicity = 1

                         Standard orientation:
 ---------------------------------------------------------------------
 Center     Atomic      Atomic             Coordinates (Angstroms)
 Number     Number       Type             X           Y           Z
 ---------------------------------------------------------------------
      1          6           0       -2.386778   -0.371964    0.726449
      2          6           0       -1.752838   -1.711360    1.103441
      3          6           0       -0.533985   -1.553334    2.012956
      4          1           0       -1.634703    0.255166    0.228416
      5          1           0       -2.678636    0.158627    1.643339
      6          1           0       -1.463520   -2.239876    0.186063
      7          1           0       -2.506563   -2.335448    1.600463
      8          1           0       -0.810979   -1.048419    2.944051
      9          1           0        0.237990   -0.952304    1.521614
     10          1           0       -0.096494   -2.523056    2.270058
     11          6           0       -3.606402   -0.513464   -0.182519
     12          6           0       -4.240341    0.825932   -0.559510
     13          6           0       -5.459194    0.667906   -1.469026
     14          1           0       -3.314543   -1.044055   -1.099408
     15          1           0       -4.358477   -1.140594    0.315514
     16          1           0       -3.486617    1.450020   -1.056532
     17          1           0       -4.529660    1.354448    0.357868
     18          1           0       -6.231170    0.066876   -0.977684
     19          1           0       -5.182201    0.162991   -2.400120
     20          1           0       -5.896686    1.637628   -1.726127
     21          6           0        2.814505   -0.284959   -0.416082
     22          6           0        4.011854   -1.137697   -0.837007
     23          6           0        3.631609   -2.590990   -1.121871
     24          1           0        2.353889   -0.726956    0.478019
     25          1           0        2.053606   -0.317354   -1.208154
     26          1           0        4.770851   -1.102585   -0.044980
     27          1           0        4.469789   -0.693510   -1.730098
     28          1           0        2.891827   -2.644893   -1.927115
     29          1           0        3.194599   -3.056292   -0.232423
     30          1           0        4.502456   -3.182571   -1.421066
     31          6           0        3.178674    1.170387   -0.127848
     32          6           0        1.981326    2.023125    0.293077
     33          6           0        2.361571    3.476418    0.577940
     34          1           0        3.939573    1.202782    0.664224
     35          1           0        3.639290    1.612384   -1.021949
     36          1           0        1.523391    1.578939    1.186167
     37          1           0        1.222329    1.988013   -0.498950
     38          1           0        2.798580    3.941720   -0.311507
     39          1           0        3.101353    3.530321    1.383185
     40          1           0        1.490724    4.067998    0.877136
 ---------------------------------------------------------------------

 SCF Done:  E(RHF) =  -470.733264490     A.U. after   11 cycles
 E2 =    -0.1583249397D+01 EUMP2 =    -0.47231651388756D+03

 The electronic state is 1-A.
 Alpha  occ. eigenvalues --  -11.21643 -11.21622 -11.21588 -11.21566 -11.21432
 Alpha  occ. eigenvalues --  -11.21375 -11.21372 -11.21313 -11.21094 -11.21083
 Alpha  occ. eigenvalues --  -11.21062 -11.21017  -1.08470  -1.08398  -1.03555
 Alpha  occ. eigenvalues --   -1.03505  -0.96013  -0.95949  -0.87027  -0.86970
 Alpha  occ. eigenvalues --   -0.79620  -0.79580  -0.78330  -0.78168  -0.65135
 Alpha  occ. eigenvalues --   -0.65003  -0.60956  -0.60902  -0.59384  -0.59310
 Alpha  occ. eigenvalues --   -0.57656  -0.57535  -0.55376  -0.55174  -0.52702
 Alpha  occ. eigenvalues --   -0.52655  -0.52466  -0.52346  -0.50017  -0.49858
 Alpha  occ. eigenvalues --   -0.47956  -0.47903  -0.46728  -0.46642  -0.45957
 Alpha  occ. eigenvalues --   -0.45746  -0.45701  -0.45354  -0.43809  -0.43760
 Alpha virt. eigenvalues --    0.21086   0.23213   0.23902   0.24053   0.25604
 Alpha virt. eigenvalues --    0.25856   0.27191   0.27845   0.28208   0.29496
 Alpha virt. eigenvalues --    0.31181   0.31373   0.31710   0.31797   0.31929

 Mulliken charges:
               1
     1  C   -0.299635
     2  C   -0.298814
     3  C   -0.485002
     4  H    0.151382
     5  H    0.149227
     6  H    0.152139
     7  H    0.151692
     8  H    0.154634
     9  H    0.164570
    10  H    0.159325
    11  C   -0.298301
    12  C   -0.299569
    13  C   -0.475680
    14  H    0.149371
    15  H    0.149591
    16  H    0.151777
    17  H    0.151916
    18  H    0.155186
    19  H    0.155093
    20  H    0.160176
    21  C   -0.305304
    22  C   -0.299000
    23  C   -0.475844
    24  H    0.157012
    25  H    0.148519
    26  H    0.152082
    27  H    0.151953
    28  H    0.154884
    29  H    0.155666
    30  H    0.160330
    31  C   -0.297900
    32  C   -0.303051
    33  C   -0.475720
    34  H    0.149717
    35  H    0.149747
    36  H    0.154996
    37  H    0.151522
    38  H    0.155258
    39  H    0.155426
    40  H    0.160633
 Sum of Mulliken charges =  -0.00000

 Dipole moment (field-independent basis, Debye):
    X=              0.0322    Y=              0.0120    Z=              0.0028  Tot=              0.0345
 Quadrupole moment (field-independent basis, Debye-Ang):
   XX=            -85.1955   YY=            -85.9091   ZZ=            -83.6738
   XY=             -0.0976   XZ=             -0.9015   YZ=             -0.4668

 Normal termination of Gaussian 16 at Thu May  6 10:01:20 2021.
