 Gaussian 16, Revision A.03,
 Gaussian 16:  EM64L-G16RevA.03 25-Dec-2016

 -------------
 #p 6-31g* mp2
 -------------

 ------------------------------------------------------
 Input file generated by CHIRIPA (05-May-2021 14:57:23)
 ------------------------------------------------------
 Symbolic Z-matrix:
 Charge =  0 Multiplicity = 1

                         Standard orientation:
 ---------------------------------------------------------------------
 Center     Atomic      Atomic             Coordinates (Angstroms)
 Number     Number       Type             X           Y           Z
 ---------------------------------------------------------------------
      1          6           0        0.994413   -0.596262    1.606176
      2          6           0        1.253199    0.739849    1.283133
      3          6           0        2.429412    1.093920    0.615522
      4          6           0        3.328948    0.081693    0.284581
      5          6           0        3.099605   -1.258364    0.592705
      6          6           0        1.916816   -1.589354    1.260540
      7          1           0        0.078148   -0.862348    2.124879
      8          1           0        0.538651    1.513204    1.550317
      9          1           0        2.654896    2.120479    0.353318
     10          1           0        3.830884   -2.007076    0.313280
     11          1           0        1.718474   -2.627815    1.510149
     12          7           0        4.577633    0.444314   -0.422308
     13          8           0        5.354099   -0.466207   -0.702822
     14          8           0        4.756242    1.632192   -0.682467
     15          6           0       -5.289193    0.739878    0.644779
     16          6           0       -4.313213    1.678379    0.293782
     17          6           0       -3.109324    1.267667   -0.286318
     18          6           0       -2.913745   -0.095577   -0.502195
     19          6           0       -3.866828   -1.054832   -0.163445
     20          6           0       -5.063284   -0.621333    0.415450
     21          1           0       -6.221516    1.067779    1.094947
     22          1           0       -4.485928    2.736163    0.470716
     23          1           0       -2.336714    1.972868   -0.567717
     24          1           0       -3.665908   -2.102427   -0.352111
     25          1           0       -5.819457   -1.352424    0.687025
     26          7           0       -1.643176   -0.542441   -1.115683
     27          8           0       -1.495141   -1.749251   -1.295494
     28          8           0       -0.819396    0.322578   -1.405107
 ---------------------------------------------------------------------

 SCF Done:  E(RHF) =  -868.337215624     A.U. after   16 cycles
 E2 =    -0.2601459539D+01 EUMP2 =    -0.87093867516223D+03

 The electronic state is 1-A.
 Alpha  occ. eigenvalues --  -20.61432 -20.61382 -20.59924 -20.59918 -15.86430
 Alpha  occ. eigenvalues --  -15.84971 -11.31906 -11.30204 -11.28476 -11.28452
 Alpha  occ. eigenvalues --  -11.28173 -11.27477 -11.27460 -11.26757 -11.26735
 Alpha  occ. eigenvalues --  -11.26551 -11.25858 -11.25790  -1.60469  -1.58997
 Alpha  occ. eigenvalues --   -1.40025  -1.38556  -1.20070  -1.18353  -1.09438
 Alpha  occ. eigenvalues --   -1.07811  -1.05474  -1.03759  -0.96260  -0.94672
 Alpha  occ. eigenvalues --   -0.86863  -0.85199  -0.83087  -0.81519  -0.78136
 Alpha  occ. eigenvalues --   -0.76562  -0.72662  -0.71831  -0.71206  -0.71148
 Alpha  occ. eigenvalues --   -0.70304  -0.69560  -0.65708  -0.65456  -0.64056
 Alpha  occ. eigenvalues --   -0.63836  -0.62815  -0.61150  -0.55940  -0.54370
 Alpha  occ. eigenvalues --   -0.53816  -0.53551  -0.52049  -0.51918  -0.49423
 Alpha  occ. eigenvalues --   -0.49406  -0.47960  -0.47951  -0.45408  -0.43992
 Alpha  occ. eigenvalues --   -0.38049  -0.37092  -0.36314  -0.35249
 Alpha virt. eigenvalues --    0.04365   0.05983   0.10537   0.12349   0.15866
 Alpha virt. eigenvalues --    0.17509   0.20707   0.22097   0.26506   0.27365
 Alpha virt. eigenvalues --    0.28278   0.28941   0.30391   0.31169   0.32433

 Mulliken charges:
               1
     1  C   -0.173321
     2  C   -0.203407
     3  C   -0.166227
     4  C    0.160745
     5  C   -0.169746
     6  C   -0.210245
     7  H    0.217894
     8  H    0.213673
     9  H    0.271700
    10  H    0.273280
    11  H    0.221341
    12  N    0.488275
    13  O   -0.462297
    14  O   -0.462941
    15  C   -0.171019
    16  C   -0.218343
    17  C   -0.175011
    18  C    0.156069
    19  C   -0.173003
    20  C   -0.218281
    21  H    0.227849
    22  H    0.225219
    23  H    0.274708
    24  H    0.276147
    25  H    0.225426
    26  N    0.487237
    27  O   -0.460594
    28  O   -0.455132
 Sum of Mulliken charges =  -0.00000

 Dipole moment (field-independent basis, Debye):
    X=             -9.0536    Y=              0.2633    Z=              4.5099  Tot=             10.1181
 Quadrupole moment (field-independent basis, Debye-Ang):
   XX=           -108.3277   YY=            -96.2911   ZZ=           -107.4551
   XY=             -8.8581   XZ=              2.5908   YZ=             -1.3981

 Normal termination of Gaussian 16 at Thu May  6 17:57:09 2021.
