 Gaussian 16, Revision A.03,
 Gaussian 16:  EM64L-G16RevA.03 25-Dec-2016

 -------------
 #p 6-31g* mp2
 -------------

 ------------------------------------------------------
 Input file generated by CHIRIPA (05-May-2021 14:57:22)
 ------------------------------------------------------
 Symbolic Z-matrix:
 Charge =  0 Multiplicity = 1

                         Standard orientation:
 ---------------------------------------------------------------------
 Center     Atomic      Atomic             Coordinates (Angstroms)
 Number     Number       Type             X           Y           Z
 ---------------------------------------------------------------------
      1          6           0       -2.057530   -0.440241    0.870165
      2          6           0       -3.036404    0.020920    1.756538
      3          6           0       -4.331269    0.293341    1.305253
      4          6           0       -4.613886    0.092547   -0.044969
      5          6           0       -3.660361   -0.365879   -0.952673
      6          6           0       -2.372079   -0.631831   -0.479233
      7          1           0       -1.054204   -0.649351    1.229339
      8          1           0       -2.794968    0.170628    2.805033
      9          1           0       -5.108273    0.651274    1.969758
     10          1           0       -3.931029   -0.505460   -1.992227
     11          1           0       -1.613884   -0.989879   -1.169876
     12          7           0       -5.981218    0.377523   -0.534452
     13          8           0       -6.204882    0.192472   -1.728758
     14          8           0       -6.803378    0.780541    0.285466
     15          6           0        6.229234    1.658575   -0.306997
     16          6           0        4.929173    2.074965   -0.002064
     17          6           0        3.901447    1.139529    0.150532
     18          6           0        4.210581   -0.210332   -0.009475
     19          6           0        5.495847   -0.656471   -0.313351
     20          6           0        6.507931    0.296587   -0.461395
     21          1           0        7.021520    2.392088   -0.423769
     22          1           0        4.709825    3.132044    0.118414
     23          1           0        2.886147    1.434285    0.386544
     24          1           0        5.683843   -1.717160   -0.427431
     25          1           0        7.516647   -0.029680   -0.698216
     26          7           0        3.130854   -1.209963    0.149661
     27          8           0        3.429088   -2.393332    0.003613
     28          8           0        2.006774   -0.791177    0.417427
 ---------------------------------------------------------------------

 SCF Done:  E(RHF) =  -868.340389621     A.U. after   16 cycles
 E2 =    -0.2597978107D+01 EUMP2 =    -0.87093836772820D+03

 The electronic state is 1-A.
 Alpha  occ. eigenvalues --  -20.61862 -20.61800 -20.60151 -20.60145 -15.86873
 Alpha  occ. eigenvalues --  -15.85199 -11.31948 -11.30373 -11.28496 -11.28464
 Alpha  occ. eigenvalues --  -11.28158 -11.27429 -11.27413 -11.26961 -11.26915
 Alpha  occ. eigenvalues --  -11.26417 -11.25873 -11.25762  -1.60895  -1.59232
 Alpha  occ. eigenvalues --   -1.40459  -1.38791  -1.20090  -1.18513  -1.09536
 Alpha  occ. eigenvalues --   -1.07898  -1.05450  -1.03898  -0.96421  -0.94770
 Alpha  occ. eigenvalues --   -0.86861  -0.85274  -0.83269  -0.81625  -0.78346
 Alpha  occ. eigenvalues --   -0.76738  -0.73118  -0.72196  -0.71419  -0.71192
 Alpha  occ. eigenvalues --   -0.70555  -0.69488  -0.65747  -0.65446  -0.64140
 Alpha  occ. eigenvalues --   -0.63867  -0.62802  -0.61256  -0.55953  -0.54223
 Alpha  occ. eigenvalues --   -0.53794  -0.53536  -0.52235  -0.51963  -0.49873
 Alpha  occ. eigenvalues --   -0.49817  -0.48187  -0.48157  -0.45928  -0.44240
 Alpha  occ. eigenvalues --   -0.38049  -0.37040  -0.36425  -0.35529
 Alpha virt. eigenvalues --    0.04170   0.05802   0.10619   0.12144   0.15727
 Alpha virt. eigenvalues --    0.17364   0.20767   0.22456   0.26722   0.27550
 Alpha virt. eigenvalues --    0.28220   0.29347   0.30434   0.31698   0.32334

 Mulliken charges:
               1
     1  C   -0.177542
     2  C   -0.220692
     3  C   -0.172066
     4  C    0.157028
     5  C   -0.172577
     6  C   -0.221466
     7  H    0.247573
     8  H    0.220807
     9  H    0.272285
    10  H    0.272800
    11  H    0.229336
    12  N    0.488281
    13  O   -0.462617
    14  O   -0.463104
    15  C   -0.169737
    16  C   -0.218384
    17  C   -0.170697
    18  C    0.157486
    19  C   -0.170257
    20  C   -0.218474
    21  H    0.228291
    22  H    0.225646
    23  H    0.273597
    24  H    0.276762
    25  H    0.225884
    26  N    0.492917
    27  O   -0.455570
    28  O   -0.475513
 Sum of Mulliken charges =  -0.00000

 Dipole moment (field-independent basis, Debye):
    X=              9.2585    Y=              2.4718    Z=              1.1459  Tot=              9.6510
 Quadrupole moment (field-independent basis, Debye-Ang):
   XX=           -115.8336   YY=           -104.1975   ZZ=           -101.6003
   XY=             16.4946   XZ=            -12.9630   YZ=              2.5069

 Normal termination of Gaussian 16 at Wed May  5 20:58:05 2021.
