 Gaussian 16, Revision A.03,
 Gaussian 16:  EM64L-G16RevA.03 25-Dec-2016

 -------------
 #p 6-31g* mp2
 -------------

 ------------------------------------------------------
 Input file generated by CHIRIPA (05-May-2021 14:51:14)
 ------------------------------------------------------
 Symbolic Z-matrix:
 Charge =  0 Multiplicity = 1

                         Standard orientation:
 ---------------------------------------------------------------------
 Center     Atomic      Atomic             Coordinates (Angstroms)
 Number     Number       Type             X           Y           Z
 ---------------------------------------------------------------------
      1          6           0        3.465003    0.363047    0.073929
      2          6           0        2.469877    0.406550    1.234022
      3          6           0        1.262376    1.298508    0.943944
      4          1           0        3.805963    1.383816   -0.146802
      5          1           0        2.950580    0.003443   -0.827985
      6          1           0        2.986359    0.764651    2.133815
      7          1           0        2.131392   -0.614463    1.452142
      8          1           0        0.721784    0.940192    0.061917
      9          1           0        1.581608    2.327142    0.747463
     10          1           0        0.563905    1.315108    1.786394
     11          6           0        4.677561   -0.524558    0.348859
     12          6           0        5.672686   -0.568061   -0.811235
     13          6           0        6.880188   -1.460019   -0.521157
     14          1           0        5.191984   -0.164954    1.250772
     15          1           0        4.336601   -1.545327    0.569589
     16          1           0        6.011171    0.452952   -1.029355
     17          1           0        5.156205   -0.926162   -1.711028
     18          1           0        6.560955   -2.488653   -0.324676
     19          1           0        7.420780   -1.101703    0.360870
     20          1           0        7.578658   -1.476619   -1.363607
     21          6           0       -4.574229   -0.300065    0.219247
     22          6           0       -5.130981   -1.550864   -0.461574
     23          6           0       -6.135841   -2.301971    0.412432
     24          1           0       -4.096216   -0.587526    1.165722
     25          1           0       -5.406543    0.368337    0.479798
     26          1           0       -4.297750   -2.216081   -0.722007
     27          1           0       -5.607556   -1.260416   -1.406631
     28          1           0       -6.986007   -1.658773    0.661668
     29          1           0       -5.668757   -2.619868    1.350181
     30          1           0       -6.521154   -3.192625   -0.093660
     31          6           0       -3.568334    0.461576   -0.642034
     32          6           0       -3.011583    1.712375    0.038787
     33          6           0       -2.006722    2.463482   -0.835220
     34          1           0       -2.736020   -0.206826   -0.902585
     35          1           0       -4.046347    0.749037   -1.588509
     36          1           0       -2.535007    1.421927    0.983844
     37          1           0       -3.844815    2.377592    0.299221
     38          1           0       -2.473807    2.781379   -1.772969
     39          1           0       -1.156558    1.820285   -1.084455
     40          1           0       -1.621410    3.354135   -0.329127
 ---------------------------------------------------------------------

 SCF Done:  E(RHF) =  -470.732997422     A.U. after   11 cycles
 E2 =    -0.1582607321D+01 EUMP2 =    -0.47231560474300D+03

 The electronic state is 1-A.
 Alpha  occ. eigenvalues --  -11.21612 -11.21611 -11.21588 -11.21531 -11.21419
 Alpha  occ. eigenvalues --  -11.21376 -11.21360 -11.21316 -11.21079 -11.21072
 Alpha  occ. eigenvalues --  -11.21061 -11.20943  -1.08445  -1.08392  -1.03557
 Alpha  occ. eigenvalues --   -1.03469  -0.96030  -0.95895  -0.87062  -0.86897
 Alpha  occ. eigenvalues --   -0.79638  -0.79516  -0.78258  -0.78206  -0.65100
 Alpha  occ. eigenvalues --   -0.65005  -0.61055  -0.60790  -0.59376  -0.59283
 Alpha  occ. eigenvalues --   -0.57642  -0.57516  -0.55461  -0.55074  -0.52703
 Alpha  occ. eigenvalues --   -0.52612  -0.52466  -0.52295  -0.50082  -0.49724
 Alpha  occ. eigenvalues --   -0.47965  -0.47816  -0.46698  -0.46491  -0.45813
 Alpha  occ. eigenvalues --   -0.45752  -0.45713  -0.45624  -0.43794  -0.43739
 Alpha virt. eigenvalues --    0.21523   0.23016   0.23604   0.24882   0.26139
 Alpha virt. eigenvalues --    0.26593   0.26936   0.27527   0.27760   0.29146
 Alpha virt. eigenvalues --    0.29942   0.30690   0.31576   0.32114   0.32385

 Mulliken charges:
               1
     1  C   -0.298290
     2  C   -0.300245
     3  C   -0.477320
     4  H    0.149871
     5  H    0.149250
     6  H    0.151882
     7  H    0.151524
     8  H    0.157602
     9  H    0.155803
    10  H    0.160311
    11  C   -0.298251
    12  C   -0.299667
    13  C   -0.475714
    14  H    0.149593
    15  H    0.149566
    16  H    0.152022
    17  H    0.151931
    18  H    0.155155
    19  H    0.155202
    20  H    0.160305
    21  C   -0.298246
    22  C   -0.299597
    23  C   -0.475681
    24  H    0.149557
    25  H    0.149520
    26  H    0.151729
    27  H    0.151913
    28  H    0.155190
    29  H    0.155122
    30  H    0.160162
    31  C   -0.298133
    32  C   -0.300813
    33  C   -0.476978
    34  H    0.148715
    35  H    0.149566
    36  H    0.152977
    37  H    0.151556
    38  H    0.153842
    39  H    0.158639
    40  H    0.160428
 Sum of Mulliken charges =  -0.00000

 Dipole moment (field-independent basis, Debye):
    X=              0.0249    Y=              0.0150    Z=              0.0053  Tot=              0.0295
 Quadrupole moment (field-independent basis, Debye-Ang):
   XX=            -85.4738   YY=            -84.6256   ZZ=            -84.7792
   XY=              0.0960   XZ=              0.7974   YZ=              0.4986

 Normal termination of Gaussian 16 at Thu May  6 04:00:27 2021.
