 Gaussian 16, Revision A.03,
 Gaussian 16:  EM64L-G16RevA.03 25-Dec-2016

 -------------
 #p 6-31g* mp2
 -------------

 ------------------------------------------------------
 Input file generated by CHIRIPA (05-May-2021 14:55:25)
 ------------------------------------------------------
 Symbolic Z-matrix:
 Charge =  0 Multiplicity = 1

                         Standard orientation:
 ---------------------------------------------------------------------
 Center     Atomic      Atomic             Coordinates (Angstroms)
 Number     Number       Type             X           Y           Z
 ---------------------------------------------------------------------
      1          6           0        2.752220   -2.297726    0.288878
      2          6           0        1.899133   -1.363010    0.884756
      3          6           0        2.166621    0.005748    0.787291
      4          6           0        3.301101    0.406482    0.083262
      5          6           0        4.170166   -0.500420   -0.521340
      6          6           0        3.883020   -1.864212   -0.411035
      7          1           0        2.536794   -3.359081    0.369578
      8          1           0        1.020214   -1.696799    1.428936
      9          1           0        1.523055    0.750884    1.238970
     10          1           0        5.038680   -0.137290   -1.057287
     11          1           0        4.547306   -2.587869   -0.874811
     12          7           0        3.594683    1.852896   -0.026717
     13          8           0        4.600609    2.180284   -0.652471
     14          8           0        2.813309    2.631820    0.514918
     15          6           0       -4.552070    0.438360   -0.202809
     16          6           0       -6.037685    0.301116    0.132004
     17          6           0       -6.801664    1.616938   -0.018800
     18          1           0       -4.104599    1.200656    0.449587
     19          1           0       -4.448003    0.807928   -1.232365
     20          1           0       -6.138902   -0.069400    1.160152
     21          1           0       -6.481629   -0.461079   -0.521134
     22          1           0       -6.730379    1.988216   -1.046259
     23          1           0       -6.385705    2.382121    0.644581
     24          1           0       -7.861651    1.495994    0.225453
     25          6           0       -3.774880   -0.868686   -0.056744
     26          6           0       -2.289265   -0.731441   -0.391556
     27          6           0       -1.525285   -2.047262   -0.240753
     28          1           0       -3.878947   -1.238252    0.972812
     29          1           0       -4.222351   -1.630981   -0.709139
     30          1           0       -1.845321    0.030753    0.261582
     31          1           0       -2.188048   -0.360926   -1.419705
     32          1           0       -1.941245   -2.812446   -0.904134
     33          1           0       -1.596571   -2.418541    0.786706
     34          1           0       -0.465298   -1.926318   -0.485006
 ---------------------------------------------------------------------

 SCF Done:  E(RHF) =  -669.534651392     A.U. after   15 cycles
 E2 =    -0.2092177180D+01 EUMP2 =    -0.67162682857264D+03

 The electronic state is 1-A.
 Alpha  occ. eigenvalues --  -20.60773 -20.60767 -15.85825 -11.31204 -11.27759
 Alpha  occ. eigenvalues --  -11.27751 -11.27494 -11.26787 -11.26721 -11.22134
 Alpha  occ. eigenvalues --  -11.21803 -11.21780 -11.21739 -11.21618 -11.21195
 Alpha  occ. eigenvalues --   -1.59847  -1.39400  -1.19375  -1.08799  -1.08754
 Alpha  occ. eigenvalues --   -1.04784  -1.03912  -0.96382  -0.95597  -0.87422
 Alpha  occ. eigenvalues --   -0.86159  -0.82428  -0.79988  -0.78567  -0.77476
 Alpha  occ. eigenvalues --   -0.72043  -0.71170  -0.70469  -0.65433  -0.65020
 Alpha  occ. eigenvalues --   -0.64801  -0.62185  -0.61291  -0.59746  -0.57976
 Alpha  occ. eigenvalues --   -0.55692  -0.55251  -0.53459  -0.52991  -0.52826
 Alpha  occ. eigenvalues --   -0.52526  -0.50310  -0.48800  -0.48798  -0.48290
 Alpha  occ. eigenvalues --   -0.47015  -0.46116  -0.46026  -0.44803  -0.44160
 Alpha  occ. eigenvalues --   -0.37330  -0.36330
 Alpha virt. eigenvalues --    0.05045   0.11198   0.16505   0.20522   0.22742
 Alpha virt. eigenvalues --    0.24011   0.25989   0.26602   0.27042   0.28227
 Alpha virt. eigenvalues --    0.28801   0.30145   0.31230   0.31463   0.32282

 Mulliken charges:
               1
     1  C   -0.173069
     2  C   -0.219771
     3  C   -0.173404
     4  C    0.158932
     5  C   -0.171159
     6  C   -0.218028
     7  H    0.226543
     8  H    0.231205
     9  H    0.275656
    10  H    0.275624
    11  H    0.223570
    12  N    0.488087
    13  O   -0.460376
    14  O   -0.460315
    15  C   -0.298898
    16  C   -0.299918
    17  C   -0.476003
    18  H    0.151011
    19  H    0.151280
    20  H    0.151571
    21  H    0.151919
    22  H    0.156088
    23  H    0.156243
    24  H    0.160698
    25  C   -0.298409
    26  C   -0.298327
    27  C   -0.487173
    28  H    0.148397
    29  H    0.150503
    30  H    0.149170
    31  H    0.156634
    32  H    0.157963
    33  H    0.147513
    34  H    0.166245
 Sum of Mulliken charges =  -0.00000

 Dipole moment (field-independent basis, Debye):
    X=             -1.0858    Y=             -5.0607    Z=              0.3365  Tot=              5.1868
 Quadrupole moment (field-independent basis, Debye-Ang):
   XX=            -98.5422   YY=           -100.1240   ZZ=            -92.9009
   XY=            -17.9848   XZ=             -1.0417   YZ=              0.7034

 Normal termination of Gaussian 16 at Thu May  6 14:23:16 2021.
