 Gaussian 16, Revision A.03,
 Gaussian 16:  EM64L-G16RevA.03 25-Dec-2016

 -------------
 #p 6-31g* mp2
 -------------

 ------------------------------------------------------
 Input file generated by CHIRIPA (05-May-2021 14:55:22)
 ------------------------------------------------------
 Symbolic Z-matrix:
 Charge =  0 Multiplicity = 1

                         Standard orientation:
 ---------------------------------------------------------------------
 Center     Atomic      Atomic             Coordinates (Angstroms)
 Number     Number       Type             X           Y           Z
 ---------------------------------------------------------------------
      1          6           0       -5.009499   -1.180432   -0.515651
      2          6           0       -4.112181   -1.864826    0.310755
      3          6           0       -2.895481   -1.280585    0.675244
      4          6           0       -2.607017   -0.004814    0.193075
      5          6           0       -3.480288    0.702479   -0.631802
      6          6           0       -4.691250    0.098781   -0.983467
      7          1           0       -5.952432   -1.641842   -0.793813
      8          1           0       -4.356691   -2.858396    0.675554
      9          1           0       -2.182499   -1.787995    1.313688
     10          1           0       -3.208661    1.691692   -0.979789
     11          1           0       -5.386200    0.632641   -1.625404
     12          7           0       -1.321989    0.623995    0.572155
     13          8           0       -1.091397    1.748987    0.134140
     14          8           0       -0.569709   -0.020043    1.300116
     15          6           0        3.806402   -0.495939   -0.542909
     16          6           0        4.721485   -1.417452    0.264200
     17          6           0        5.109560   -2.683082   -0.500896
     18          1           0        2.899452   -1.047189   -0.826650
     19          1           0        4.309968   -0.219384   -1.479570
     20          1           0        4.216904   -1.691074    1.199692
     21          1           0        5.626276   -0.863885    0.546216
     22          1           0        5.635711   -2.427671   -1.426386
     23          1           0        4.218331   -3.259560   -0.769197
     24          1           0        5.763842   -3.327435    0.094573
     25          6           0        3.409740    0.773570    0.208578
     26          6           0        2.494658    1.695083   -0.598532
     27          6           0        2.106582    2.960713    0.166564
     28          1           0        2.906173    0.497015    1.145238
     29          1           0        4.316690    1.324821    0.492318
     30          1           0        1.589867    1.141517   -0.880549
     31          1           0        2.999239    1.968705   -1.534024
     32          1           0        2.997811    3.537191    0.434864
     33          1           0        1.580431    2.705303    1.092054
     34          1           0        1.452300    3.605067   -0.428905
 ---------------------------------------------------------------------

 SCF Done:  E(RHF) =  -669.536444856     A.U. after   15 cycles
 E2 =    -0.2092490676D+01 EUMP2 =    -0.67162893553160D+03

 The electronic state is 1-A.
 Alpha  occ. eigenvalues --  -20.61139 -20.61132 -15.86134 -11.31405 -11.27957
 Alpha  occ. eigenvalues --  -11.27953 -11.27683 -11.26948 -11.26938 -11.20666
 Alpha  occ. eigenvalues --  -11.20366 -11.20210 -11.19812 -11.19744 -11.18960
 Alpha  occ. eigenvalues --   -1.60178  -1.39735  -1.19564  -1.08980  -1.07067
 Alpha  occ. eigenvalues --   -1.04949  -1.02108  -0.95832  -0.94566  -0.86353
 Alpha  occ. eigenvalues --   -0.85600  -0.82663  -0.78271  -0.77727  -0.76808
 Alpha  occ. eigenvalues --   -0.72347  -0.71491  -0.70671  -0.65219  -0.64957
 Alpha  occ. eigenvalues --   -0.63688  -0.62296  -0.59498  -0.58048  -0.56166
 Alpha  occ. eigenvalues --   -0.55457  -0.53875  -0.53283  -0.53037  -0.51294
 Alpha  occ. eigenvalues --   -0.51013  -0.49152  -0.49096  -0.48392  -0.46561
 Alpha  occ. eigenvalues --   -0.45354  -0.45130  -0.44355  -0.44166  -0.42374
 Alpha  occ. eigenvalues --   -0.37537  -0.36547
 Alpha virt. eigenvalues --    0.04769   0.11110   0.16279   0.21242   0.24130
 Alpha virt. eigenvalues --    0.25835   0.27177   0.27860   0.28252   0.28759
 Alpha virt. eigenvalues --    0.29375   0.30842   0.32361   0.32729   0.32822

 Mulliken charges:
               1
     1  C   -0.170304
     2  C   -0.218606
     3  C   -0.170630
     4  C    0.158818
     5  C   -0.170596
     6  C   -0.218579
     7  H    0.226448
     8  H    0.224223
     9  H    0.275905
    10  H    0.276154
    11  H    0.224276
    12  N    0.488126
    13  O   -0.456599
    14  O   -0.460557
    15  C   -0.296654
    16  C   -0.298910
    17  C   -0.474701
    18  H    0.148371
    19  H    0.144761
    20  H    0.152853
    21  H    0.149853
    22  H    0.153248
    23  H    0.152881
    24  H    0.157057
    25  C   -0.300003
    26  C   -0.296326
    27  C   -0.467789
    28  H    0.160583
    29  H    0.142722
    30  H    0.157646
    31  H    0.140239
    32  H    0.139787
    33  H    0.169228
    34  H    0.157073
 Sum of Mulliken charges =  -0.00000

 Dipole moment (field-independent basis, Debye):
    X=             -5.0440    Y=             -2.2215    Z=             -1.2012  Tot=              5.6409
 Quadrupole moment (field-independent basis, Debye-Ang):
   XX=            -72.3987   YY=            -93.0019   ZZ=            -94.6217
   XY=              5.4164   XZ=              3.7661   YZ=             -3.4641

 Normal termination of Gaussian 16 at Thu May  6 09:24:56 2021.
