 Gaussian 16, Revision A.03,
 Gaussian 16:  EM64L-G16RevA.03 25-Dec-2016

 -------------
 #p 6-31g* mp2
 -------------

 ------------------------------------------------------
 Input file generated by CHIRIPA (05-May-2021 14:57:22)
 ------------------------------------------------------
 Symbolic Z-matrix:
 Charge =  0 Multiplicity = 1

                         Standard orientation:
 ---------------------------------------------------------------------
 Center     Atomic      Atomic             Coordinates (Angstroms)
 Number     Number       Type             X           Y           Z
 ---------------------------------------------------------------------
      1          6           0        1.244887   -2.365726    0.105616
      2          6           0        0.922887   -1.449685   -0.901214
      3          6           0        1.660427   -0.271566   -1.051602
      4          6           0        2.718295   -0.040354   -0.173680
      5          6           0        3.063687   -0.933590    0.839298
      6          6           0        2.312378   -2.105214    0.971133
      7          1           0        0.666600   -3.278394    0.215235
      8          1           0        0.094387   -1.649381   -1.574827
      9          1           0        1.432829    0.454753   -1.822366
     10          1           0        3.895131   -0.706902    1.495598
     11          1           0        2.564720   -2.814825    1.753961
     12          7           0        3.506384    1.203430   -0.323068
     13          8           0        4.433677    1.383808    0.463207
     14          8           0        3.181873    1.974379   -1.223605
     15          6           0       -2.645784   -2.227197   -0.350112
     16          6           0       -3.139819   -1.312495   -1.285938
     17          6           0       -3.113081    0.059770   -1.020001
     18          6           0       -2.582861    0.484380    0.197317
     19          6           0       -2.083068   -0.402208    1.149921
     20          6           0       -2.119912   -1.769940    0.862693
     21          1           0       -2.670481   -3.291444   -0.564969
     22          1           0       -3.548799   -1.664742   -2.228649
     23          1           0       -3.488864    0.789741   -1.726647
     24          1           0       -1.681497   -0.020894    2.080920
     25          1           0       -1.735537   -2.478021    1.591337
     26          7           0       -2.549205    1.934737    0.490123
     27          8           0       -2.076912    2.283341    1.569961
     28          8           0       -2.995755    2.695458   -0.365759
 ---------------------------------------------------------------------

 SCF Done:  E(RHF) =  -868.334891530     A.U. after   16 cycles
 E2 =    -0.2604486918D+01 EUMP2 =    -0.87093937844870D+03

 The electronic state is 1-A.
 Alpha  occ. eigenvalues --  -20.61202 -20.61194 -20.60728 -20.60711 -15.86263
 Alpha  occ. eigenvalues --  -15.85780 -11.31916 -11.31305 -11.28508 -11.28452
 Alpha  occ. eigenvalues --  -11.28337 -11.27888 -11.27821 -11.27731 -11.27630
 Alpha  occ. eigenvalues --  -11.27590 -11.27009 -11.26877  -1.60269  -1.59792
 Alpha  occ. eigenvalues --   -1.39814  -1.39342  -1.20135  -1.19492  -1.09505
 Alpha  occ. eigenvalues --   -1.08880  -1.05556  -1.04910  -0.96265  -0.95693
 Alpha  occ. eigenvalues --   -0.86956  -0.86315  -0.83080  -0.82510  -0.78062
 Alpha  occ. eigenvalues --   -0.77514  -0.72475  -0.71999  -0.71597  -0.71247
 Alpha  occ. eigenvalues --   -0.71113  -0.70680  -0.65770  -0.65566  -0.65152
 Alpha  occ. eigenvalues --   -0.64952  -0.62878  -0.62270  -0.56093  -0.55505
 Alpha  occ. eigenvalues --   -0.54275  -0.53638  -0.53109  -0.52756  -0.49256
 Alpha  occ. eigenvalues --   -0.49212  -0.48768  -0.48742  -0.45154  -0.44713
 Alpha  occ. eigenvalues --   -0.38419  -0.37816  -0.36867  -0.36175
 Alpha virt. eigenvalues --    0.04416   0.04978   0.10326   0.11232   0.15683
 Alpha virt. eigenvalues --    0.16589   0.19669   0.21797   0.25764   0.26920
 Alpha virt. eigenvalues --    0.27435   0.29045   0.30129   0.30641   0.32383

 Mulliken charges:
               1
     1  C   -0.173623
     2  C   -0.211372
     3  C   -0.174317
     4  C    0.160603
     5  C   -0.171116
     6  C   -0.220727
     7  H    0.214655
     8  H    0.224164
     9  H    0.277203
    10  H    0.276497
    11  H    0.221436
    12  N    0.488339
    13  O   -0.459910
    14  O   -0.457617
    15  C   -0.182470
    16  C   -0.222362
    17  C   -0.172840
    18  C    0.159543
    19  C   -0.165074
    20  C   -0.213702
    21  H    0.223881
    22  H    0.225728
    23  H    0.278935
    24  H    0.279166
    25  H    0.220745
    26  N    0.487971
    27  O   -0.456185
    28  O   -0.457551
 Sum of Mulliken charges =  -0.00000

 Dipole moment (field-independent basis, Debye):
    X=             -2.9866    Y=             -9.1374    Z=             -0.4482  Tot=              9.6235
 Quadrupole moment (field-independent basis, Debye-Ang):
   XX=           -117.6597   YY=           -110.6426   ZZ=            -98.8904
   XY=             -0.0858   XZ=              9.1759   YZ=             -2.9555

 Normal termination of Gaussian 16 at Thu May  6 12:54:24 2021.
