 Gaussian 16, Revision A.03,
 Gaussian 16:  EM64L-G16RevA.03 25-Dec-2016

 -------------
 #p 6-31g* mp2
 -------------

 ------------------------------------------------------
 Input file generated by CHIRIPA (05-May-2021 14:57:22)
 ------------------------------------------------------
 Symbolic Z-matrix:
 Charge =  0 Multiplicity = 1

                         Standard orientation:
 ---------------------------------------------------------------------
 Center     Atomic      Atomic             Coordinates (Angstroms)
 Number     Number       Type             X           Y           Z
 ---------------------------------------------------------------------
      1          6           0       -0.564144    2.501784   -0.671066
      2          6           0       -0.858062    2.352824    0.688325
      3          6           0       -1.726400    1.346111    1.120837
      4          6           0       -2.285585    0.502242    0.162459
      5          6           0       -2.012356    0.625264   -1.198975
      6          6           0       -1.141211    1.639049   -1.608724
      7          1           0        0.111492    3.286569   -0.998210
      8          1           0       -0.411361    3.021383    1.418758
      9          1           0       -1.971244    1.208387    2.167021
     10          1           0       -2.473011   -0.056485   -1.903556
     11          1           0       -0.914764    1.752385   -2.665096
     12          7           0       -3.206341   -0.567263    0.608291
     13          8           0       -3.686014   -1.297800   -0.255924
     14          8           0       -3.430922   -0.654754    1.813507
     15          6           0        3.913109    0.788316    0.934994
     16          6           0        3.506532    0.999971   -0.386528
     17          6           0        2.521525    0.193355   -0.964176
     18          6           0        1.961819   -0.820317   -0.187975
     19          6           0        2.345672   -1.056124    1.131246
     20          6           0        3.332405   -0.237248    1.688335
     21          1           0        4.678956    1.419677    1.375740
     22          1           0        3.955770    1.795687   -0.973952
     23          1           0        2.188035    0.335214   -1.984998
     24          1           0        1.879465   -1.857249    1.691842
     25          1           0        3.646194   -0.403928    2.714881
     26          7           0        0.918122   -1.680734   -0.788622
     27          8           0        0.440543   -2.567097   -0.083700
     28          8           0        0.597416   -1.452476   -1.952960
 ---------------------------------------------------------------------

 SCF Done:  E(RHF) =  -868.337294686     A.U. after   16 cycles
 E2 =    -0.2603944515D+01 EUMP2 =    -0.87094123920128D+03

 The electronic state is 1-A.
 Alpha  occ. eigenvalues --  -20.61057 -20.61026 -20.60080 -20.60025 -15.86067
 Alpha  occ. eigenvalues --  -15.85122 -11.31496 -11.30658 -11.28152 -11.28056
 Alpha  occ. eigenvalues --  -11.27876 -11.27330 -11.27171 -11.27169 -11.27148
 Alpha  occ. eigenvalues --  -11.27092 -11.26402 -11.26286  -1.60095  -1.59119
 Alpha  occ. eigenvalues --   -1.39654  -1.38670  -1.19694  -1.18887  -1.09078
 Alpha  occ. eigenvalues --   -1.08263  -1.05121  -1.04292  -0.95904  -0.95055
 Alpha  occ. eigenvalues --   -0.86514  -0.85696  -0.82750  -0.81869  -0.77780
 Alpha  occ. eigenvalues --   -0.76866  -0.72308  -0.71461  -0.71342  -0.70821
 Alpha  occ. eigenvalues --   -0.70407  -0.70016  -0.65359  -0.65136  -0.64530
 Alpha  occ. eigenvalues --   -0.64311  -0.62473  -0.61619  -0.55629  -0.54870
 Alpha  occ. eigenvalues --   -0.53536  -0.53224  -0.52547  -0.52389  -0.49077
 Alpha  occ. eigenvalues --   -0.49038  -0.48122  -0.48073  -0.45074  -0.44036
 Alpha  occ. eigenvalues --   -0.37741  -0.37212  -0.36383  -0.35796
 Alpha virt. eigenvalues --    0.04764   0.05675   0.10863   0.11790   0.16090
 Alpha virt. eigenvalues --    0.17233   0.20810   0.21861   0.26635   0.27417
 Alpha virt. eigenvalues --    0.28323   0.28747   0.30399   0.31309   0.32206

 Mulliken charges:
               1
     1  C   -0.173275
     2  C   -0.218451
     3  C   -0.173513
     4  C    0.153670
     5  C   -0.159514
     6  C   -0.218984
     7  H    0.218518
     8  H    0.218514
     9  H    0.273249
    10  H    0.283607
    11  H    0.223027
    12  N    0.490763
    13  O   -0.453671
    14  O   -0.464953
    15  C   -0.171676
    16  C   -0.222009
    17  C   -0.167127
    18  C    0.161977
    19  C   -0.170403
    20  C   -0.219617
    21  H    0.225300
    22  H    0.220425
    23  H    0.270619
    24  H    0.279133
    25  H    0.224741
    26  N    0.487707
    27  O   -0.453606
    28  O   -0.464452
 Sum of Mulliken charges =  -0.00000

 Dipole moment (field-independent basis, Debye):
    X=              6.7852    Y=              6.4356    Z=              0.4621  Tot=              9.3633
 Quadrupole moment (field-independent basis, Debye-Ang):
   XX=           -106.5584   YY=           -105.8147   ZZ=            -98.2215
   XY=             -3.4317   XZ=              8.6068   YZ=             -3.4968

 Normal termination of Gaussian 16 at Fri May  7 01:45:09 2021.
