 Gaussian 16, Revision A.03,
 Gaussian 16:  EM64L-G16RevA.03 25-Dec-2016

 -------------
 #p 6-31g* mp2
 -------------

 ------------------------------------------------------
 Input file generated by CHIRIPA (05-May-2021 14:55:24)
 ------------------------------------------------------
 Symbolic Z-matrix:
 Charge =  0 Multiplicity = 1

                         Standard orientation:
 ---------------------------------------------------------------------
 Center     Atomic      Atomic             Coordinates (Angstroms)
 Number     Number       Type             X           Y           Z
 ---------------------------------------------------------------------
      1          6           0       -2.405338    2.158552    0.167360
      2          6           0       -1.933014    1.042782    0.866280
      3          6           0       -2.616935   -0.175034    0.805274
      4          6           0       -3.775053   -0.241845    0.032235
      5          6           0       -4.270837    0.852070   -0.675463
      6          6           0       -3.570687    2.059809   -0.599928
      7          1           0       -1.867748    3.100667    0.220395
      8          1           0       -1.028260    1.116548    1.462959
      9          1           0       -2.273510   -1.054491    1.336342
     10          1           0       -5.175614    0.747772   -1.261909
     11          1           0       -3.939831    2.924689   -1.143767
     12          7           0       -4.507681   -1.525759   -0.040039
     13          8           0       -5.525558   -1.558645   -0.728139
     14          8           0       -4.050164   -2.474893    0.592780
     15          6           0        4.180000    0.545826    0.224105
     16          6           0        2.758367    0.358134   -0.306665
     17          6           0        1.774605    1.380134    0.263880
     18          1           0        4.167932    0.472972    1.320231
     19          1           0        4.523198    1.561229   -0.017904
     20          1           0        2.418469   -0.657078   -0.064940
     21          1           0        2.773852    0.431253   -1.401667
     22          1           0        2.086973    2.398451    0.010780
     23          1           0        1.729571    1.303936    1.355102
     24          1           0        0.764464    1.227643   -0.128831
     25          6           0        5.175027   -0.468409   -0.337122
     26          6           0        6.596660   -0.280717    0.193648
     27          6           0        7.580422   -1.302717   -0.376897
     28          1           0        4.831830   -1.483811   -0.095113
     29          1           0        5.187096   -0.395554   -1.433247
     30          1           0        6.581177   -0.353836    1.288650
     31          1           0        6.936559    0.734495   -0.048077
     32          1           0        7.625457   -1.226519   -1.468119
     33          1           0        7.268055   -2.321033   -0.123796
     34          1           0        8.590564   -1.150226    0.015814
 ---------------------------------------------------------------------

 SCF Done:  E(RHF) =  -669.534968871     A.U. after   15 cycles
 E2 =    -0.2091685653D+01 EUMP2 =    -0.67162665452392D+03

 The electronic state is 1-A.
 Alpha  occ. eigenvalues --  -20.60754 -20.60749 -15.85807 -11.31175 -11.27739
 Alpha  occ. eigenvalues --  -11.27723 -11.27466 -11.26756 -11.26677 -11.22239
 Alpha  occ. eigenvalues --  -11.21963 -11.21912 -11.21887 -11.21740 -11.21309
 Alpha  occ. eigenvalues --   -1.59829  -1.39383  -1.19345  -1.08903  -1.08737
 Alpha  occ. eigenvalues --   -1.04749  -1.04040  -0.96521  -0.95571  -0.87566
 Alpha  occ. eigenvalues --   -0.86130  -0.82401  -0.80119  -0.78683  -0.77450
 Alpha  occ. eigenvalues --   -0.72025  -0.71152  -0.70441  -0.65537  -0.64992
 Alpha  occ. eigenvalues --   -0.64777  -0.62145  -0.61425  -0.59870  -0.58102
 Alpha  occ. eigenvalues --   -0.55823  -0.55226  -0.53492  -0.53056  -0.52880
 Alpha  occ. eigenvalues --   -0.52608  -0.50448  -0.48781  -0.48780  -0.48421
 Alpha  occ. eigenvalues --   -0.47127  -0.46235  -0.46137  -0.44788  -0.44283
 Alpha  occ. eigenvalues --   -0.37303  -0.36321
 Alpha virt. eigenvalues --    0.05076   0.11182   0.16563   0.20919   0.22525
 Alpha virt. eigenvalues --    0.23938   0.25897   0.26462   0.27186   0.28062
 Alpha virt. eigenvalues --    0.28763   0.29912   0.31151   0.31635   0.32214

 Mulliken charges:
               1
     1  C   -0.173002
     2  C   -0.220686
     3  C   -0.173739
     4  C    0.158707
     5  C   -0.171099
     6  C   -0.218291
     7  H    0.226753
     8  H    0.231655
     9  H    0.275605
    10  H    0.275528
    11  H    0.223382
    12  N    0.488088
    13  O   -0.460471
    14  O   -0.460441
    15  C   -0.298895
    16  C   -0.298394
    17  C   -0.487476
    18  H    0.149529
    19  H    0.149716
    20  H    0.153967
    21  H    0.155008
    22  H    0.156044
    23  H    0.150021
    24  H    0.164784
    25  C   -0.298870
    26  C   -0.299951
    27  C   -0.476007
    28  H    0.150947
    29  H    0.150658
    30  H    0.152136
    31  H    0.151920
    32  H    0.155716
    33  H    0.156107
    34  H    0.161052
 Sum of Mulliken charges =  -0.00000

 Dipole moment (field-independent basis, Debye):
    X=              2.6948    Y=              4.5019    Z=              0.2121  Tot=              5.2510
 Quadrupole moment (field-independent basis, Debye-Ang):
   XX=           -112.5559   YY=            -96.6881   ZZ=            -92.9836
   XY=            -18.9673   XZ=              1.4719   YZ=             -2.1650

 Normal termination of Gaussian 16 at Wed May  5 22:22:59 2021.
