 Gaussian 16, Revision A.03,
 Gaussian 16:  EM64L-G16RevA.03 25-Dec-2016

 -------------
 #p 6-31g* mp2
 -------------

 ------------------------------------------------------
 Input file generated by CHIRIPA (05-May-2021 14:55:25)
 ------------------------------------------------------
 Symbolic Z-matrix:
 Charge =  0 Multiplicity = 1

                         Standard orientation:
 ---------------------------------------------------------------------
 Center     Atomic      Atomic             Coordinates (Angstroms)
 Number     Number       Type             X           Y           Z
 ---------------------------------------------------------------------
      1          6           0       -0.380599   -2.881346   -0.163947
      2          6           0       -0.161354   -2.275158    1.077419
      3          6           0        0.821641   -1.291857    1.223669
      4          6           0        1.570380   -0.937386    0.102496
      5          6           0        1.375711   -1.522929   -1.147518
      6          6           0        0.387279   -2.503962   -1.270502
      7          1           0       -1.146324   -3.644317   -0.268521
      8          1           0       -0.756189   -2.566249    1.938513
      9          1           0        1.012347   -0.806316    2.173037
     10          1           0        1.984574   -1.211777   -1.987689
     11          1           0        0.219209   -2.973032   -2.235785
     12          7           0        2.613910    0.102390    0.245009
     13          8           0        3.260124    0.396969   -0.758120
     14          8           0        2.765856    0.603100    1.357142
     15          6           0       -1.221403    1.740044   -0.497685
     16          6           0       -0.448106    2.793891    0.295665
     17          6           0        0.686112    3.426691   -0.511121
     18          1           0       -0.525812    0.957731   -0.830982
     19          1           0       -1.630449    2.202533   -1.406630
     20          1           0       -0.041806    2.329882    1.203538
     21          1           0       -1.145651    3.573686    0.627275
     22          1           0        0.294168    3.915074   -1.409154
     23          1           0        1.404285    2.664203   -0.829617
     24          1           0        1.225631    4.177104    0.075106
     25          6           0       -2.358484    1.098366    0.295425
     26          6           0       -3.131781    0.044519   -0.497925
     27          6           0       -4.265999   -0.588282    0.308862
     28          1           0       -1.949438    0.635877    1.204370
     29          1           0       -3.054074    1.880678    0.628723
     30          1           0       -2.434235   -0.735276   -0.829535
     31          1           0       -3.538080    0.508527   -1.405797
     32          1           0       -4.984172    0.174206    0.627357
     33          1           0       -3.874055   -1.076665    1.206895
     34          1           0       -4.805517   -1.338695   -0.277365
 ---------------------------------------------------------------------

 SCF Done:  E(RHF) =  -669.535342393     A.U. after   15 cycles
 E2 =    -0.2097412550D+01 EUMP2 =    -0.67163275494308D+03

 The electronic state is 1-A.
 Alpha  occ. eigenvalues --  -20.61063 -20.61053 -15.86062 -11.31408 -11.27990
 Alpha  occ. eigenvalues --  -11.27980 -11.27727 -11.27009 -11.26998 -11.21688
 Alpha  occ. eigenvalues --  -11.21448 -11.21344 -11.21111 -11.21050 -11.20232
 Alpha  occ. eigenvalues --   -1.60111  -1.39664  -1.19615  -1.09007  -1.08281
 Alpha  occ. eigenvalues --   -1.05001  -1.03337  -0.95848  -0.95772  -0.86799
 Alpha  occ. eigenvalues --   -0.86396  -0.82665  -0.79429  -0.78069  -0.77706
 Alpha  occ. eigenvalues --   -0.72291  -0.71475  -0.70699  -0.65256  -0.65012
 Alpha  occ. eigenvalues --   -0.64934  -0.62337  -0.60739  -0.59222  -0.57372
 Alpha  occ. eigenvalues --   -0.55492  -0.55165  -0.53280  -0.53081  -0.52455
 Alpha  occ. eigenvalues --   -0.52196  -0.49789  -0.49060  -0.49040  -0.47725
 Alpha  occ. eigenvalues --   -0.46516  -0.45629  -0.45541  -0.44865  -0.43574
 Alpha  occ. eigenvalues --   -0.37488  -0.36564
 Alpha virt. eigenvalues --    0.04752   0.10939   0.16173   0.20663   0.22954
 Alpha virt. eigenvalues --    0.24104   0.26018   0.26915   0.27716   0.28350
 Alpha virt. eigenvalues --    0.28674   0.29965   0.31377   0.31924   0.32331

 Mulliken charges:
               1
     1  C   -0.171176
     2  C   -0.215924
     3  C   -0.171118
     4  C    0.160166
     5  C   -0.173016
     6  C   -0.216799
     7  H    0.227928
     8  H    0.225212
     9  H    0.276607
    10  H    0.276895
    11  H    0.225253
    12  N    0.487663
    13  O   -0.458118
    14  O   -0.457539
    15  C   -0.302741
    16  C   -0.304817
    17  C   -0.478800
    18  H    0.150494
    19  H    0.148342
    20  H    0.155198
    21  H    0.149538
    22  H    0.150082
    23  H    0.165466
    24  H    0.164080
    25  C   -0.295340
    26  C   -0.304068
    27  C   -0.474866
    28  H    0.144158
    29  H    0.149455
    30  H    0.153438
    31  H    0.151614
    32  H    0.157881
    33  H    0.147972
    34  H    0.156882
 Sum of Mulliken charges =  -0.00000

 Dipole moment (field-independent basis, Debye):
    X=             -3.3882    Y=             -3.7712    Z=             -0.4929  Tot=              5.0936
 Quadrupole moment (field-independent basis, Debye-Ang):
   XX=           -107.4699   YY=            -88.0484   ZZ=            -90.3083
   XY=             -3.1998   XZ=             -1.7971   YZ=              0.7883

 Normal termination of Gaussian 16 at Thu May  6 11:06:57 2021.
