 Gaussian 16, Revision A.03,
 Gaussian 16:  EM64L-G16RevA.03 25-Dec-2016

 -------------
 #p 6-31g* mp2
 -------------

 ------------------------------------------------------
 Input file generated by CHIRIPA (05-May-2021 14:53:15)
 ------------------------------------------------------
 Symbolic Z-matrix:
 Charge =  0 Multiplicity = 1

                         Standard orientation:
 ---------------------------------------------------------------------
 Center     Atomic      Atomic             Coordinates (Angstroms)
 Number     Number       Type             X           Y           Z
 ---------------------------------------------------------------------
      1          6           0       -5.037639   -0.395724    0.162309
      2          6           0       -5.924356    0.791196   -0.215762
      3          6           0       -7.415543    0.459999   -0.148955
      4          1           0       -5.258009   -1.237985   -0.507750
      5          1           0       -5.295220   -0.728217    1.177442
      6          1           0       -5.664228    1.122228   -1.229353
      7          1           0       -5.701713    1.630791    0.455152
      8          1           0       -7.696461    0.150457    0.862910
      9          1           0       -7.658763   -0.360996   -0.831166
     10          1           0       -8.031029    1.322502   -0.423046
     11          6           0       -3.544209   -0.080213    0.100287
     12          6           0       -2.657491   -1.267134    0.478358
     13          6           0       -1.166304   -0.935937    0.411550
     14          1           0       -3.286628    0.252279   -0.914847
     15          1           0       -3.323838    0.762047    0.770346
     16          1           0       -2.880134   -2.106729   -0.192557
     17          1           0       -2.917619   -1.598166    1.491949
     18          1           0       -0.923085   -0.114942    1.093762
     19          1           0       -0.885387   -0.626394   -0.600315
     20          1           0       -0.550819   -1.798440    0.685642
     21          6           0        3.789962   -2.296794   -0.205169
     22          6           0        4.759381   -1.436228    0.320354
     23          6           0        4.527679   -0.058895    0.382125
     24          6           0        3.309971    0.425932   -0.092658
     25          6           0        2.324365   -0.405832   -0.621846
     26          6           0        2.577685   -1.779761   -0.673766
     27          1           0        3.978350   -3.365417   -0.249328
     28          1           0        5.701765   -1.834960    0.685004
     29          1           0        5.260744    0.629949    0.784029
     30          1           0        1.394586    0.021179   -0.977641
     31          1           0        1.822996   -2.445716   -1.082412
     32          7           0        3.053235    1.882251   -0.032478
     33          8           0        1.972298    2.284449   -0.457270
     34          8           0        3.937805    2.593941    0.438341
 ---------------------------------------------------------------------

 SCF Done:  E(RHF) =  -669.535201995     A.U. after   15 cycles
 E2 =    -0.2091674278D+01 EUMP2 =    -0.67162687627281D+03

 The electronic state is 1-A.
 Alpha  occ. eigenvalues --  -20.60705 -20.60699 -15.85756 -11.31089 -11.27686
 Alpha  occ. eigenvalues --  -11.27623 -11.27431 -11.26695 -11.26666 -11.21888
 Alpha  occ. eigenvalues --  -11.21586 -11.21555 -11.21482 -11.21416 -11.21058
 Alpha  occ. eigenvalues --   -1.59780  -1.39334  -1.19277  -1.08680  -1.08547
 Alpha  occ. eigenvalues --   -1.04681  -1.03696  -0.96169  -0.95512  -0.87199
 Alpha  occ. eigenvalues --   -0.86075  -0.82348  -0.79777  -0.78333  -0.77383
 Alpha  occ. eigenvalues --   -0.71976  -0.71103  -0.70396  -0.65181  -0.64930
 Alpha  occ. eigenvalues --   -0.64690  -0.62071  -0.61073  -0.59536  -0.57756
 Alpha  occ. eigenvalues --   -0.55475  -0.55170  -0.53153  -0.52913  -0.52733
 Alpha  occ. eigenvalues --   -0.52423  -0.50100  -0.48733  -0.48729  -0.48064
 Alpha  occ. eigenvalues --   -0.46781  -0.45878  -0.45789  -0.44744  -0.43940
 Alpha  occ. eigenvalues --   -0.37269  -0.36248
 Alpha virt. eigenvalues --    0.05118   0.11339   0.16564   0.20727   0.22834
 Alpha virt. eigenvalues --    0.24064   0.25737   0.26717   0.27312   0.28005
 Alpha virt. eigenvalues --    0.29328   0.30027   0.31431   0.31663   0.32152

 Mulliken charges:
               1
     1  C   -0.298525
     2  C   -0.299992
     3  C   -0.475820
     4  H    0.148487
     5  H    0.149508
     6  H    0.152752
     7  H    0.153794
     8  H    0.155062
     9  H    0.154510
    10  H    0.161055
    11  C   -0.299058
    12  C   -0.300254
    13  C   -0.480188
    14  H    0.150733
    15  H    0.154003
    16  H    0.149745
    17  H    0.153580
    18  H    0.165865
    19  H    0.147551
    20  H    0.157014
    21  C   -0.171082
    22  C   -0.218964
    23  C   -0.170720
    24  C    0.157421
    25  C   -0.170363
    26  C   -0.220864
    27  H    0.225141
    28  H    0.223009
    29  H    0.275241
    30  H    0.281211
    31  H    0.223748
    32  N    0.487779
    33  O   -0.460500
    34  O   -0.460882
 Sum of Mulliken charges =  -0.00000

 Dipole moment (field-independent basis, Debye):
    X=              0.7965    Y=             -5.0665    Z=             -0.1573  Tot=              5.1312
 Quadrupole moment (field-independent basis, Debye-Ang):
   XX=            -85.9816   YY=            -99.7540   ZZ=            -93.6323
   XY=            -16.3721   XZ=              1.2482   YZ=              1.0385

 Normal termination of Gaussian 16 at Thu May  6 08:59:49 2021.
