 Gaussian 16, Revision A.03,
 Gaussian 16:  EM64L-G16RevA.03 25-Dec-2016

 -------------
 #p 6-31g* mp2
 -------------

 ------------------------------------------------------
 Input file generated by CHIRIPA (05-May-2021 14:57:23)
 ------------------------------------------------------
 Symbolic Z-matrix:
 Charge =  0 Multiplicity = 1

                         Standard orientation:
 ---------------------------------------------------------------------
 Center     Atomic      Atomic             Coordinates (Angstroms)
 Number     Number       Type             X           Y           Z
 ---------------------------------------------------------------------
      1          6           0        1.946661    2.110349   -0.077997
      2          6           0        2.402617    1.708377    1.181781
      3          6           0        3.225039    0.585596    1.314198
      4          6           0        3.573574   -0.115079    0.160566
      5          6           0        3.135404    0.260365   -1.108425
      6          6           0        2.313862    1.386337   -1.217072
      7          1           0        1.308125    2.983791   -0.171629
      8          1           0        2.119046    2.268742    2.068135
      9          1           0        3.592242    0.252298    2.277263
     10          1           0        3.434959   -0.318385   -1.973719
     11          1           0        1.961250    1.696197   -2.196713
     12          7           0        4.443769   -1.305406    0.288167
     13          8           0        4.736580   -1.905689   -0.743607
     14          8           0        4.816541   -1.615561    1.417540
     15          6           0       -5.510455   -0.976930    0.972115
     16          6           0       -4.972879   -1.633563   -0.139805
     17          6           0       -3.820608   -1.146167   -0.763716
     18          6           0       -3.229039    0.005504   -0.247006
     19          6           0       -3.740663    0.682114    0.859218
     20          6           0       -4.893719    0.176779    1.467204
     21          1           0       -6.405871   -1.362518    1.450599
     22          1           0       -5.449726   -2.529752   -0.526466
     23          1           0       -3.383279   -1.634755   -1.625948
     24          1           0       -3.243000    1.573332    1.221817
     25          1           0       -5.308989    0.688799    2.330588
     26          7           0       -2.008766    0.530984   -0.899083
     27          8           0       -1.506436    1.547421   -0.424574
     28          8           0       -1.577752   -0.083531   -1.872344
 ---------------------------------------------------------------------

 SCF Done:  E(RHF) =  -868.339826897     A.U. after   16 cycles
 E2 =    -0.2599060158D+01 EUMP2 =    -0.87093888705437D+03

 The electronic state is 1-A.
 Alpha  occ. eigenvalues --  -20.61549 -20.61522 -20.59850 -20.59838 -15.86563
 Alpha  occ. eigenvalues --  -15.84893 -11.31706 -11.29955 -11.28271 -11.28225
 Alpha  occ. eigenvalues --  -11.27942 -11.27222 -11.27190 -11.26580 -11.26471
 Alpha  occ. eigenvalues --  -11.26071 -11.25477 -11.25299  -1.60592  -1.58931
 Alpha  occ. eigenvalues --   -1.40156  -1.38493  -1.19855  -1.18098  -1.09291
 Alpha  occ. eigenvalues --   -1.07508  -1.05226  -1.03469  -0.96169  -0.94401
 Alpha  occ. eigenvalues --   -0.86635  -0.84863  -0.83014  -0.81262  -0.78083
 Alpha  occ. eigenvalues --   -0.76377  -0.72823  -0.71886  -0.71120  -0.70962
 Alpha  occ. eigenvalues --   -0.70253  -0.69130  -0.65514  -0.65228  -0.63738
 Alpha  occ. eigenvalues --   -0.63462  -0.62579  -0.60845  -0.55733  -0.53875
 Alpha  occ. eigenvalues --   -0.53564  -0.53316  -0.51814  -0.51557  -0.49562
 Alpha  occ. eigenvalues --   -0.49524  -0.47889  -0.47846  -0.45606  -0.43968
 Alpha  occ. eigenvalues --   -0.37819  -0.36818  -0.35938  -0.35075
 Alpha virt. eigenvalues --    0.04434   0.06185   0.10840   0.12604   0.15978
 Alpha virt. eigenvalues --    0.17788   0.20997   0.22754   0.26916   0.27863
 Alpha virt. eigenvalues --    0.28571   0.29650   0.30590   0.32027   0.32341

 Mulliken charges:
               1
     1  C   -0.154920
     2  C   -0.222819
     3  C   -0.173460
     4  C    0.155732
     5  C   -0.172097
     6  C   -0.212322
     7  H    0.231275
     8  H    0.217191
     9  H    0.269937
    10  H    0.272563
    11  H    0.227359
    12  N    0.488334
    13  O   -0.463191
    14  O   -0.465358
    15  C   -0.169890
    16  C   -0.218352
    17  C   -0.169986
    18  C    0.158525
    19  C   -0.170494
    20  C   -0.218361
    21  H    0.227556
    22  H    0.225678
    23  H    0.276932
    24  H    0.272890
    25  H    0.224338
    26  N    0.491039
    27  O   -0.469378
    28  O   -0.458721
 Sum of Mulliken charges =  -0.00000

 Dipole moment (field-independent basis, Debye):
    X=             -7.8698    Y=              2.4244    Z=              1.6523  Tot=              8.3989
 Quadrupole moment (field-independent basis, Debye-Ang):
   XX=           -101.1806   YY=           -103.8108   ZZ=            -99.5165
   XY=             22.3974   XZ=             -8.8914   YZ=              4.6841

 Normal termination of Gaussian 16 at Thu May  6 05:00:29 2021.
