 Gaussian 16, Revision A.03,
 Gaussian 16:  EM64L-G16RevA.03 25-Dec-2016

 -------------
 #p 6-31g* mp2
 -------------

 ------------------------------------------------------
 Input file generated by CHIRIPA (05-May-2021 14:53:14)
 ------------------------------------------------------
 Symbolic Z-matrix:
 Charge =  0 Multiplicity = 1

                         Standard orientation:
 ---------------------------------------------------------------------
 Center     Atomic      Atomic             Coordinates (Angstroms)
 Number     Number       Type             X           Y           Z
 ---------------------------------------------------------------------
      1          6           0       -4.109177   -0.470665   -0.356687
      2          6           0       -3.469933   -1.674160    0.336819
      3          6           0       -4.096901   -3.002631   -0.087291
      4          1           0       -5.185233   -0.457040   -0.135636
      5          1           0       -4.015118   -0.590731   -1.444865
      6          1           0       -3.563944   -1.551189    1.423399
      7          1           0       -2.395240   -1.684813    0.114249
      8          1           0       -3.990246   -3.151771   -1.166635
      9          1           0       -5.165591   -3.017388    0.149954
     10          1           0       -3.624931   -3.849545    0.420490
     11          6           0       -3.493102    0.864641    0.057001
     12          6           0       -4.132346    2.068136   -0.636505
     13          6           0       -3.505378    3.396607   -0.212394
     14          1           0       -3.587161    0.984707    1.145180
     15          1           0       -2.417046    0.851016   -0.164049
     16          1           0       -5.207039    2.078789   -0.413934
     17          1           0       -4.038335    1.945164   -1.723085
     18          1           0       -2.436688    3.411363   -0.449639
     19          1           0       -3.612033    3.545747    0.866950
     20          1           0       -3.977348    4.243520   -0.720175
     21          6           0        0.669402   -0.860069    0.876109
     22          6           0        1.362705    0.133707    1.574864
     23          6           0        2.637779    0.532893    1.163300
     24          6           0        3.192019   -0.085627    0.043683
     25          6           0        2.526431   -1.078633   -0.673410
     26          6           0        1.252450   -1.462007   -0.243824
     27          1           0       -0.320682   -1.164025    1.202821
     28          1           0        0.912368    0.602918    2.444969
     29          1           0        3.196719    1.299699    1.685807
     30          1           0        3.001336   -1.528049   -1.537070
     31          1           0        0.716349   -2.234054   -0.788420
     32          7           0        4.541304    0.328604   -0.401560
     33          8           0        5.007650   -0.231776   -1.391072
     34          8           0        5.106980    1.205815    0.247399
 ---------------------------------------------------------------------

 SCF Done:  E(RHF) =  -669.535678826     A.U. after   15 cycles
 E2 =    -0.2091520075D+01 EUMP2 =    -0.67162719890012D+03

 The electronic state is 1-A.
 Alpha  occ. eigenvalues --  -20.60748 -20.60743 -15.85802 -11.31165 -11.27736
 Alpha  occ. eigenvalues --  -11.27728 -11.27422 -11.26747 -11.26730 -11.22799
 Alpha  occ. eigenvalues --  -11.22281 -11.22231 -11.22167 -11.22031 -11.21586
 Alpha  occ. eigenvalues --   -1.59824  -1.39377  -1.19335  -1.09301  -1.08724
 Alpha  occ. eigenvalues --   -1.04738  -1.04362  -0.96772  -0.95562  -0.87793
 Alpha  occ. eigenvalues --   -0.86133  -0.82400  -0.80471  -0.79112  -0.77447
 Alpha  occ. eigenvalues --   -0.72019  -0.71147  -0.70442  -0.65927  -0.64984
 Alpha  occ. eigenvalues --   -0.64739  -0.62089  -0.61753  -0.60173  -0.58396
 Alpha  occ. eigenvalues --   -0.56043  -0.55249  -0.53469  -0.53193  -0.53064
 Alpha  occ. eigenvalues --   -0.52827  -0.50716  -0.48800  -0.48775  -0.48731
 Alpha  occ. eigenvalues --   -0.47503  -0.46627  -0.46540  -0.44783  -0.44610
 Alpha  occ. eigenvalues --   -0.37298  -0.36347
 Alpha virt. eigenvalues --    0.05063   0.11291   0.16468   0.19884   0.22494
 Alpha virt. eigenvalues --    0.23637   0.25381   0.25866   0.27022   0.27434
 Alpha virt. eigenvalues --    0.29244   0.30365   0.30783   0.31235   0.31872

 Mulliken charges:
               1
     1  C   -0.297706
     2  C   -0.304950
     3  C   -0.475870
     4  H    0.153372
     5  H    0.152178
     6  H    0.151928
     7  H    0.143352
     8  H    0.157328
     9  H    0.159769
    10  H    0.160269
    11  C   -0.301502
    12  C   -0.299989
    13  C   -0.476629
    14  H    0.147682
    15  H    0.149528
    16  H    0.153470
    17  H    0.154032
    18  H    0.156714
    19  H    0.154468
    20  H    0.163023
    21  C   -0.175521
    22  C   -0.219625
    23  C   -0.170907
    24  C    0.158315
    25  C   -0.170972
    26  C   -0.221123
    27  H    0.234182
    28  H    0.224092
    29  H    0.275504
    30  H    0.275455
    31  H    0.223063
    32  N    0.488064
    33  O   -0.460559
    34  O   -0.460436
 Sum of Mulliken charges =  -0.00000

 Dipole moment (field-independent basis, Debye):
    X=             -4.9610    Y=             -1.4150    Z=              1.5225  Tot=              5.3789
 Quadrupole moment (field-independent basis, Debye-Ang):
   XX=           -124.6659   YY=            -93.5966   ZZ=            -91.5804
   XY=             -4.4706   XZ=              4.6342   YZ=              2.5210

 Normal termination of Gaussian 16 at Thu May  6 15:25:49 2021.
