 Gaussian 16, Revision A.03,
 Gaussian 16:  EM64L-G16RevA.03 25-Dec-2016

 -------------
 #p 6-31g* mp2
 -------------

 ------------------------------------------------------
 Input file generated by CHIRIPA (05-May-2021 14:51:09)
 ------------------------------------------------------
 Symbolic Z-matrix:
 Charge =  0 Multiplicity = 1

                         Standard orientation:
 ---------------------------------------------------------------------
 Center     Atomic      Atomic             Coordinates (Angstroms)
 Number     Number       Type             X           Y           Z
 ---------------------------------------------------------------------
      1          6           0        3.166427    0.316104   -0.260602
      2          6           0        4.453198    1.138702   -0.186193
      3          6           0        4.798381    1.817506   -1.512039
      4          1           0        3.269523   -0.443786   -1.047294
      5          1           0        2.338076    0.970756   -0.565006
      6          1           0        5.278612    0.482982    0.119322
      7          1           0        4.347099    1.896597    0.600543
      8          1           0        3.994365    2.494116   -1.819214
      9          1           0        4.931171    1.072469   -2.303169
     10          1           0        5.721750    2.400183   -1.436297
     11          6           0        2.808076   -0.368621    1.057148
     12          6           0        1.521304   -1.191219    0.982738
     13          6           0        1.176121   -1.870023    2.308584
     14          1           0        3.636426   -1.023273    1.361551
     15          1           0        2.704980    0.391269    1.843839
     16          1           0        1.627404   -1.949114    0.196002
     17          1           0        0.695891   -0.535499    0.677224
     18          1           0        1.043332   -1.124986    3.099715
     19          1           0        1.980138   -2.546633    2.615759
     20          1           0        0.252752   -2.452700    2.232843
     21          6           0       -2.381386   -0.352200   -0.668694
     22          6           0       -2.703784   -1.782815   -1.101574
     23          6           0       -1.481620   -2.527056   -1.640291
     24          1           0       -1.962977    0.197170   -1.523137
     25          1           0       -1.597524   -0.377251    0.100935
     26          1           0       -3.487784   -1.755150   -1.869164
     27          1           0       -3.121651   -2.328787   -0.246053
     28          1           0       -0.698307   -2.584264   -0.877565
     29          1           0       -1.066519   -2.007369   -2.509898
     30          1           0       -1.734697   -3.547659   -1.943903
     31          6           0       -3.593117    0.404717   -0.127851
     32          6           0       -3.270719    1.835332    0.305029
     33          6           0       -4.492883    2.579573    0.843745
     34          1           0       -4.376979    0.429768   -0.897479
     35          1           0       -4.011526   -0.144653    0.726591
     36          1           0       -2.852851    2.381303   -0.550492
     37          1           0       -2.486719    1.807668    1.072619
     38          1           0       -4.907983    2.059886    1.713353
     39          1           0       -5.276196    2.636781    0.081020
     40          1           0       -4.239806    3.600176    1.147357
 ---------------------------------------------------------------------

 SCF Done:  E(RHF) =  -470.732929287     A.U. after   11 cycles
 E2 =    -0.1583647151D+01 EUMP2 =    -0.47231657643833D+03

 The electronic state is 1-A.
 Alpha  occ. eigenvalues --  -11.21622 -11.21605 -11.21597 -11.21578 -11.21407
 Alpha  occ. eigenvalues --  -11.21395 -11.21345 -11.21330 -11.21135 -11.21085
 Alpha  occ. eigenvalues --  -11.21067 -11.20993  -1.08459  -1.08408  -1.03574
 Alpha  occ. eigenvalues --   -1.03497  -0.96002  -0.95963  -0.87014  -0.86983
 Alpha  occ. eigenvalues --   -0.79711  -0.79513  -0.78368  -0.78120  -0.65147
 Alpha  occ. eigenvalues --   -0.64996  -0.60974  -0.60922  -0.59435  -0.59265
 Alpha  occ. eigenvalues --   -0.57644  -0.57543  -0.55336  -0.55203  -0.52698
 Alpha  occ. eigenvalues --   -0.52659  -0.52424  -0.52398  -0.50012  -0.49847
 Alpha  occ. eigenvalues --   -0.48155  -0.47763  -0.46726  -0.46609  -0.46052
 Alpha  occ. eigenvalues --   -0.45751  -0.45719  -0.45241  -0.43796  -0.43772
 Alpha virt. eigenvalues --    0.20912   0.23150   0.23512   0.24856   0.25548
 Alpha virt. eigenvalues --    0.26259   0.26930   0.27754   0.28167   0.29211
 Alpha virt. eigenvalues --    0.30402   0.31206   0.31507   0.31805   0.32298

 Mulliken charges:
               1
     1  C   -0.298528
     2  C   -0.299666
     3  C   -0.475715
     4  H    0.149933
     5  H    0.150013
     6  H    0.151898
     7  H    0.151887
     8  H    0.155195
     9  H    0.155220
    10  H    0.160223
    11  C   -0.297347
    12  C   -0.309037
    13  C   -0.477086
    14  H    0.149475
    15  H    0.149435
    16  H    0.153766
    17  H    0.159013
    18  H    0.155213
    19  H    0.155924
    20  H    0.160060
    21  C   -0.306036
    22  C   -0.298958
    23  C   -0.481714
    24  H    0.149258
    25  H    0.157245
    26  H    0.151780
    27  H    0.151311
    28  H    0.162671
    29  H    0.154891
    30  H    0.159534
    31  C   -0.297524
    32  C   -0.299621
    33  C   -0.475668
    34  H    0.149616
    35  H    0.149585
    36  H    0.151806
    37  H    0.151170
    38  H    0.155289
    39  H    0.155323
    40  H    0.160168
 Sum of Mulliken charges =  -0.00000

 Dipole moment (field-independent basis, Debye):
    X=              0.0219    Y=              0.0023    Z=              0.0024  Tot=              0.0221
 Quadrupole moment (field-independent basis, Debye-Ang):
   XX=            -85.2802   YY=            -84.7928   ZZ=            -84.8095
   XY=             -0.2573   XZ=              0.6745   YZ=              0.1040

 Normal termination of Gaussian 16 at Thu May  6 02:10:37 2021.
