 Gaussian 16, Revision A.03,
 Gaussian 16:  EM64L-G16RevA.03 25-Dec-2016

 -------------
 #p 6-31g* mp2
 -------------

 ------------------------------------------------------
 Input file generated by CHIRIPA (05-May-2021 14:53:17)
 ------------------------------------------------------
 Symbolic Z-matrix:
 Charge =  0 Multiplicity = 1

                         Standard orientation:
 ---------------------------------------------------------------------
 Center     Atomic      Atomic             Coordinates (Angstroms)
 Number     Number       Type             X           Y           Z
 ---------------------------------------------------------------------
      1          6           0        4.444100    0.414779    0.047996
      2          6           0        5.833373    0.172328    0.638863
      3          6           0        6.590967    1.470336    0.919968
      4          1           0        4.543583    0.991639   -0.881671
      5          1           0        3.861931    1.037400    0.741406
      6          1           0        6.412276   -0.450802   -0.054820
      7          1           0        5.730584   -0.404187    1.567131
      8          1           0        6.037350    2.093543    1.629702
      9          1           0        6.722915    2.046663   -0.001464
     10          1           0        7.581498    1.273725    1.341930
     11          6           0        3.674386   -0.873319   -0.238488
     12          6           0        2.285113   -0.630869   -0.829355
     13          6           0        1.527519   -1.928877   -1.110460
     14          1           0        4.256555   -1.495940   -0.931898
     15          1           0        3.574903   -1.450180    0.691179
     16          1           0        2.387902   -0.054354   -1.757622
     17          1           0        1.706210   -0.007739   -0.135672
     18          1           0        1.395572   -2.505204   -0.189027
     19          1           0        2.081136   -2.552084   -1.820193
     20          1           0        0.536988   -1.732266   -1.532422
     21          6           0       -3.132319   -2.272487    0.669423
     22          6           0       -2.312390   -1.787647   -0.354865
     23          6           0       -2.325748   -0.431184   -0.693067
     24          6           0       -3.175051    0.416130    0.016887
     25          6           0       -4.003691   -0.036654    1.042378
     26          6           0       -3.973869   -1.396987    1.363552
     27          1           0       -3.115548   -3.327723    0.925532
     28          1           0       -1.657828   -2.465262   -0.895634
     29          1           0       -1.701331   -0.029122   -1.481652
     30          1           0       -4.645620    0.663161    1.563536
     31          1           0       -4.611722   -1.770721    2.159487
     32          7           0       -3.197907    1.854204   -0.332138
     33          8           0       -3.955067    2.580145    0.308452
     34          8           0       -2.458227    2.228197   -1.239685
 ---------------------------------------------------------------------

 SCF Done:  E(RHF) =  -669.535127298     A.U. after   15 cycles
 E2 =    -0.2091512335D+01 EUMP2 =    -0.67162663963349D+03

 The electronic state is 1-A.
 Alpha  occ. eigenvalues --  -20.60745 -20.60740 -15.85798 -11.31161 -11.27723
 Alpha  occ. eigenvalues --  -11.27714 -11.27453 -11.26745 -11.26690 -11.22003
 Alpha  occ. eigenvalues --  -11.21850 -11.21708 -11.21673 -11.21503 -11.21110
 Alpha  occ. eigenvalues --   -1.59821  -1.39374  -1.19327  -1.08724  -1.08679
 Alpha  occ. eigenvalues --   -1.04735  -1.03835  -0.96318  -0.95559  -0.87346
 Alpha  occ. eigenvalues --   -0.86123  -0.82396  -0.79899  -0.78455  -0.77445
 Alpha  occ. eigenvalues --   -0.72016  -0.71144  -0.70438  -0.65305  -0.64984
 Alpha  occ. eigenvalues --   -0.64743  -0.62171  -0.61215  -0.59675  -0.57900
 Alpha  occ. eigenvalues --   -0.55593  -0.55227  -0.53226  -0.53015  -0.52749
 Alpha  occ. eigenvalues --   -0.52646  -0.50228  -0.48773  -0.48771  -0.48214
 Alpha  occ. eigenvalues --   -0.46900  -0.46009  -0.45906  -0.44780  -0.44086
 Alpha  occ. eigenvalues --   -0.37307  -0.36315
 Alpha virt. eigenvalues --    0.05074   0.11309   0.16518   0.20332   0.22760
 Alpha virt. eigenvalues --    0.23917   0.26015   0.26446   0.27097   0.28054
 Alpha virt. eigenvalues --    0.28817   0.30245   0.31046   0.31464   0.32371

 Mulliken charges:
               1
     1  C   -0.299030
     2  C   -0.299892
     3  C   -0.475961
     4  H    0.151579
     5  H    0.151828
     6  H    0.151640
     7  H    0.151447
     8  H    0.156283
     9  H    0.156146
    10  H    0.160327
    11  C   -0.299054
    12  C   -0.300731
    13  C   -0.477674
    14  H    0.149606
    15  H    0.149166
    16  H    0.155821
    17  H    0.156287
    18  H    0.154873
    19  H    0.158039
    20  H    0.149711
    21  C   -0.171883
    22  C   -0.218910
    23  C   -0.172559
    24  C    0.158263
    25  C   -0.171321
    26  C   -0.218490
    27  H    0.225588
    28  H    0.227371
    29  H    0.275734
    30  H    0.275411
    31  H    0.223237
    32  N    0.488208
    33  O   -0.460606
    34  O   -0.460455
 Sum of Mulliken charges =  -0.00000

 Dipole moment (field-independent basis, Debye):
    X=              0.2188    Y=             -5.0218    Z=              1.2603  Tot=              5.1822
 Quadrupole moment (field-independent basis, Debye-Ang):
   XX=            -93.3000   YY=           -100.2805   ZZ=            -91.8375
   XY=             15.2218   XZ=             -7.4127   YZ=              0.7894

 Normal termination of Gaussian 16 at Thu May  6 18:57:47 2021.
