 Gaussian 16, Revision A.03,
 Gaussian 16:  EM64L-G16RevA.03 25-Dec-2016

 -------------
 #p 6-31g* mp2
 -------------

 ------------------------------------------------------
 Input file generated by CHIRIPA (05-May-2021 14:53:17)
 ------------------------------------------------------
 Symbolic Z-matrix:
 Charge =  0 Multiplicity = 1

                         Standard orientation:
 ---------------------------------------------------------------------
 Center     Atomic      Atomic             Coordinates (Angstroms)
 Number     Number       Type             X           Y           Z
 ---------------------------------------------------------------------
      1          6           0       -4.537263   -0.528692   -0.044771
      2          6           0       -6.064990   -0.590616   -0.058835
      3          6           0       -6.597555   -1.937046   -0.550053
      4          1           0       -4.159270   -0.726874   -1.057090
      5          1           0       -4.150530   -1.332970    0.596298
      6          1           0       -6.448770    0.214398   -0.698585
      7          1           0       -6.439397   -0.392074    0.953596
      8          1           0       -6.242697   -2.749307    0.092527
      9          1           0       -6.252123   -2.139388   -1.569041
     10          1           0       -7.691792   -1.959402   -0.552052
     11          6           0       -3.989734    0.811124    0.443935
     12          6           0       -2.462006    0.873049    0.457999
     13          6           0       -1.929442    2.219479    0.949217
     14          1           0       -4.376466    1.615403   -0.197134
     15          1           0       -4.367726    1.009306    1.456254
     16          1           0       -2.087599    0.674507   -0.554432
     17          1           0       -2.078226    0.068034    1.097749
     18          1           0       -2.274873    2.421821    1.968205
     19          1           0       -2.284299    3.031740    0.306636
     20          1           0       -0.835204    2.241835    0.951215
     21          6           0        1.861385    1.839165   -0.793150
     22          6           0        1.320139    0.551965   -0.711365
     23          6           0        2.124949   -0.535614   -0.359228
     24          6           0        3.472922   -0.298795   -0.094318
     25          6           0        4.041625    0.971849   -0.167333
     26          6           0        3.218008    2.044637   -0.521352
     27          1           0        1.228884    2.678278   -1.067429
     28          1           0        0.266906    0.389424   -0.921902
     29          1           0        1.731917   -1.542557   -0.288439
     30          1           0        5.095112    1.102591    0.048280
     31          1           0        3.641071    3.043199   -0.584084
     32          7           0        4.334893   -1.442337    0.279469
     33          8           0        5.519442   -1.207284    0.508009
     34          8           0        3.809634   -2.552045    0.336826
 ---------------------------------------------------------------------

 SCF Done:  E(RHF) =  -669.535395865     A.U. after   15 cycles
 E2 =    -0.2092057032D+01 EUMP2 =    -0.67162745289659D+03

 The electronic state is 1-A.
 Alpha  occ. eigenvalues --  -20.60745 -20.60740 -15.85797 -11.31165 -11.27728
 Alpha  occ. eigenvalues --  -11.27710 -11.27456 -11.26745 -11.26683 -11.22652
 Alpha  occ. eigenvalues --  -11.22140 -11.22081 -11.22013 -11.21975 -11.21448
 Alpha  occ. eigenvalues --   -1.59820  -1.39374  -1.19332  -1.09151  -1.08727
 Alpha  occ. eigenvalues --   -1.04734  -1.04245  -0.96673  -0.95561  -0.87688
 Alpha  occ. eigenvalues --   -0.86130  -0.82394  -0.80353  -0.78939  -0.77435
 Alpha  occ. eigenvalues --   -0.72016  -0.71143  -0.70439  -0.65797  -0.64982
 Alpha  occ. eigenvalues --   -0.64755  -0.62143  -0.61605  -0.60035  -0.58272
 Alpha  occ. eigenvalues --   -0.55939  -0.55235  -0.53433  -0.53184  -0.52910
 Alpha  occ. eigenvalues --   -0.52808  -0.50606  -0.48795  -0.48771  -0.48617
 Alpha  occ. eigenvalues --   -0.47374  -0.46470  -0.46371  -0.44779  -0.44489
 Alpha  occ. eigenvalues --   -0.37299  -0.36323
 Alpha virt. eigenvalues --    0.05069   0.11209   0.16534   0.20003   0.22520
 Alpha virt. eigenvalues --    0.23987   0.25292   0.26225   0.26826   0.28142
 Alpha virt. eigenvalues --    0.29031   0.29924   0.30884   0.31460   0.32138

 Mulliken charges:
               1
     1  C   -0.299213
     2  C   -0.300205
     3  C   -0.476200
     4  H    0.148517
     5  H    0.151285
     6  H    0.152315
     7  H    0.153321
     8  H    0.156485
     9  H    0.155436
    10  H    0.161888
    11  C   -0.297540
    12  C   -0.304213
    13  C   -0.482486
    14  H    0.150550
    15  H    0.153207
    16  H    0.142689
    17  H    0.156252
    18  H    0.161623
    19  H    0.154441
    20  H    0.160496
    21  C   -0.174360
    22  C   -0.223096
    23  C   -0.173776
    24  C    0.158910
    25  C   -0.171303
    26  C   -0.218817
    27  H    0.226989
    28  H    0.234774
    29  H    0.276007
    30  H    0.275498
    31  H    0.223424
    32  N    0.488037
    33  O   -0.460537
    34  O   -0.460400
 Sum of Mulliken charges =  -0.00000

 Dipole moment (field-independent basis, Debye):
    X=             -3.2161    Y=              4.0128    Z=             -1.2462  Tot=              5.2914
 Quadrupole moment (field-independent basis, Debye-Ang):
   XX=           -112.5298   YY=            -96.3649   ZZ=            -94.4239
   XY=             17.3991   XZ=             -4.3748   YZ=             -0.3103

 Normal termination of Gaussian 16 at Wed May  5 18:46:42 2021.
