 Gaussian 16, Revision A.03,
 Gaussian 16:  EM64L-G16RevA.03 25-Dec-2016

 -------------
 #p 6-31g* mp2
 -------------

 ------------------------------------------------------
 Input file generated by CHIRIPA (05-May-2021 14:55:20)
 ------------------------------------------------------
 Symbolic Z-matrix:
 Charge =  0 Multiplicity = 1

                         Standard orientation:
 ---------------------------------------------------------------------
 Center     Atomic      Atomic             Coordinates (Angstroms)
 Number     Number       Type             X           Y           Z
 ---------------------------------------------------------------------
      1          6           0       -0.951769   -2.180152    1.439050
      2          6           0       -2.057217   -1.472395    1.922358
      3          6           0       -2.731290   -0.562285    1.102679
      4          6           0       -2.270796   -0.383779   -0.200920
      5          6           0       -1.172478   -1.073921   -0.711502
      6          6           0       -0.513700   -1.979011    0.125978
      7          1           0       -0.434074   -2.885198    2.082710
      8          1           0       -2.399650   -1.626580    2.941677
      9          1           0       -3.589797   -0.001115    1.451207
     10          1           0       -0.854548   -0.898883   -1.732139
     11          1           0        0.344521   -2.527275   -0.252052
     12          7           0       -2.976310    0.577056   -1.078100
     13          8           0       -2.550839    0.716304   -2.222749
     14          8           0       -3.941406    1.172718   -0.604375
     15          6           0        2.150668    1.017772    0.403750
     16          6           0        2.257938    2.539278    0.510990
     17          6           0        1.035793    3.172609    1.176608
     18          1           0        1.246722    0.759450   -0.164665
     19          1           0        2.019170    0.594665    1.409277
     20          1           0        2.390582    2.959280   -0.494306
     21          1           0        3.161836    2.794011    1.079051
     22          1           0        0.903237    2.781306    2.190467
     23          1           0        0.127601    2.947514    0.608170
     24          1           0        1.133538    4.260681    1.242986
     25          6           0        3.364899    0.370098   -0.259493
     26          6           0        3.257629   -1.151408   -0.366732
     27          6           0        4.479774   -1.784739   -1.032350
     28          1           0        3.496397    0.793205   -1.265020
     29          1           0        4.268845    0.628420    0.308922
     30          1           0        2.353731   -1.406142   -0.934794
     31          1           0        3.124985   -1.571410    0.638563
     32          1           0        5.387966   -1.559644   -0.463913
     33          1           0        4.612330   -1.393436   -2.046210
     34          1           0        4.382029   -2.872811   -1.098729
 ---------------------------------------------------------------------

 SCF Done:  E(RHF) =  -669.534799541     A.U. after   15 cycles
 E2 =    -0.2093631823D+01 EUMP2 =    -0.67162843136404D+03

 The electronic state is 1-A.
 Alpha  occ. eigenvalues --  -20.60796 -20.60790 -15.85849 -11.31212 -11.27757
 Alpha  occ. eigenvalues --  -11.27752 -11.27480 -11.26779 -11.26726 -11.22354
 Alpha  occ. eigenvalues --  -11.21791 -11.21674 -11.21671 -11.21543 -11.21042
 Alpha  occ. eigenvalues --   -1.59872  -1.39426  -1.19370  -1.08806  -1.08744
 Alpha  occ. eigenvalues --   -1.04772  -1.03877  -0.96288  -0.95603  -0.87312
 Alpha  occ. eigenvalues --   -0.86167  -0.82444  -0.80005  -0.78580  -0.77470
 Alpha  occ. eigenvalues --   -0.72065  -0.71198  -0.70475  -0.65447  -0.65012
 Alpha  occ. eigenvalues --   -0.64775  -0.62144  -0.61259  -0.59692  -0.57910
 Alpha  occ. eigenvalues --   -0.55564  -0.55265  -0.53195  -0.53028  -0.52858
 Alpha  occ. eigenvalues --   -0.52633  -0.50232  -0.48833  -0.48822  -0.48263
 Alpha  occ. eigenvalues --   -0.47039  -0.46083  -0.46006  -0.44829  -0.44110
 Alpha  occ. eigenvalues --   -0.37334  -0.36284
 Alpha virt. eigenvalues --    0.05011   0.11205   0.16441   0.20418   0.22787
 Alpha virt. eigenvalues --    0.23926   0.25403   0.26397   0.27473   0.28348
 Alpha virt. eigenvalues --    0.28936   0.30139   0.31117   0.31591   0.32097

 Mulliken charges:
               1
     1  C   -0.172548
     2  C   -0.217915
     3  C   -0.171047
     4  C    0.159133
     5  C   -0.174807
     6  C   -0.213718
     7  H    0.225617
     8  H    0.223414
     9  H    0.275652
    10  H    0.274744
    11  H    0.228014
    12  N    0.487829
    13  O   -0.460959
    14  O   -0.460032
    15  C   -0.301062
    16  C   -0.300220
    17  C   -0.475566
    18  H    0.153764
    19  H    0.146812
    20  H    0.154388
    21  H    0.150748
    22  H    0.152602
    23  H    0.158570
    24  H    0.161926
    25  C   -0.298461
    26  C   -0.300730
    27  C   -0.475586
    28  H    0.152292
    29  H    0.151000
    30  H    0.143656
    31  H    0.148216
    32  H    0.158039
    33  H    0.158408
    34  H    0.157824
 Sum of Mulliken charges =  -0.00000

 Dipole moment (field-independent basis, Debye):
    X=              2.5031    Y=             -3.3215    Z=              3.1000  Tot=              5.1872
 Quadrupole moment (field-independent basis, Debye-Ang):
   XX=           -104.8038   YY=            -92.9085   ZZ=            -92.9690
   XY=              6.5680   XZ=             -9.6753   YZ=             -0.1465

 Normal termination of Gaussian 16 at Thu May  6 09:15:44 2021.
