 Gaussian 16, Revision A.03,
 Gaussian 16:  EM64L-G16RevA.03 25-Dec-2016

 -------------
 #p 6-31g* mp2
 -------------

 ------------------------------------------------------
 Input file generated by CHIRIPA (05-May-2021 14:51:11)
 ------------------------------------------------------
 Symbolic Z-matrix:
 Charge =  0 Multiplicity = 1

                         Standard orientation:
 ---------------------------------------------------------------------
 Center     Atomic      Atomic             Coordinates (Angstroms)
 Number     Number       Type             X           Y           Z
 ---------------------------------------------------------------------
      1          6           0        3.357168   -0.567656   -0.226448
      2          6           0        1.955446    0.013847   -0.039329
      3          6           0        0.850202   -0.987945   -0.374950
      4          1           0        3.470842   -0.906869   -1.265177
      5          1           0        3.464307   -1.459106    0.406981
      6          1           0        1.851454    0.904735   -0.671879
      7          1           0        1.845161    0.351891    0.999026
      8          1           0        0.925590   -1.873339    0.264577
      9          1           0        0.931919   -1.317353   -1.415821
     10          1           0       -0.143546   -0.551443   -0.234269
     11          6           0        4.472782    0.421876    0.105155
     12          6           0        5.874504   -0.159627   -0.081965
     13          6           0        6.979748    0.842166    0.253657
     14          1           0        4.365642    1.313326   -0.528274
     15          1           0        4.359108    0.761089    1.143884
     16          1           0        5.984789   -0.497670   -1.120319
     17          1           0        5.978495   -1.050515    0.550586
     18          1           0        6.898031    1.171574    1.294528
     19          1           0        6.904360    1.727560   -0.385870
     20          1           0        7.973496    0.405663    0.112976
     21          6           0       -3.531145   -0.550681    0.278054
     22          6           0       -4.192142   -1.855569   -0.167297
     23          6           0       -3.412503   -3.094201    0.275139
     24          1           0       -2.510686   -0.507275   -0.126573
     25          1           0       -3.433616   -0.552108    1.372532
     26          1           0       -4.289653   -1.851082   -1.260497
     27          1           0       -5.211213   -1.895786    0.238278
     28          1           0       -3.326819   -3.126115    1.366119
     29          1           0       -2.400024   -3.081156   -0.141172
     30          1           0       -3.902714   -4.015816   -0.053770
     31          6           0       -4.298804    0.696461   -0.156761
     32          6           0       -3.637808    2.001349    0.288590
     33          6           0       -4.417446    3.239981   -0.153845
     34          1           0       -4.396334    0.697887   -1.251238
     35          1           0       -5.319264    0.653054    0.247865
     36          1           0       -2.618737    2.041566   -0.116985
     37          1           0       -3.540296    1.996861    1.381791
     38          1           0       -5.429927    3.226935    0.262464
     39          1           0       -4.503131    3.271894   -1.244827
     40          1           0       -3.927236    4.161595    0.175063
 ---------------------------------------------------------------------

 SCF Done:  E(RHF) =  -470.733356332     A.U. after   11 cycles
 E2 =    -0.1582634468D+01 EUMP2 =    -0.47231599079950D+03

 The electronic state is 1-A.
 Alpha  occ. eigenvalues --  -11.21623 -11.21608 -11.21604 -11.21570 -11.21415
 Alpha  occ. eigenvalues --  -11.21387 -11.21356 -11.21324 -11.21088 -11.21076
 Alpha  occ. eigenvalues --  -11.21070 -11.21014  -1.08444  -1.08414  -1.03546
 Alpha  occ. eigenvalues --   -1.03505  -0.96000  -0.95953  -0.87022  -0.86966
 Alpha  occ. eigenvalues --   -0.79629  -0.79553  -0.78262  -0.78225  -0.65071
 Alpha  occ. eigenvalues --   -0.65059  -0.60940  -0.60908  -0.59412  -0.59290
 Alpha  occ. eigenvalues --   -0.57664  -0.57518  -0.55283  -0.55241  -0.52761
 Alpha  occ. eigenvalues --   -0.52638  -0.52466  -0.52309  -0.49939  -0.49890
 Alpha  occ. eigenvalues --   -0.47945  -0.47876  -0.46640  -0.46603  -0.45799
 Alpha  occ. eigenvalues --   -0.45770  -0.45718  -0.45699  -0.43777  -0.43714
 Alpha virt. eigenvalues --    0.21501   0.23016   0.23864   0.24361   0.25779
 Alpha virt. eigenvalues --    0.26630   0.27095   0.27273   0.27914   0.28917
 Alpha virt. eigenvalues --    0.30796   0.31432   0.31693   0.31828   0.32175

 Mulliken charges:
               1
     1  C   -0.298720
     2  C   -0.298864
     3  C   -0.484290
     4  H    0.149592
     5  H    0.149688
     6  H    0.151657
     7  H    0.152408
     8  H    0.155989
     9  H    0.154776
    10  H    0.167394
    11  C   -0.298229
    12  C   -0.299643
    13  C   -0.475709
    14  H    0.149496
    15  H    0.149731
    16  H    0.151930
    17  H    0.151984
    18  H    0.155209
    19  H    0.155175
    20  H    0.160279
    21  C   -0.307557
    22  C   -0.298866
    23  C   -0.477020
    24  H    0.158357
    25  H    0.149277
    26  H    0.151756
    27  H    0.151768
    28  H    0.154816
    29  H    0.157480
    30  H    0.159928
    31  C   -0.297547
    32  C   -0.299888
    33  C   -0.475672
    34  H    0.149417
    35  H    0.149719
    36  H    0.151510
    37  H    0.151957
    38  H    0.155257
    39  H    0.155192
    40  H    0.160264
 Sum of Mulliken charges =  -0.00000

 Dipole moment (field-independent basis, Debye):
    X=              0.0105    Y=             -0.0024    Z=              0.0041  Tot=              0.0115
 Quadrupole moment (field-independent basis, Debye-Ang):
   XX=            -85.5840   YY=            -86.0591   ZZ=            -83.1593
   XY=             -0.1042   XZ=             -0.7520   YZ=             -0.2212

 Normal termination of Gaussian 16 at Wed May  5 23:05:54 2021.
