 Gaussian 16, Revision A.03,
 Gaussian 16:  EM64L-G16RevA.03 25-Dec-2016

 -------------
 #p 6-31g* mp2
 -------------

 ------------------------------------------------------
 Input file generated by CHIRIPA (05-May-2021 14:57:23)
 ------------------------------------------------------
 Symbolic Z-matrix:
 Charge =  0 Multiplicity = 1

                         Standard orientation:
 ---------------------------------------------------------------------
 Center     Atomic      Atomic             Coordinates (Angstroms)
 Number     Number       Type             X           Y           Z
 ---------------------------------------------------------------------
      1          6           0        2.591235    2.287155   -1.090874
      2          6           0        3.447790    1.281549   -1.550863
      3          6           0        3.415386    0.005501   -0.980600
      4          6           0        2.509895   -0.231243    0.052516
      5          6           0        1.643736    0.749800    0.532738
      6          6           0        1.693524    2.018545   -0.052373
      7          1           0        2.623160    3.275584   -1.539635
      8          1           0        4.145989    1.487299   -2.357231
      9          1           0        4.067251   -0.791419   -1.317362
     10          1           0        0.958535    0.514604    1.338095
     11          1           0        1.027133    2.797582    0.306888
     12          7           0        2.466388   -1.578273    0.664087
     13          8           0        1.659533   -1.761437    1.572972
     14          8           0        3.239966   -2.425403    0.222970
     15          6           0       -1.896361    1.520624    1.970870
     16          6           0       -1.705557    0.138995    2.076763
     17          6           0       -2.045882   -0.707979    1.017820
     18          6           0       -2.577073   -0.136879   -0.137590
     19          6           0       -2.779100    1.235717   -0.273441
     20          6           0       -2.431580    2.063619    0.798173
     21          1           0       -1.629193    2.171165    2.798404
     22          1           0       -1.290089   -0.285486    2.986295
     23          1           0       -1.908691   -1.781081    1.073023
     24          1           0       -3.195269    1.629525   -1.192755
     25          1           0       -2.580864    3.136245    0.713127
     26          7           0       -2.941168   -1.023436   -1.265354
     27          8           0       -3.407451   -0.495530   -2.272593
     28          8           0       -2.753370   -2.229440   -1.120700
 ---------------------------------------------------------------------

 SCF Done:  E(RHF) =  -868.337981383     A.U. after   16 cycles
 E2 =    -0.2602765282D+01 EUMP2 =    -0.87094074666418D+03

 The electronic state is 1-A.
 Alpha  occ. eigenvalues --  -20.61039 -20.60982 -20.60868 -20.60839 -15.86058
 Alpha  occ. eigenvalues --  -15.85913 -11.31442 -11.31278 -11.28103 -11.27914
 Alpha  occ. eigenvalues --  -11.27890 -11.27851 -11.27775 -11.27620 -11.27199
 Alpha  occ. eigenvalues --  -11.26961 -11.26872 -11.26845  -1.60074  -1.59929
 Alpha  occ. eigenvalues --   -1.39638  -1.39475  -1.19672  -1.19457  -1.09055
 Alpha  occ. eigenvalues --   -1.08891  -1.05065  -1.04842  -0.95834  -0.95744
 Alpha  occ. eigenvalues --   -0.86478  -0.86246  -0.82653  -0.82566  -0.77712
 Alpha  occ. eigenvalues --   -0.77571  -0.72296  -0.72127  -0.71386  -0.71254
 Alpha  occ. eigenvalues --   -0.70759  -0.70604  -0.65300  -0.65125  -0.65037
 Alpha  occ. eigenvalues --   -0.64878  -0.62356  -0.62245  -0.55599  -0.55424
 Alpha  occ. eigenvalues --   -0.53580  -0.53128  -0.53101  -0.52788  -0.49050
 Alpha  occ. eigenvalues --   -0.49017  -0.48905  -0.48866  -0.45076  -0.44841
 Alpha  occ. eigenvalues --   -0.37733  -0.37470  -0.36618  -0.36421
 Alpha virt. eigenvalues --    0.04710   0.05027   0.10812   0.11198   0.16233
 Alpha virt. eigenvalues --    0.16390   0.20649   0.21797   0.26716   0.27024
 Alpha virt. eigenvalues --    0.28259   0.28614   0.30729   0.31082   0.32166

 Mulliken charges:
               1
     1  C   -0.169968
     2  C   -0.218799
     3  C   -0.168989
     4  C    0.156254
     5  C   -0.171520
     6  C   -0.221306
     7  H    0.224850
     8  H    0.224265
     9  H    0.276548
    10  H    0.279280
    11  H    0.217678
    12  N    0.489427
    13  O   -0.469698
    14  O   -0.456180
    15  C   -0.179554
    16  C   -0.232971
    17  C   -0.163576
    18  C    0.158188
    19  C   -0.169886
    20  C   -0.221863
    21  H    0.225685
    22  H    0.235891
    23  H    0.287501
    24  H    0.275908
    25  H    0.221492
    26  N    0.487796
    27  O   -0.461711
    28  O   -0.454742
 Sum of Mulliken charges =  -0.00000

 Dipole moment (field-independent basis, Debye):
    X=              1.3377    Y=              7.5550    Z=              1.7552  Tot=              7.8707
 Quadrupole moment (field-independent basis, Debye-Ang):
   XX=           -108.3282   YY=           -105.1925   ZZ=           -103.7141
   XY=              1.3858   XZ=            -17.9615   YZ=             -1.8066

 Normal termination of Gaussian 16 at Wed May  5 16:19:44 2021.
