 Gaussian 16, Revision A.03,
 Gaussian 16:  EM64L-G16RevA.03 25-Dec-2016

 -------------
 #p 6-31g* mp2
 -------------

 ------------------------------------------------------
 Input file generated by CHIRIPA (05-May-2021 14:55:19)
 ------------------------------------------------------
 Symbolic Z-matrix:
 Charge =  0 Multiplicity = 1

                         Standard orientation:
 ---------------------------------------------------------------------
 Center     Atomic      Atomic             Coordinates (Angstroms)
 Number     Number       Type             X           Y           Z
 ---------------------------------------------------------------------
      1          6           0       -2.068908    2.341491    0.084583
      2          6           0       -1.771402    1.640036    1.257601
      3          6           0       -1.659589    0.246543    1.242592
      4          6           0       -1.852362   -0.416514    0.031607
      5          6           0       -2.149848    0.254080   -1.153761
      6          6           0       -2.256850    1.647498   -1.115239
      7          1           0       -2.153898    3.423961    0.105375
      8          1           0       -1.624933    2.176374    2.190839
      9          1           0       -1.430216   -0.321457    2.136002
     10          1           0       -2.290474   -0.308233   -2.068882
     11          1           0       -2.487996    2.189642   -2.027761
     12          7           0       -1.736538   -1.891702    0.003272
     13          8           0       -1.910915   -2.452501   -1.076420
     14          8           0       -1.473570   -2.459224    1.061291
     15          6           0        2.673893   -0.417394   -0.358153
     16          6           0        2.339994   -1.677159    0.441528
     17          6           0        2.903841   -2.948005   -0.194728
     18          1           0        2.281019   -0.523672   -1.378593
     19          1           0        3.765201   -0.328971   -0.451008
     20          1           0        1.249679   -1.762437    0.534030
     21          1           0        2.733542   -1.567789    1.460240
     22          1           0        3.994278   -2.888776   -0.272450
     23          1           0        2.501984   -3.084530   -1.203922
     24          1           0        2.653390   -3.836505    0.393237
     25          6           0        2.117024    0.861259    0.265283
     26          6           0        2.450922    2.121024   -0.534397
     27          6           0        1.887075    3.391871    0.101858
     28          1           0        1.025715    0.772837    0.358138
     29          1           0        2.509898    0.967538    1.285724
     30          1           0        2.057375    2.011655   -1.553110
     31          1           0        3.541238    2.206302   -0.626900
     32          1           0        2.288932    3.528394    1.111052
     33          1           0        0.796639    3.332641    0.179580
     34          1           0        2.137526    4.280369   -0.486107
 ---------------------------------------------------------------------

 SCF Done:  E(RHF) =  -669.534794898     A.U. after   15 cycles
 E2 =    -0.2096336969D+01 EUMP2 =    -0.67163113186684D+03

 The electronic state is 1-A.
 Alpha  occ. eigenvalues --  -20.61019 -20.61012 -15.86030 -11.31384 -11.27959
 Alpha  occ. eigenvalues --  -11.27916 -11.27686 -11.26969 -11.26934 -11.21676
 Alpha  occ. eigenvalues --  -11.21347 -11.21187 -11.21072 -11.21002 -11.20378
 Alpha  occ. eigenvalues --   -1.60077  -1.39630  -1.19578  -1.08969  -1.08220
 Alpha  occ. eigenvalues --   -1.04961  -1.03298  -0.95839  -0.95728  -0.86794
 Alpha  occ. eigenvalues --   -0.86353  -0.82624  -0.79406  -0.78018  -0.77667
 Alpha  occ. eigenvalues --   -0.72260  -0.71416  -0.70664  -0.65216  -0.64945
 Alpha  occ. eigenvalues --   -0.64875  -0.62293  -0.60720  -0.59174  -0.57356
 Alpha  occ. eigenvalues --   -0.55466  -0.55087  -0.53378  -0.53035  -0.52449
 Alpha  occ. eigenvalues --   -0.52205  -0.49749  -0.49029  -0.49021  -0.47692
 Alpha  occ. eigenvalues --   -0.46446  -0.45639  -0.45519  -0.44722  -0.43536
 Alpha  occ. eigenvalues --   -0.37508  -0.36484
 Alpha virt. eigenvalues --    0.04803   0.11007   0.16205   0.21040   0.23028
 Alpha virt. eigenvalues --    0.24442   0.26681   0.26976   0.27454   0.27841
 Alpha virt. eigenvalues --    0.28692   0.30894   0.31513   0.31696   0.32339

 Mulliken charges:
               1
     1  C   -0.170818
     2  C   -0.214718
     3  C   -0.176345
     4  C    0.160006
     5  C   -0.171658
     6  C   -0.218330
     7  H    0.227868
     8  H    0.225813
     9  H    0.277144
    10  H    0.276312
    11  H    0.224827
    12  N    0.487841
    13  O   -0.457840
    14  O   -0.457017
    15  C   -0.298365
    16  C   -0.304562
    17  C   -0.474835
    18  H    0.148580
    19  H    0.147966
    20  H    0.158364
    21  H    0.149030
    22  H    0.150516
    23  H    0.157457
    24  H    0.165660
    25  C   -0.306617
    26  C   -0.296606
    27  C   -0.479537
    28  H    0.158329
    29  H    0.146046
    30  H    0.150203
    31  H    0.152338
    32  H    0.153809
    33  H    0.150966
    34  H    0.158173
 Sum of Mulliken charges =  -0.00000

 Dipole moment (field-independent basis, Debye):
    X=             -0.6646    Y=              5.0357    Z=              0.1116  Tot=              5.0805
 Quadrupole moment (field-independent basis, Debye-Ang):
   XX=            -93.4913   YY=           -100.7911   ZZ=            -89.7204
   XY=             -9.4761   XZ=              1.4985   YZ=             -0.1691

 Normal termination of Gaussian 16 at Wed May  5 23:44:08 2021.
