 Gaussian 16, Revision A.03,
 Gaussian 16:  EM64L-G16RevA.03 25-Dec-2016

 -------------
 #p 6-31g* mp2
 -------------

 ------------------------------------------------------
 Input file generated by CHIRIPA (05-May-2021 14:55:23)
 ------------------------------------------------------
 Symbolic Z-matrix:
 Charge =  0 Multiplicity = 1

                         Standard orientation:
 ---------------------------------------------------------------------
 Center     Atomic      Atomic             Coordinates (Angstroms)
 Number     Number       Type             X           Y           Z
 ---------------------------------------------------------------------
      1          6           0       -1.913281    1.764542    0.479242
      2          6           0       -1.858989    0.424949    0.878073
      3          6           0       -2.940863   -0.429481    0.645593
      4          6           0       -4.066333    0.091376    0.008950
      5          6           0       -4.150681    1.421303   -0.400281
      6          6           0       -3.056937    2.257574   -0.157540
      7          1           0       -1.068245    2.421230    0.663823
      8          1           0       -0.972104    0.039313    1.372809
      9          1           0       -2.925530   -1.470733    0.943885
     10          1           0       -5.048400    1.776841   -0.891313
     11          1           0       -3.101899    3.297480   -0.468374
     12          7           0       -5.217947   -0.803559   -0.242598
     13          8           0       -6.197982   -0.320297   -0.805294
     14          8           0       -5.118741   -1.971324    0.127698
     15          6           0        5.524836    0.188773    0.083953
     16          6           0        6.885966   -0.265274   -0.444395
     17          6           0        8.001877    0.734544   -0.139604
     18          1           0        5.275038    1.164341   -0.355153
     19          1           0        5.593669    0.343104    1.169697
     20          1           0        6.814222   -0.420036   -1.528608
     21          1           0        7.132465   -1.239963   -0.004127
     22          1           0        8.102423    0.882175    0.940533
     23          1           0        7.782371    1.706762   -0.592609
     24          1           0        8.966139    0.390104   -0.526153
     25          6           0        4.399088   -0.800287   -0.212997
     26          6           0        3.037959   -0.346239    0.315351
     27          6           0        1.922047   -1.346058    0.010560
     28          1           0        4.330254   -0.954617   -1.298741
     29          1           0        4.648885   -1.775854    0.226108
     30          1           0        2.791459    0.628450   -0.124916
     31          1           0        3.109703   -0.191477    1.399564
     32          1           0        2.141553   -2.318274    0.463564
     33          1           0        1.821501   -1.493688   -1.069578
     34          1           0        0.957786   -1.001617    0.397110
 ---------------------------------------------------------------------

 SCF Done:  E(RHF) =  -669.535411163     A.U. after   15 cycles
 E2 =    -0.2090859857D+01 EUMP2 =    -0.67162627102042D+03

 The electronic state is 1-A.
 Alpha  occ. eigenvalues --  -20.60752 -20.60747 -15.85806 -11.31179 -11.27758
 Alpha  occ. eigenvalues --  -11.27752 -11.27502 -11.26769 -11.26754 -11.22374
 Alpha  occ. eigenvalues --  -11.22014 -11.21971 -11.21892 -11.21871 -11.21432
 Alpha  occ. eigenvalues --   -1.59828  -1.39381  -1.19358  -1.09000  -1.08750
 Alpha  occ. eigenvalues --   -1.04765  -1.04116  -0.96562  -0.95582  -0.87581
 Alpha  occ. eigenvalues --   -0.86160  -0.82416  -0.80185  -0.78794  -0.77463
 Alpha  occ. eigenvalues --   -0.72025  -0.71151  -0.70463  -0.65623  -0.65010
 Alpha  occ. eigenvalues --   -0.64804  -0.62152  -0.61501  -0.59945  -0.58175
 Alpha  occ. eigenvalues --   -0.55825  -0.55266  -0.53411  -0.53077  -0.53035
 Alpha  occ. eigenvalues --   -0.52665  -0.50483  -0.48788  -0.48778  -0.48493
 Alpha  occ. eigenvalues --   -0.47210  -0.46339  -0.46248  -0.44785  -0.44368
 Alpha  occ. eigenvalues --   -0.37334  -0.36357
 Alpha virt. eigenvalues --    0.05075   0.11208   0.16508   0.20214   0.22496
 Alpha virt. eigenvalues --    0.23801   0.25972   0.26106   0.26946   0.28167
 Alpha virt. eigenvalues --    0.28552   0.30043   0.30885   0.31487   0.32167

 Mulliken charges:
               1
     1  C   -0.171666
     2  C   -0.220102
     3  C   -0.171676
     4  C    0.158441
     5  C   -0.170670
     6  C   -0.218697
     7  H    0.225952
     8  H    0.227456
     9  H    0.275973
    10  H    0.275651
    11  H    0.223391
    12  N    0.488116
    13  O   -0.460535
    14  O   -0.460280
    15  C   -0.298558
    16  C   -0.300123
    17  C   -0.475968
    18  H    0.149111
    19  H    0.149559
    20  H    0.152859
    21  H    0.152958
    22  H    0.155389
    23  H    0.155140
    24  H    0.161683
    25  C   -0.298681
    26  C   -0.300238
    27  C   -0.478341
    28  H    0.151524
    29  H    0.151605
    30  H    0.149460
    31  H    0.150626
    32  H    0.158772
    33  H    0.160583
    34  H    0.151291
 Sum of Mulliken charges =  -0.00000

 Dipole moment (field-independent basis, Debye):
    X=              4.1963    Y=              3.1292    Z=              0.8389  Tot=              5.3014
 Quadrupole moment (field-independent basis, Debye-Ang):
   XX=           -127.2137   YY=            -91.6443   ZZ=            -93.7911
   XY=            -15.5083   XZ=             -2.4229   YZ=             -2.2673

 Normal termination of Gaussian 16 at Thu May  6 15:57:39 2021.
