 Gaussian 16, Revision A.03,
 Gaussian 16:  EM64L-G16RevA.03 25-Dec-2016

 -------------
 #p 6-31g* mp2
 -------------

 ------------------------------------------------------
 Input file generated by CHIRIPA (05-May-2021 14:57:26)
 ------------------------------------------------------
 Symbolic Z-matrix:
 Charge =  0 Multiplicity = 1

                         Standard orientation:
 ---------------------------------------------------------------------
 Center     Atomic      Atomic             Coordinates (Angstroms)
 Number     Number       Type             X           Y           Z
 ---------------------------------------------------------------------
      1          6           0        4.366911    0.715662   -1.924676
      2          6           0        3.291704   -0.169956   -2.051680
      3          6           0        2.627958   -0.648105   -0.917941
      4          6           0        3.067832   -0.217981    0.332976
      5          6           0        4.135883    0.663613    0.492192
      6          6           0        4.784832    1.128892   -0.655383
      7          1           0        4.876778    1.082101   -2.810766
      8          1           0        2.964968   -0.492579   -3.036162
      9          1           0        1.792741   -1.334401   -0.987429
     10          1           0        4.438698    0.967273    1.486933
     11          1           0        5.619556    1.816603   -0.553728
     12          7           0        2.372986   -0.717363    1.540538
     13          8           0        2.779841   -0.323272    2.631317
     14          8           0        1.434668   -1.493414    1.373382
     15          6           0       -3.143504   -2.345136   -0.592198
     16          6           0       -4.365137   -1.674837   -0.470398
     17          6           0       -4.398659   -0.300434   -0.216546
     18          6           0       -3.186106    0.375512   -0.089654
     19          6           0       -1.952952   -0.264128   -0.205770
     20          6           0       -1.943426   -1.638887   -0.459729
     21          1           0       -3.126784   -3.412943   -0.789439
     22          1           0       -5.298694   -2.220757   -0.572805
     23          1           0       -5.330278    0.243367   -0.117632
     24          1           0       -1.038792    0.307074   -0.098726
     25          1           0       -0.993210   -2.156842   -0.553837
     26          7           0       -3.208893    1.830719    0.179144
     27          8           0       -2.126738    2.403432    0.286748
     28          8           0       -4.308477    2.371044    0.277136
 ---------------------------------------------------------------------

 SCF Done:  E(RHF) =  -868.338752398     A.U. after   16 cycles
 E2 =    -0.2599752795D+01 EUMP2 =    -0.87093850519339D+03

 The electronic state is 1-A.
 Alpha  occ. eigenvalues --  -20.61408 -20.61338 -20.60362 -20.60357 -15.86405
 Alpha  occ. eigenvalues --  -15.85411 -11.31658 -11.30677 -11.28297 -11.28130
 Alpha  occ. eigenvalues --  -11.27865 -11.27263 -11.27208 -11.27193 -11.27126
 Alpha  occ. eigenvalues --  -11.26975 -11.26278 -11.26175  -1.60426  -1.59437
 Alpha  occ. eigenvalues --   -1.39993  -1.38994  -1.19797  -1.18841  -1.09203
 Alpha  occ. eigenvalues --   -1.08262  -1.05188  -1.04220  -0.96068  -0.95112
 Alpha  occ. eigenvalues --   -0.86594  -0.85634  -0.82914  -0.81939  -0.78000
 Alpha  occ. eigenvalues --   -0.76991  -0.72630  -0.71737  -0.71631  -0.70909
 Alpha  occ. eigenvalues --   -0.70755  -0.69965  -0.65457  -0.65193  -0.64494
 Alpha  occ. eigenvalues --   -0.64226  -0.62569  -0.61555  -0.55669  -0.54755
 Alpha  occ. eigenvalues --   -0.53503  -0.53285  -0.52562  -0.52314  -0.49403
 Alpha  occ. eigenvalues --   -0.49351  -0.48393  -0.48383  -0.45414  -0.44421
 Alpha  occ. eigenvalues --   -0.37740  -0.36832  -0.36777  -0.35803
 Alpha virt. eigenvalues --    0.04535   0.05528   0.10824   0.11835   0.16070
 Alpha virt. eigenvalues --    0.17034   0.19637   0.22055   0.25026   0.27344
 Alpha virt. eigenvalues --    0.28664   0.28883   0.30332   0.31316   0.32618

 Mulliken charges:
               1
     1  C   -0.169523
     2  C   -0.217548
     3  C   -0.173799
     4  C    0.159767
     5  C   -0.168703
     6  C   -0.217332
     7  H    0.228011
     8  H    0.224280
     9  H    0.267819
    10  H    0.278008
    11  H    0.226294
    12  N    0.490333
    13  O   -0.452575
    14  O   -0.472219
    15  C   -0.171605
    16  C   -0.218639
    17  C   -0.171766
    18  C    0.157994
    19  C   -0.167881
    20  C   -0.218096
    21  H    0.224273
    22  H    0.221439
    23  H    0.273823
    24  H    0.273440
    25  H    0.229456
    26  N    0.488341
    27  O   -0.461455
    28  O   -0.462137
 Sum of Mulliken charges =  -0.00000

 Dipole moment (field-independent basis, Debye):
    X=              2.9186    Y=             -3.2740    Z=             -5.1119  Tot=              6.7356
 Quadrupole moment (field-independent basis, Debye-Ang):
   XX=            -83.0931   YY=           -109.3842   ZZ=           -106.7913
   XY=             24.0304   XZ=             -7.4219   YZ=              3.3249

 Normal termination of Gaussian 16 at Fri May  7 02:02:37 2021.
