 Gaussian 16, Revision A.03,
 Gaussian 16:  EM64L-G16RevA.03 25-Dec-2016

 -------------
 #p 6-31g* mp2
 -------------

 ------------------------------------------------------
 Input file generated by CHIRIPA (05-May-2021 14:53:12)
 ------------------------------------------------------
 Symbolic Z-matrix:
 Charge =  0 Multiplicity = 1

                         Standard orientation:
 ---------------------------------------------------------------------
 Center     Atomic      Atomic             Coordinates (Angstroms)
 Number     Number       Type             X           Y           Z
 ---------------------------------------------------------------------
      1          6           0        3.641818   -0.421400   -0.231624
      2          6           0        3.260045   -1.806656    0.291160
      3          6           0        1.816653   -2.186581   -0.040606
      4          1           0        2.957547    0.325445    0.193746
      5          1           0        3.495716   -0.394953   -1.320361
      6          1           0        3.408140   -1.830914    1.378402
      7          1           0        3.945425   -2.550267   -0.135354
      8          1           0        1.658549   -2.190277   -1.123930
      9          1           0        1.118212   -1.466837    0.398427
     10          1           0        1.564964   -3.180482    0.342373
     11          6           0        5.081809   -0.027345    0.092220
     12          6           0        5.463581    1.357910   -0.430563
     13          6           0        6.906974    1.737836   -0.098797
     14          1           0        5.227910   -0.053792    1.180958
     15          1           0        5.766080   -0.774191   -0.333150
     16          1           0        4.778202    2.101522   -0.004050
     17          1           0        5.315487    1.382169   -1.517806
     18          1           0        7.605415    1.018092   -0.537830
     19          1           0        7.065077    1.741532    0.984526
     20          1           0        7.158662    2.731737   -0.481777
     21          6           0       -2.849737   -2.285244    0.034384
     22          6           0       -3.995263   -1.821855   -0.621024
     23          6           0       -4.314221   -0.460682   -0.616454
     24          6           0       -3.461605    0.413166    0.056395
     25          6           0       -2.313116   -0.017818    0.718600
     26          6           0       -2.013793   -1.383337    0.700929
     27          1           0       -2.609588   -3.344324    0.025745
     28          1           0       -4.646294   -2.520000   -1.139482
     29          1           0       -5.194720   -0.074852   -1.115726
     30          1           0       -1.683378    0.702242    1.226893
     31          1           0       -1.123498   -1.740371    1.210779
     32          7           0       -3.788879    1.856480    0.068168
     33          8           0       -3.021477    2.605982    0.668150
     34          8           0       -4.806601    2.210917   -0.522810
 ---------------------------------------------------------------------

 SCF Done:  E(RHF) =  -669.535346357     A.U. after   15 cycles
 E2 =    -0.2091038785D+01 EUMP2 =    -0.67162638514187D+03

 The electronic state is 1-A.
 Alpha  occ. eigenvalues --  -20.60735 -20.60730 -15.85788 -11.31145 -11.27712
 Alpha  occ. eigenvalues --  -11.27706 -11.27439 -11.26727 -11.26675 -11.22209
 Alpha  occ. eigenvalues --  -11.21953 -11.21811 -11.21789 -11.21668 -11.21212
 Alpha  occ. eigenvalues --   -1.59811  -1.39364  -1.19313  -1.08830  -1.08706
 Alpha  occ. eigenvalues --   -1.04718  -1.03966  -0.96439  -0.95545  -0.87470
 Alpha  occ. eigenvalues --   -0.86107  -0.82382  -0.80040  -0.78603  -0.77429
 Alpha  occ. eigenvalues --   -0.72006  -0.71133  -0.70419  -0.65473  -0.64964
 Alpha  occ. eigenvalues --   -0.64729  -0.62113  -0.61332  -0.59827  -0.58021
 Alpha  occ. eigenvalues --   -0.55756  -0.55199  -0.53229  -0.53057  -0.52925
 Alpha  occ. eigenvalues --   -0.52648  -0.50357  -0.48765  -0.48762  -0.48338
 Alpha  occ. eigenvalues --   -0.47050  -0.46153  -0.46054  -0.44772  -0.44210
 Alpha  occ. eigenvalues --   -0.37285  -0.36304
 Alpha virt. eigenvalues --    0.05095   0.11299   0.16529   0.20673   0.22616
 Alpha virt. eigenvalues --    0.23922   0.25858   0.26527   0.27177   0.28159
 Alpha virt. eigenvalues --    0.28797   0.30433   0.31143   0.31471   0.32231

 Mulliken charges:
               1
     1  C   -0.298855
     2  C   -0.299669
     3  C   -0.478966
     4  H    0.150226
     5  H    0.151277
     6  H    0.152161
     7  H    0.154192
     8  H    0.160119
     9  H    0.149837
    10  H    0.156064
    11  C   -0.298717
    12  C   -0.300269
    13  C   -0.476001
    14  H    0.149775
    15  H    0.149984
    16  H    0.153702
    17  H    0.152743
    18  H    0.155044
    19  H    0.155407
    20  H    0.161768
    21  C   -0.171958
    22  C   -0.218566
    23  C   -0.171103
    24  C    0.158655
    25  C   -0.172519
    26  C   -0.218208
    27  H    0.225772
    28  H    0.223195
    29  H    0.275412
    30  H    0.274722
    31  H    0.227895
    32  N    0.488123
    33  O   -0.460683
    34  O   -0.460560
 Sum of Mulliken charges =  -0.00000

 Dipole moment (field-independent basis, Debye):
    X=              1.2907    Y=             -5.0776    Z=             -0.0953  Tot=              5.2399
 Quadrupole moment (field-independent basis, Debye-Ang):
   XX=           -100.1026   YY=            -99.4683   ZZ=            -93.1500
   XY=             18.6843   XZ=              2.2950   YZ=              0.6636

 Normal termination of Gaussian 16 at Thu May  6 02:32:01 2021.
