 Gaussian 16, Revision A.03,
 Gaussian 16:  EM64L-G16RevA.03 25-Dec-2016

 -------------
 #p 6-31g* mp2
 -------------

 ------------------------------------------------------
 Input file generated by CHIRIPA (05-May-2021 14:53:17)
 ------------------------------------------------------
 Symbolic Z-matrix:
 Charge =  0 Multiplicity = 1

                         Standard orientation:
 ---------------------------------------------------------------------
 Center     Atomic      Atomic             Coordinates (Angstroms)
 Number     Number       Type             X           Y           Z
 ---------------------------------------------------------------------
      1          6           0        2.527998   -0.060129   -0.785650
      2          6           0        3.118434   -1.283082   -0.082971
      3          6           0        3.182007   -2.512514   -0.989750
      4          1           0        1.519384   -0.303906   -1.146506
      5          1           0        3.131049    0.169810   -1.674949
      6          1           0        2.515262   -1.509810    0.805507
      7          1           0        4.125684   -1.036304    0.276421
      8          1           0        3.800475   -2.310251   -1.870198
      9          1           0        2.180903   -2.786447   -1.338106
     10          1           0        3.607270   -3.375121   -0.467332
     11          6           0        2.457865    1.176906    0.107969
     12          6           0        1.867429    2.399858   -0.594710
     13          6           0        1.803856    3.629290    0.312069
     14          1           0        1.854814    0.946966    0.997267
     15          1           0        3.466479    1.420683    0.468824
     16          1           0        0.860179    2.153080   -0.954103
     17          1           0        2.470601    2.626586   -1.483189
     18          1           0        2.804960    3.903223    0.660424
     19          1           0        1.185388    3.427027    1.192516
     20          1           0        1.378593    4.491897   -0.210350
     21          6           0       -3.736330    0.782919   -1.031440
     22          6           0       -3.122731    1.399231    0.064087
     23          6           0       -2.130461    0.733171    0.789562
     24          6           0       -1.774675   -0.554105    0.390027
     25          6           0       -2.367459   -1.194854   -0.696866
     26          6           0       -3.357404   -0.509877   -1.407756
     27          1           0       -4.506245    1.307679   -1.589340
     28          1           0       -3.414998    2.403162    0.358614
     29          1           0       -1.639057    1.186737    1.641746
     30          1           0       -2.054918   -2.196372   -0.966491
     31          1           0       -3.832216   -0.990981   -2.258131
     32          7           0       -0.725435   -1.269246    1.150334
     33          8           0       -0.429881   -2.402704    0.778103
     34          8           0       -0.218462   -0.682774    2.104099
 ---------------------------------------------------------------------

 SCF Done:  E(RHF) =  -669.537190269     A.U. after   15 cycles
 E2 =    -0.2094197660D+01 EUMP2 =    -0.67163138792878D+03

 The electronic state is 1-A.
 Alpha  occ. eigenvalues --  -20.61199 -20.61191 -15.86170 -11.31427 -11.27972
 Alpha  occ. eigenvalues --  -11.27962 -11.27680 -11.26952 -11.26942 -11.21197
 Alpha  occ. eigenvalues --  -11.20866 -11.20597 -11.20514 -11.20311 -11.19940
 Alpha  occ. eigenvalues --   -1.60221  -1.39781  -1.19575  -1.08993  -1.07649
 Alpha  occ. eigenvalues --   -1.04955  -1.02756  -0.95848  -0.95238  -0.86360
 Alpha  occ. eigenvalues --   -0.86270  -0.82685  -0.78848  -0.77751  -0.77398
 Alpha  occ. eigenvalues --   -0.72392  -0.71561  -0.70678  -0.65230  -0.64954
 Alpha  occ. eigenvalues --   -0.64243  -0.62302  -0.60146  -0.58657  -0.56822
 Alpha  occ. eigenvalues --   -0.55460  -0.54536  -0.53288  -0.53042  -0.51964
 Alpha  occ. eigenvalues --   -0.51670  -0.49279  -0.49171  -0.49116  -0.47168
 Alpha  occ. eigenvalues --   -0.45925  -0.45333  -0.44981  -0.44489  -0.43005
 Alpha  occ. eigenvalues --   -0.37533  -0.36543
 Alpha virt. eigenvalues --    0.04692   0.11067   0.16149   0.20979   0.23160
 Alpha virt. eigenvalues --    0.24785   0.26807   0.27178   0.27741   0.28731
 Alpha virt. eigenvalues --    0.28999   0.31017   0.31345   0.32278   0.32810

 Mulliken charges:
               1
     1  C   -0.297565
     2  C   -0.306474
     3  C   -0.474013
     4  H    0.140840
     5  H    0.145228
     6  H    0.176060
     7  H    0.146408
     8  H    0.146832
     9  H    0.158188
    10  H    0.159828
    11  C   -0.309091
    12  C   -0.299288
    13  C   -0.474536
    14  H    0.167302
    15  H    0.147952
    16  H    0.146574
    17  H    0.150072
    18  H    0.156863
    19  H    0.151914
    20  H    0.155583
    21  C   -0.170151
    22  C   -0.218601
    23  C   -0.170784
    24  C    0.159150
    25  C   -0.171113
    26  C   -0.218335
    27  H    0.226692
    28  H    0.224831
    29  H    0.276270
    30  H    0.276210
    31  H    0.224484
    32  N    0.489349
    33  O   -0.457963
    34  O   -0.458715
 Sum of Mulliken charges =  -0.00000

 Dipole moment (field-independent basis, Debye):
    X=             -3.9440    Y=              2.3374    Z=             -2.4655  Tot=              5.2055
 Quadrupole moment (field-independent basis, Debye-Ang):
   XX=            -81.6085   YY=            -95.9109   ZZ=            -95.7830
   XY=             -1.8541   XZ=              4.2005   YZ=              4.5339

 Normal termination of Gaussian 16 at Thu May  6 10:42:09 2021.
