 Gaussian 16, Revision A.03,
 Gaussian 16:  EM64L-G16RevA.03 25-Dec-2016

 -------------
 #p 6-31g* mp2
 -------------

 ------------------------------------------------------
 Input file generated by CHIRIPA (05-May-2021 14:57:23)
 ------------------------------------------------------
 Symbolic Z-matrix:
 Charge =  0 Multiplicity = 1

                         Standard orientation:
 ---------------------------------------------------------------------
 Center     Atomic      Atomic             Coordinates (Angstroms)
 Number     Number       Type             X           Y           Z
 ---------------------------------------------------------------------
      1          6           0        3.344463    2.406615    0.636247
      2          6           0        4.351006    2.019333   -0.254485
      3          6           0        4.462942    0.687228   -0.663770
      4          6           0        3.547278   -0.235475   -0.160316
      5          6           0        2.533541    0.119420    0.728322
      6          6           0        2.440536    1.457097    1.123948
      7          1           0        3.264861    3.443591    0.948884
      8          1           0        5.054401    2.754585   -0.634863
      9          1           0        5.232563    0.360087   -1.352305
     10          1           0        1.847039   -0.636247    1.090401
     11          1           0        1.657834    1.755001    1.815811
     12          7           0        3.655759   -1.648664   -0.586377
     13          8           0        2.836666   -2.442376   -0.128396
     14          8           0        4.557824   -1.935852   -1.370238
     15          6           0       -1.858713   -0.468395    1.921196
     16          6           0       -1.509031    0.361808    0.851145
     17          6           0       -2.426676    0.629691   -0.169009
     18          6           0       -3.690915    0.048096   -0.086928
     19          6           0       -4.069180   -0.783253    0.966194
     20          6           0       -3.135420   -1.037272    1.975209
     21          1           0       -1.139605   -0.671108    2.709350
     22          1           0       -0.518244    0.804976    0.806584
     23          1           0       -2.182322    1.268704   -1.008874
     24          1           0       -5.064426   -1.210592    0.983069
     25          1           0       -3.409748   -1.682407    2.805023
     26          7           0       -4.670915    0.324353   -1.161025
     27          8           0       -5.778311   -0.200219   -1.065455
     28          8           0       -4.313085    1.060225   -2.078133
 ---------------------------------------------------------------------

 SCF Done:  E(RHF) =  -868.336587497     A.U. after   16 cycles
 E2 =    -0.2600751228D+01 EUMP2 =    -0.87093733872488D+03

 The electronic state is 1-A.
 Alpha  occ. eigenvalues --  -20.61399 -20.61388 -20.60915 -20.60908 -15.86460
 Alpha  occ. eigenvalues --  -15.85971 -11.31995 -11.31415 -11.28693 -11.28548
 Alpha  occ. eigenvalues --  -11.28347 -11.28025 -11.27978 -11.27831 -11.27739
 Alpha  occ. eigenvalues --  -11.27551 -11.27102 -11.27011  -1.60468  -1.59987
 Alpha  occ. eigenvalues --   -1.40018  -1.39539  -1.20200  -1.19608  -1.09543
 Alpha  occ. eigenvalues --   -1.09007  -1.05658  -1.05024  -0.96351  -0.95821
 Alpha  occ. eigenvalues --   -0.87018  -0.86449  -0.83209  -0.82647  -0.78245
 Alpha  occ. eigenvalues --   -0.77660  -0.72673  -0.72192  -0.71795  -0.71309
 Alpha  occ. eigenvalues --   -0.71283  -0.70751  -0.65875  -0.65673  -0.65277
 Alpha  occ. eigenvalues --   -0.65081  -0.63035  -0.62298  -0.56089  -0.55582
 Alpha  occ. eigenvalues --   -0.53969  -0.53760  -0.53327  -0.53081  -0.49445
 Alpha  occ. eigenvalues --   -0.49418  -0.48956  -0.48938  -0.45386  -0.44926
 Alpha  occ. eigenvalues --   -0.38150  -0.37614  -0.37248  -0.36608
 Alpha virt. eigenvalues --    0.04298   0.04871   0.10331   0.11012   0.15550
 Alpha virt. eigenvalues --    0.16327   0.18766   0.22071   0.25193   0.26975
 Alpha virt. eigenvalues --    0.27658   0.29468   0.29808   0.31264   0.32328

 Mulliken charges:
               1
     1  C   -0.170237
     2  C   -0.218234
     3  C   -0.168747
     4  C    0.158875
     5  C   -0.171469
     6  C   -0.224534
     7  H    0.228937
     8  H    0.227349
     9  H    0.279088
    10  H    0.272559
    11  H    0.218598
    12  N    0.488189
    13  O   -0.459955
    14  O   -0.457089
    15  C   -0.171765
    16  C   -0.223519
    17  C   -0.171056
    18  C    0.159475
    19  C   -0.169966
    20  C   -0.217306
    21  H    0.221974
    22  H    0.220718
    23  H    0.276771
    24  H    0.277121
    25  H    0.225335
    26  N    0.488082
    27  O   -0.459247
    28  O   -0.459949
 Sum of Mulliken charges =  -0.00000

 Dipole moment (field-independent basis, Debye):
    X=              3.2257    Y=              3.9776    Z=              5.1298  Tot=              7.2485
 Quadrupole moment (field-independent basis, Debye-Ang):
   XX=           -126.3573   YY=           -106.1536   ZZ=           -104.4325
   XY=             25.4345   XZ=            -13.6725   YZ=             -3.3434

 Normal termination of Gaussian 16 at Thu May  6 12:59:37 2021.
