 Gaussian 16, Revision A.03,
 Gaussian 16:  EM64L-G16RevA.03 25-Dec-2016

 -------------
 #p 6-31g* mp2
 -------------

 ------------------------------------------------------
 Input file generated by CHIRIPA (05-May-2021 14:51:13)
 ------------------------------------------------------
 Symbolic Z-matrix:
 Charge =  0 Multiplicity = 1

                         Standard orientation:
 ---------------------------------------------------------------------
 Center     Atomic      Atomic             Coordinates (Angstroms)
 Number     Number       Type             X           Y           Z
 ---------------------------------------------------------------------
      1          6           0        3.243801    0.986778    0.470179
      2          6           0        2.696304    2.048590   -0.484172
      3          6           0        2.287025    3.334661    0.234373
      4          1           0        2.483372    0.758196    1.229418
      5          1           0        4.108881    1.398460    1.008276
      6          1           0        1.833362    1.634559   -1.021316
      7          1           0        3.458053    2.274532   -1.241341
      8          1           0        3.143492    3.773638    0.756259
      9          1           0        1.509569    3.130029    0.977534
     10          1           0        1.898507    4.079978   -0.466638
     11          6           0        3.657252   -0.304701   -0.233288
     12          6           0        4.204748   -1.366513    0.721063
     13          6           0        4.614028   -2.652584    0.002518
     14          1           0        2.792172   -0.716383   -0.771385
     15          1           0        4.417681   -0.076119   -0.992527
     16          1           0        3.442999   -1.592455    1.478232
     17          1           0        5.067691   -0.952482    1.258207
     18          1           0        5.391484   -2.447952   -0.740643
     19          1           0        3.757561   -3.091561   -0.519368
     20          1           0        5.002546   -3.397901    0.703529
     21          6           0       -2.784938   -0.083781   -0.390920
     22          6           0       -1.637706   -1.081862   -0.230670
     23          6           0       -0.312723   -0.552793   -0.780489
     24          1           0       -2.900737    0.164308   -1.454868
     25          1           0       -2.521819    0.852003    0.121399
     26          1           0       -1.903493   -2.015967   -0.741962
     27          1           0       -1.524748   -1.327751    0.833001
     28          1           0       -0.021085    0.367234   -0.263673
     29          1           0       -0.401981   -0.324892   -1.847585
     30          1           0        0.493623   -1.282231   -0.655652
     31          6           0       -4.116116   -0.598295    0.154028
     32          6           0       -5.263347    0.399785   -0.006221
     33          6           0       -6.588329   -0.129285    0.543597
     34          1           0       -4.379233   -1.534081   -0.358290
     35          1           0       -4.000316   -0.846385    1.217977
     36          1           0       -5.376304    0.645674   -1.069892
     37          1           0       -4.997560    1.333890    0.505072
     38          1           0       -6.499072   -0.357184    1.610694
     39          1           0       -6.879968   -1.049312    0.026782
     40          1           0       -7.394676    0.600154    0.418762
 ---------------------------------------------------------------------

 SCF Done:  E(RHF) =  -470.732242453     A.U. after   11 cycles
 E2 =    -0.1583960245D+01 EUMP2 =    -0.47231620269779D+03

 The electronic state is 1-A.
 Alpha  occ. eigenvalues --  -11.21681 -11.21635 -11.21548 -11.21465 -11.21461
 Alpha  occ. eigenvalues --  -11.21399 -11.21305 -11.21231 -11.21175 -11.21097
 Alpha  occ. eigenvalues --  -11.21047 -11.21033  -1.08496  -1.08347  -1.03603
 Alpha  occ. eigenvalues --   -1.03466  -0.96067  -0.95914  -0.87088  -0.86938
 Alpha  occ. eigenvalues --   -0.79695  -0.79522  -0.78315  -0.78137  -0.65191
 Alpha  occ. eigenvalues --   -0.64959  -0.61103  -0.60809  -0.59433  -0.59288
 Alpha  occ. eigenvalues --   -0.57691  -0.57503  -0.55341  -0.55216  -0.52790
 Alpha  occ. eigenvalues --   -0.52622  -0.52509  -0.52302  -0.50070  -0.49792
 Alpha  occ. eigenvalues --   -0.48094  -0.47747  -0.46728  -0.46493  -0.45905
 Alpha  occ. eigenvalues --   -0.45777  -0.45675  -0.45547  -0.43778  -0.43693
 Alpha virt. eigenvalues --    0.20817   0.23009   0.23447   0.24836   0.25866
 Alpha virt. eigenvalues --    0.26552   0.27289   0.27523   0.27918   0.29384
 Alpha virt. eigenvalues --    0.30105   0.31081   0.31757   0.31967   0.32454

 Mulliken charges:
               1
     1  C   -0.297783
     2  C   -0.306261
     3  C   -0.475912
     4  H    0.149094
     5  H    0.149248
     6  H    0.159639
     7  H    0.151695
     8  H    0.155238
     9  H    0.153795
    10  H    0.160108
    11  C   -0.304389
    12  C   -0.299858
    13  C   -0.475413
    14  H    0.157013
    15  H    0.149158
    16  H    0.151477
    17  H    0.151794
    18  H    0.155299
    19  H    0.154239
    20  H    0.160101
    21  C   -0.298769
    22  C   -0.300254
    23  C   -0.481898
    24  H    0.149850
    25  H    0.149601
    26  H    0.152181
    27  H    0.151981
    28  H    0.159749
    29  H    0.155687
    30  H    0.163000
    31  C   -0.298306
    32  C   -0.299679
    33  C   -0.475739
    34  H    0.149663
    35  H    0.149711
    36  H    0.152031
    37  H    0.152047
    38  H    0.155228
    39  H    0.155231
    40  H    0.160401
 Sum of Mulliken charges =  -0.00000

 Dipole moment (field-independent basis, Debye):
    X=             -0.0542    Y=             -0.0138    Z=             -0.0281  Tot=              0.0626
 Quadrupole moment (field-independent basis, Debye-Ang):
   XX=            -85.1748   YY=            -85.6581   ZZ=            -84.1872
   XY=              0.5038   XZ=              0.5299   YZ=              0.0269

 Normal termination of Gaussian 16 at Thu May  6 00:47:11 2021.
