 Gaussian 16, Revision A.03,
 Gaussian 16:  EM64L-G16RevA.03 25-Dec-2016

 -------------
 #p 6-31g* mp2
 -------------

 ------------------------------------------------------
 Input file generated by CHIRIPA (05-May-2021 14:51:12)
 ------------------------------------------------------
 Symbolic Z-matrix:
 Charge =  0 Multiplicity = 1

                         Standard orientation:
 ---------------------------------------------------------------------
 Center     Atomic      Atomic             Coordinates (Angstroms)
 Number     Number       Type             X           Y           Z
 ---------------------------------------------------------------------
      1          6           0       -3.426511   -0.116127    0.102212
      2          6           0       -2.365131   -1.189982   -0.139223
      3          6           0       -0.941129   -0.667550    0.053338
      4          1           0       -3.248204    0.726509   -0.579783
      5          1           0       -3.314226    0.277820    1.121816
      6          1           0       -2.480266   -1.582762   -1.157596
      7          1           0       -2.546099   -2.030242    0.543294
      8          1           0       -0.802609   -0.293446    1.072876
      9          1           0       -0.736402    0.156576   -0.637678
     10          1           0       -0.198415   -1.451592   -0.124185
     11          6           0       -4.855164   -0.623152   -0.086476
     12          6           0       -5.916544    0.450704    0.154959
     13          6           0       -7.340545   -0.071728   -0.037601
     14          1           0       -4.967449   -1.017099   -1.106080
     15          1           0       -5.033471   -1.465787    0.595519
     16          1           0       -5.735575    1.290964   -0.527558
     17          1           0       -5.801409    0.843484    1.173332
     18          1           0       -7.545273   -0.895855    0.653414
     19          1           0       -7.479065   -0.445832   -1.057140
     20          1           0       -8.083260    0.712313    0.139922
     21          6           0        3.819847    1.062744   -0.009728
     22          6           0        2.291906    1.023246   -0.052435
     23          6           0        1.664375    2.417516   -0.055673
     24          1           0        4.141198    1.613109    0.885133
     25          1           0        4.189351    1.630147   -0.875127
     26          1           0        1.925446    0.454907    0.812038
     27          1           0        1.974157    0.472745   -0.947197
     28          1           0        2.001708    2.989779   -0.925915
     29          1           0        1.952722    2.971840    0.843317
     30          1           0        0.571561    2.365845   -0.086455
     31          6           0        4.461828   -0.323465   -0.006008
     32          6           0        5.989768   -0.283967    0.036699
     33          6           0        6.617300   -1.678237    0.039937
     34          1           0        4.092324   -0.890869    0.859391
     35          1           0        4.140477   -0.873832   -0.900869
     36          1           0        6.307518    0.266534    0.931461
     37          1           0        6.356228    0.284372   -0.827775
     38          1           0        6.328953   -2.232561   -0.859053
     39          1           0        6.279965   -2.250501    0.910178
     40          1           0        7.710114   -1.626567    0.070719
 ---------------------------------------------------------------------

 SCF Done:  E(RHF) =  -470.732788127     A.U. after   11 cycles
 E2 =    -0.1583071727D+01 EUMP2 =    -0.47231585985425D+03

 The electronic state is 1-A.
 Alpha  occ. eigenvalues --  -11.21598 -11.21568 -11.21564 -11.21449 -11.21401
 Alpha  occ. eigenvalues --  -11.21342 -11.21340 -11.21270 -11.21069 -11.21045
 Alpha  occ. eigenvalues --  -11.21019 -11.20972  -1.08428  -1.08355  -1.03554
 Alpha  occ. eigenvalues --   -1.03425  -0.96019  -0.95867  -0.86992  -0.86931
 Alpha  occ. eigenvalues --   -0.79700  -0.79419  -0.78270  -0.78120  -0.65067
 Alpha  occ. eigenvalues --   -0.64981  -0.60983  -0.60803  -0.59357  -0.59295
 Alpha  occ. eigenvalues --   -0.57745  -0.57379  -0.55298  -0.55159  -0.52701
 Alpha  occ. eigenvalues --   -0.52647  -0.52436  -0.52198  -0.49948  -0.49821
 Alpha  occ. eigenvalues --   -0.47889  -0.47825  -0.46708  -0.46460  -0.45831
 Alpha  occ. eigenvalues --   -0.45726  -0.45649  -0.45593  -0.43792  -0.43665
 Alpha virt. eigenvalues --    0.21853   0.23048   0.23470   0.24957   0.26227
 Alpha virt. eigenvalues --    0.26560   0.26842   0.27256   0.27940   0.29264
 Alpha virt. eigenvalues --    0.30229   0.31239   0.31424   0.31874   0.32381

 Mulliken charges:
               1
     1  C   -0.298384
     2  C   -0.301385
     3  C   -0.475795
     4  H    0.149237
     5  H    0.149392
     6  H    0.151601
     7  H    0.151616
     8  H    0.154699
     9  H    0.158499
    10  H    0.161079
    11  C   -0.298179
    12  C   -0.299631
    13  C   -0.475700
    14  H    0.149508
    15  H    0.149661
    16  H    0.151935
    17  H    0.151910
    18  H    0.155165
    19  H    0.155171
    20  H    0.160254
    21  C   -0.298298
    22  C   -0.299641
    23  C   -0.479134
    24  H    0.149074
    25  H    0.148895
    26  H    0.155091
    27  H    0.152594
    28  H    0.154308
    29  H    0.154656
    30  H    0.162581
    31  C   -0.298142
    32  C   -0.299522
    33  C   -0.475653
    34  H    0.149292
    35  H    0.149307
    36  H    0.151859
    37  H    0.151837
    38  H    0.155051
    39  H    0.155072
    40  H    0.160120
 Sum of Mulliken charges =  -0.00000

 Dipole moment (field-independent basis, Debye):
    X=             -0.0182    Y=             -0.0153    Z=              0.0038  Tot=              0.0241
 Quadrupole moment (field-independent basis, Debye-Ang):
   XX=            -86.6195   YY=            -85.7579   ZZ=            -82.7332
   XY=              0.2652   XZ=             -0.1678   YZ=             -0.2854

 Normal termination of Gaussian 16 at Thu May  6 00:44:01 2021.
