 Gaussian 16, Revision A.03,
 Gaussian 16:  EM64L-G16RevA.03 25-Dec-2016

 -------------
 #p 6-31g* mp2
 -------------

 ------------------------------------------------------
 Input file generated by CHIRIPA (05-May-2021 14:53:13)
 ------------------------------------------------------
 Symbolic Z-matrix:
 Charge =  0 Multiplicity = 1

                         Standard orientation:
 ---------------------------------------------------------------------
 Center     Atomic      Atomic             Coordinates (Angstroms)
 Number     Number       Type             X           Y           Z
 ---------------------------------------------------------------------
      1          6           0       -3.064577   -0.637972    0.650356
      2          6           0       -2.063539    0.211700    1.433916
      3          6           0       -0.865624   -0.596512    1.933503
      4          1           0       -3.415804   -1.460711    1.288073
      5          1           0       -2.551923   -1.101557   -0.203851
      6          1           0       -2.578250    0.674652    2.285600
      7          1           0       -1.714799    1.032624    0.794322
      8          1           0       -0.326706   -1.045972    1.093174
      9          1           0       -1.195063   -1.405978    2.592924
     10          1           0       -0.162726    0.030405    2.490970
     11          6           0       -4.267670    0.155899    0.144327
     12          6           0       -5.268707   -0.693773   -0.639233
     13          6           0       -6.466622    0.114439   -1.138820
     14          1           0       -4.780323    0.619484    0.998534
     15          1           0       -3.916442    0.978638   -0.493391
     16          1           0       -5.617448   -1.514697    0.000361
     17          1           0       -4.753997   -1.156725   -1.490917
     18          1           0       -6.137184    0.923905   -1.798241
     19          1           0       -7.005541    0.563899   -0.298491
     20          1           0       -7.169521   -0.512478   -1.696287
     21          6           0        1.447193    2.275807   -0.332519
     22          6           0        2.771876    2.333636    0.112894
     23          6           0        3.566226    1.183296    0.129489
     24          6           0        3.001145   -0.013502   -0.308287
     25          6           0        1.684642   -0.103291   -0.757781
     26          6           0        0.908753    1.059672   -0.765670
     27          1           0        0.837293    3.174321   -0.342030
     28          1           0        3.192682    3.276726    0.449860
     29          1           0        4.594673    1.199678    0.469266
     30          1           0        1.293052   -1.057899   -1.087627
     31          1           0       -0.119707    1.011786   -1.112112
     32          7           0        3.832317   -1.237997   -0.295326
     33          8           0        3.310932   -2.280145   -0.686122
     34          8           0        4.989435   -1.132421    0.105383
 ---------------------------------------------------------------------

 SCF Done:  E(RHF) =  -669.533922399     A.U. after   15 cycles
 E2 =    -0.2093732886D+01 EUMP2 =    -0.67162765528478D+03

 The electronic state is 1-A.
 Alpha  occ. eigenvalues --  -20.60777 -20.60772 -15.85832 -11.31212 -11.27780
 Alpha  occ. eigenvalues --  -11.27770 -11.27523 -11.26799 -11.26781 -11.22207
 Alpha  occ. eigenvalues --  -11.22076 -11.22006 -11.21945 -11.21487 -11.21380
 Alpha  occ. eigenvalues --   -1.59852  -1.39406  -1.19392  -1.09005  -1.08776
 Alpha  occ. eigenvalues --   -1.04823  -1.04012  -0.96451  -0.95614  -0.87465
 Alpha  occ. eigenvalues --   -0.86201  -0.82451  -0.80094  -0.78818  -0.77501
 Alpha  occ. eigenvalues --   -0.72051  -0.71175  -0.70504  -0.65731  -0.65047
 Alpha  occ. eigenvalues --   -0.64779  -0.62269  -0.61329  -0.59820  -0.58063
 Alpha  occ. eigenvalues --   -0.55828  -0.55288  -0.53245  -0.52962  -0.52890
 Alpha  occ. eigenvalues --   -0.52839  -0.50370  -0.48814  -0.48805  -0.48390
 Alpha  occ. eigenvalues --   -0.47148  -0.46343  -0.46300  -0.44806  -0.44288
 Alpha  occ. eigenvalues --   -0.37357  -0.36308
 Alpha virt. eigenvalues --    0.05027   0.11118   0.16454   0.19477   0.22805
 Alpha virt. eigenvalues --    0.24053   0.25529   0.25941   0.27371   0.28424
 Alpha virt. eigenvalues --    0.28647   0.30941   0.31198   0.31386   0.32214

 Mulliken charges:
               1
     1  C   -0.298816
     2  C   -0.301921
     3  C   -0.473545
     4  H    0.154564
     5  H    0.144723
     6  H    0.154595
     7  H    0.140985
     8  H    0.154144
     9  H    0.157646
    10  H    0.162411
    11  C   -0.297457
    12  C   -0.299954
    13  C   -0.475895
    14  H    0.151555
    15  H    0.144024
    16  H    0.154328
    17  H    0.151808
    18  H    0.154109
    19  H    0.155999
    20  H    0.162198
    21  C   -0.172350
    22  C   -0.218434
    23  C   -0.171357
    24  C    0.158451
    25  C   -0.171930
    26  C   -0.212442
    27  H    0.225776
    28  H    0.223566
    29  H    0.275701
    30  H    0.275014
    31  H    0.225042
    32  N    0.488198
    33  O   -0.460461
    34  O   -0.460277
 Sum of Mulliken charges =  -0.00000

 Dipole moment (field-independent basis, Debye):
    X=             -2.9587    Y=              4.2725    Z=              0.0252  Tot=              5.1970
 Quadrupole moment (field-independent basis, Debye-Ang):
   XX=           -109.8346   YY=            -94.1137   ZZ=            -94.1413
   XY=             16.1639   XZ=              1.4569   YZ=             -0.2723

 Normal termination of Gaussian 16 at Thu May  6 12:03:02 2021.
