 Gaussian 16, Revision A.03,
 Gaussian 16:  EM64L-G16RevA.03 25-Dec-2016

 -------------
 #p 6-31g* mp2
 -------------

 ------------------------------------------------------
 Input file generated by CHIRIPA (05-May-2021 14:53:17)
 ------------------------------------------------------
 Symbolic Z-matrix:
 Charge =  0 Multiplicity = 1

                         Standard orientation:
 ---------------------------------------------------------------------
 Center     Atomic      Atomic             Coordinates (Angstroms)
 Number     Number       Type             X           Y           Z
 ---------------------------------------------------------------------
      1          6           0       -3.672062    1.024784   -0.332170
      2          6           0       -2.489129    1.957207   -0.069030
      3          6           0       -2.778228    3.405297   -0.465579
      4          1           0       -3.935636    1.069007   -1.397777
      5          1           0       -4.547970    1.389763    0.221879
      6          1           0       -1.615342    1.589796   -0.622313
      7          1           0       -2.228217    1.910613    0.996038
      8          1           0       -3.633644    3.794975    0.095685
      9          1           0       -3.017286    3.472334   -1.531861
     10          1           0       -1.919303    4.054499   -0.268997
     11          6           0       -3.398373   -0.426318    0.059139
     12          6           0       -4.581305   -1.358741   -0.204000
     13          6           0       -4.292206   -2.806831    0.192548
     14          1           0       -2.522465   -0.791298   -0.494910
     15          1           0       -3.134798   -0.470542    1.124746
     16          1           0       -4.842217   -1.312148   -1.269069
     17          1           0       -5.455092   -0.991330    0.349283
     18          1           0       -4.053148   -2.873868    1.258830
     19          1           0       -3.436791   -3.196509   -0.368716
     20          1           0       -5.151131   -3.456033   -0.004034
     21          6           0        0.340171   -0.470663    0.773805
     22          6           0        0.773613   -0.945102   -0.468595
     23          6           0        2.113088   -0.819199   -0.848731
     24          6           0        2.996011   -0.210874    0.042155
     25          6           0        2.594686    0.271828    1.286834
     26          6           0        1.250486    0.135220    1.646016
     27          1           0       -0.702201   -0.572625    1.060964
     28          1           0        0.068874   -1.416070   -1.147990
     29          1           0        2.475578   -1.177664   -1.804515
     30          1           0        3.320640    0.736762    1.942766
     31          1           0        0.916693    0.504601    2.611513
     32          7           0        4.416554   -0.071920   -0.349186
     33          8           0        5.174626    0.467856    0.453687
     34          8           0        4.745007   -0.505414   -1.451384
 ---------------------------------------------------------------------

 SCF Done:  E(RHF) =  -669.534451381     A.U. after   15 cycles
 E2 =    -0.2093540688D+01 EUMP2 =    -0.67162799206894D+03

 The electronic state is 1-A.
 Alpha  occ. eigenvalues --  -20.60691 -20.60686 -15.85746 -11.31079 -11.27682
 Alpha  occ. eigenvalues --  -11.27668 -11.27268 -11.26655 -11.26626 -11.22807
 Alpha  occ. eigenvalues --  -11.22651 -11.22493 -11.22390 -11.22058 -11.21746
 Alpha  occ. eigenvalues --   -1.59768  -1.39323  -1.19259  -1.09561  -1.08637
 Alpha  occ. eigenvalues --   -1.04667  -1.04487  -0.96960  -0.95486  -0.87961
 Alpha  occ. eigenvalues --   -0.86062  -0.82344  -0.80583  -0.79454  -0.77385
 Alpha  occ. eigenvalues --   -0.71964  -0.71093  -0.70327  -0.66189  -0.64900
 Alpha  occ. eigenvalues --   -0.64675  -0.62025  -0.61870  -0.60322  -0.58600
 Alpha  occ. eigenvalues --   -0.56246  -0.55181  -0.53568  -0.53361  -0.52983
 Alpha  occ. eigenvalues --   -0.52757  -0.50888  -0.48887  -0.48723  -0.48720
 Alpha  occ. eigenvalues --   -0.47616  -0.46855  -0.46807  -0.44794  -0.44736
 Alpha  occ. eigenvalues --   -0.37164  -0.36283
 Alpha virt. eigenvalues --    0.05149   0.11285   0.16613   0.19824   0.22610
 Alpha virt. eigenvalues --    0.23121   0.23900   0.25804   0.27016   0.28138
 Alpha virt. eigenvalues --    0.29941   0.30392   0.30881   0.31279   0.31557

 Mulliken charges:
               1
     1  C   -0.297097
     2  C   -0.304462
     3  C   -0.476204
     4  H    0.153444
     5  H    0.153188
     6  H    0.156759
     7  H    0.146119
     8  H    0.156302
     9  H    0.157509
    10  H    0.163820
    11  C   -0.307736
    12  C   -0.298805
    13  C   -0.476872
    14  H    0.144480
    15  H    0.145646
    16  H    0.155656
    17  H    0.156233
    18  H    0.155266
    19  H    0.152741
    20  H    0.165472
    21  C   -0.170732
    22  C   -0.226788
    23  C   -0.170422
    24  C    0.157515
    25  C   -0.170427
    26  C   -0.222556
    27  H    0.239485
    28  H    0.223011
    29  H    0.275124
    30  H    0.275132
    31  H    0.222850
    32  N    0.488103
    33  O   -0.460809
    34  O   -0.460941
 Sum of Mulliken charges =  -0.00000

 Dipole moment (field-independent basis, Debye):
    X=             -5.2920    Y=             -0.4224    Z=              1.3318  Tot=              5.4733
 Quadrupole moment (field-independent basis, Debye-Ang):
   XX=           -124.1983   YY=            -94.9615   ZZ=            -90.1885
   XY=              0.1288   XZ=              4.7838   YZ=              2.2874

 Normal termination of Gaussian 16 at Thu May  6 01:13:03 2021.
