 Gaussian 16, Revision A.03,
 Gaussian 16:  EM64L-G16RevA.03 25-Dec-2016

 -------------
 #p 6-31g* mp2
 -------------

 ------------------------------------------------------
 Input file generated by CHIRIPA (05-May-2021 14:57:27)
 ------------------------------------------------------
 Symbolic Z-matrix:
 Charge =  0 Multiplicity = 1

                         Standard orientation:
 ---------------------------------------------------------------------
 Center     Atomic      Atomic             Coordinates (Angstroms)
 Number     Number       Type             X           Y           Z
 ---------------------------------------------------------------------
      1          6           0        3.792197   -1.631371    0.027347
      2          6           0        3.620303   -0.846049   -1.117311
      3          6           0        2.898375    0.349624   -1.056198
      4          6           0        2.359580    0.731493    0.171469
      5          6           0        2.513536   -0.029217    1.329445
      6          6           0        3.239240   -1.221172    1.244925
      7          1           0        4.354475   -2.558755   -0.029218
      8          1           0        4.048615   -1.162134   -2.064245
      9          1           0        2.750029    0.976766   -1.926890
     10          1           0        2.074752    0.312014    2.259202
     11          1           0        3.371135   -1.829055    2.135502
     12          7           0        1.593309    1.995330    0.248556
     13          8           0        1.128610    2.309687    1.342115
     14          8           0        1.471913    2.647639   -0.786042
     15          6           0       -4.208184    1.307704    0.058863
     16          6           0       -4.470239    0.035009    0.576643
     17          6           0       -3.523263   -0.987044    0.461788
     18          6           0       -2.319364   -0.700201   -0.179804
     19          6           0       -2.028816    0.557575   -0.705987
     20          6           0       -2.990457    1.564473   -0.579674
     21          1           0       -4.949514    2.095772    0.152535
     22          1           0       -5.415078   -0.167269    1.073039
     23          1           0       -3.700145   -1.981357    0.853543
     24          1           0       -1.077839    0.728988   -1.195554
     25          1           0       -2.784217    2.551917   -0.982742
     26          7           0       -1.309081   -1.774181   -0.307460
     27          8           0       -0.256141   -1.495952   -0.877147
     28          8           0       -1.589290   -2.873858    0.164588
 ---------------------------------------------------------------------

 SCF Done:  E(RHF) =  -868.340171476     A.U. after   16 cycles
 E2 =    -0.2600624911D+01 EUMP2 =    -0.87094079638754D+03

 The electronic state is 1-A.
 Alpha  occ. eigenvalues --  -20.60677 -20.60665 -20.60652 -20.60638 -15.85683
 Alpha  occ. eigenvalues --  -15.85659 -11.30765 -11.30453 -11.27338 -11.27224
 Alpha  occ. eigenvalues --  -11.27006 -11.27002 -11.26983 -11.26658 -11.26314
 Alpha  occ. eigenvalues --  -11.26154 -11.25918 -11.25904  -1.59738  -1.59732
 Alpha  occ. eigenvalues --   -1.39303  -1.39296  -1.18905  -1.18577  -1.08361
 Alpha  occ. eigenvalues --   -1.08102  -1.04250  -1.03936  -0.95246  -0.95033
 Alpha  occ. eigenvalues --   -0.85678  -0.85388  -0.82078  -0.81913  -0.77165
 Alpha  occ. eigenvalues --   -0.77009  -0.71944  -0.71908  -0.71132  -0.70963
 Alpha  occ. eigenvalues --   -0.70005  -0.69764  -0.64559  -0.64285  -0.64244
 Alpha  occ. eigenvalues --   -0.63996  -0.61598  -0.61343  -0.54788  -0.54502
 Alpha  occ. eigenvalues --   -0.52618  -0.52339  -0.52198  -0.52083  -0.48695
 Alpha  occ. eigenvalues --   -0.48691  -0.48648  -0.48614  -0.44828  -0.44744
 Alpha  occ. eigenvalues --   -0.36883  -0.36469  -0.35828  -0.35459
 Alpha virt. eigenvalues --    0.05322   0.05495   0.11796   0.12158   0.16852
 Alpha virt. eigenvalues --    0.17164   0.21895   0.22187   0.27728   0.28057
 Alpha virt. eigenvalues --    0.28565   0.29092   0.31296   0.31764   0.32639

 Mulliken charges:
               1
     1  C   -0.163942
     2  C   -0.212196
     3  C   -0.164406
     4  C    0.163624
     5  C   -0.170051
     6  C   -0.213698
     7  H    0.224605
     8  H    0.221291
     9  H    0.270234
    10  H    0.271055
    11  H    0.221598
    12  N    0.485376
    13  O   -0.461594
    14  O   -0.469838
    15  C   -0.170514
    16  C   -0.218536
    17  C   -0.172125
    18  C    0.158228
    19  C   -0.172471
    20  C   -0.215602
    21  H    0.225524
    22  H    0.221503
    23  H    0.272522
    24  H    0.277193
    25  H    0.231691
    26  N    0.488878
    27  O   -0.464804
    28  O   -0.463543
 Sum of Mulliken charges =  -0.00000

 Dipole moment (field-independent basis, Debye):
    X=             -0.7945    Y=             -0.7345    Z=              0.1361  Tot=              1.0905
 Quadrupole moment (field-independent basis, Debye-Ang):
   XX=            -74.4985   YY=           -115.7852   ZZ=            -99.9877
   XY=            -13.8900   XZ=             -3.2247   YZ=             -4.5806

 Normal termination of Gaussian 16 at Thu May  6 11:33:03 2021.
