 Gaussian 16, Revision A.03,
 Gaussian 16:  EM64L-G16RevA.03 25-Dec-2016

 -------------
 #p 6-31g* mp2
 -------------

 ------------------------------------------------------
 Input file generated by CHIRIPA (05-May-2021 14:51:10)
 ------------------------------------------------------
 Symbolic Z-matrix:
 Charge =  0 Multiplicity = 1

                         Standard orientation:
 ---------------------------------------------------------------------
 Center     Atomic      Atomic             Coordinates (Angstroms)
 Number     Number       Type             X           Y           Z
 ---------------------------------------------------------------------
      1          6           0       -2.719761    1.069114    0.316378
      2          6           0       -1.635044    1.815799   -0.460690
      3          6           0       -0.812197    2.752285    0.424583
      4          1           0       -3.384759    1.798821    0.798301
      5          1           0       -2.250296    0.492199    1.125183
      6          1           0       -2.106281    2.390040   -1.268650
      7          1           0       -0.972664    1.084229   -0.940976
      8          1           0       -0.315725    2.190703    1.222544
      9          1           0       -1.455783    3.503933    0.893010
     10          1           0       -0.042651    3.275872   -0.151190
     11          6           0       -3.550810    0.128999   -0.554983
     12          6           0       -4.635527   -0.617686    0.222086
     13          6           0       -5.458375   -1.554173   -0.663188
     14          1           0       -4.020276    0.705913   -1.363788
     15          1           0       -2.885812   -0.600709   -1.036906
     16          1           0       -5.297907    0.113883    0.702372
     17          1           0       -4.164290   -1.191928    1.030045
     18          1           0       -4.814788   -2.305821   -1.131614
     19          1           0       -5.954846   -0.992590   -1.461149
     20          1           0       -6.227921   -2.077760   -0.087414
     21          6           0        3.715871   -0.104824    0.164999
     22          6           0        4.956099   -0.553065   -0.608887
     23          6           0        6.109046    0.446086   -0.507892
     24          1           0        3.389260    0.873568   -0.213179
     25          1           0        3.983939    0.041670    1.220496
     26          1           0        4.685451   -0.700007   -1.662345
     27          1           0        5.279681   -1.530593   -0.228952
     28          1           0        6.407248    0.585966    0.536191
     29          1           0        5.809642    1.421272   -0.905345
     30          1           0        6.985397    0.105848   -1.068345
     31          6           0        2.554701   -1.093289    0.073606
     32          6           0        1.314473   -0.645047    0.847491
     33          6           0        0.161525   -1.644199    0.746497
     34          1           0        2.286632   -1.239783   -0.981891
     35          1           0        2.881312   -2.071681    0.451784
     36          1           0        0.990890    0.332480    0.467557
     37          1           0        1.585120   -0.498106    1.900950
     38          1           0        0.460930   -2.619385    1.143950
     39          1           0       -0.136676   -1.784079   -0.297587
     40          1           0       -0.714825   -1.303961    1.306950
 ---------------------------------------------------------------------

 SCF Done:  E(RHF) =  -470.732041692     A.U. after   11 cycles
 E2 =    -0.1584959308D+01 EUMP2 =    -0.47231700100036D+03

 The electronic state is 1-A.
 Alpha  occ. eigenvalues --  -11.21614 -11.21602 -11.21597 -11.21579 -11.21428
 Alpha  occ. eigenvalues --  -11.21370 -11.21367 -11.21311 -11.21144 -11.21079
 Alpha  occ. eigenvalues --  -11.21058 -11.21047  -1.08495  -1.08381  -1.03629
 Alpha  occ. eigenvalues --   -1.03464  -0.96025  -0.95969  -0.87072  -0.86952
 Alpha  occ. eigenvalues --   -0.79636  -0.79585  -0.78276  -0.78232  -0.65381
 Alpha  occ. eigenvalues --   -0.64870  -0.61315  -0.60620  -0.59359  -0.59306
 Alpha  occ. eigenvalues --   -0.57627  -0.57559  -0.55327  -0.55292  -0.52731
 Alpha  occ. eigenvalues --   -0.52665  -0.52486  -0.52346  -0.50037  -0.49860
 Alpha  occ. eigenvalues --   -0.47987  -0.47836  -0.46646  -0.46596  -0.45863
 Alpha  occ. eigenvalues --   -0.45757  -0.45674  -0.45625  -0.43792  -0.43759
 Alpha virt. eigenvalues --    0.19882   0.22954   0.23739   0.24843   0.25282
 Alpha virt. eigenvalues --    0.26281   0.26725   0.27470   0.28885   0.29798
 Alpha virt. eigenvalues --    0.30974   0.31225   0.31662   0.31903   0.32370

 Mulliken charges:
               1
     1  C   -0.301095
     2  C   -0.303121
     3  C   -0.479754
     4  H    0.149695
     5  H    0.153132
     6  H    0.152447
     7  H    0.153918
     8  H    0.158614
     9  H    0.155968
    10  H    0.159402
    11  C   -0.299682
    12  C   -0.299757
    13  C   -0.475717
    14  H    0.149303
    15  H    0.151405
    16  H    0.151812
    17  H    0.151811
    18  H    0.155418
    19  H    0.155022
    20  H    0.160179
    21  C   -0.298381
    22  C   -0.299681
    23  C   -0.475726
    24  H    0.149880
    25  H    0.149615
    26  H    0.151914
    27  H    0.151962
    28  H    0.155236
    29  H    0.155249
    30  H    0.160287
    31  C   -0.297693
    32  C   -0.309904
    33  C   -0.479983
    34  H    0.149128
    35  H    0.149662
    36  H    0.163628
    37  H    0.151517
    38  H    0.155748
    39  H    0.155134
    40  H    0.163409
 Sum of Mulliken charges =  -0.00000

 Dipole moment (field-independent basis, Debye):
    X=              0.0141    Y=              0.0027    Z=              0.0075  Tot=              0.0162
 Quadrupole moment (field-independent basis, Debye-Ang):
   XX=            -85.6112   YY=            -84.9500   ZZ=            -84.3151
   XY=             -1.6868   XZ=              0.0881   YZ=             -0.8881

 Normal termination of Gaussian 16 at Wed May  5 19:46:58 2021.
