 Gaussian 16, Revision A.03,
 Gaussian 16:  EM64L-G16RevA.03 25-Dec-2016

 -------------
 #p 6-31g* mp2
 -------------

 ------------------------------------------------------
 Input file generated by CHIRIPA (05-May-2021 14:55:25)
 ------------------------------------------------------
 Symbolic Z-matrix:
 Charge =  0 Multiplicity = 1

                         Standard orientation:
 ---------------------------------------------------------------------
 Center     Atomic      Atomic             Coordinates (Angstroms)
 Number     Number       Type             X           Y           Z
 ---------------------------------------------------------------------
      1          6           0        0.739219   -0.636287    1.264656
      2          6           0        1.312838    0.637561    1.195423
      3          6           0        2.558529    0.823269    0.588534
      4          6           0        3.205748   -0.291999    0.058841
      5          6           0        2.660263   -1.573750    0.112228
      6          6           0        1.413574   -1.735938    0.723791
      7          1           0       -0.228851   -0.771415    1.737917
      8          1           0        0.791406    1.493382    1.614616
      9          1           0        3.025568    1.798336    0.521178
     10          1           0        3.204081   -2.407717   -0.314596
     11          1           0        0.970501   -2.726390    0.776116
     12          7           0        4.525034   -0.107847   -0.586119
     13          8           0        5.074948   -1.106574   -1.045222
     14          8           0        4.984194    1.031731   -0.620324
     15          6           0       -3.249001    0.794409    0.113945
     16          6           0       -2.937505    2.123858   -0.574183
     17          6           0       -1.782770    2.876015    0.088119
     18          1           0       -3.489460    0.982566    1.169275
     19          1           0       -2.348028    0.165457    0.105984
     20          1           0       -3.839189    2.749573   -0.566152
     21          1           0       -2.697946    1.932536   -1.628044
     22          1           0       -0.868508    2.274119    0.066994
     23          1           0       -2.016236    3.095799    1.134919
     24          1           0       -1.577032    3.823441   -0.419734
     25          6           0       -4.401084    0.030804   -0.536699
     26          6           0       -4.712579   -1.298645    0.151429
     27          6           0       -5.867314   -2.050801   -0.510873
     28          1           0       -5.302056    0.659757   -0.528738
     29          1           0       -4.160625   -0.157352   -1.592030
     30          1           0       -4.952139   -1.107322    1.205290
     31          1           0       -3.810895   -1.924359    0.143398
     32          1           0       -5.633849   -2.270584   -1.557674
     33          1           0       -6.781576   -1.448905   -0.489748
     34          1           0       -6.073052   -2.998227   -0.003021
 ---------------------------------------------------------------------

 SCF Done:  E(RHF) =  -669.535412424     A.U. after   15 cycles
 E2 =    -0.2092266918D+01 EUMP2 =    -0.67162767934287D+03

 The electronic state is 1-A.
 Alpha  occ. eigenvalues --  -20.60781 -20.60776 -15.85834 -11.31217 -11.27788
 Alpha  occ. eigenvalues --  -11.27776 -11.27511 -11.26801 -11.26753 -11.22338
 Alpha  occ. eigenvalues --  -11.22326 -11.22236 -11.22070 -11.21879 -11.21649
 Alpha  occ. eigenvalues --   -1.59856  -1.39409  -1.19391  -1.09187  -1.08779
 Alpha  occ. eigenvalues --   -1.04796  -1.04254  -0.96717  -0.95610  -0.87742
 Alpha  occ. eigenvalues --   -0.86186  -0.82440  -0.80336  -0.79025  -0.77487
 Alpha  occ. eigenvalues --   -0.72052  -0.71179  -0.70483  -0.65819  -0.65037
 Alpha  occ. eigenvalues --   -0.64805  -0.62181  -0.61615  -0.60072  -0.58334
 Alpha  occ. eigenvalues --   -0.56039  -0.55262  -0.53385  -0.53300  -0.53091
 Alpha  occ. eigenvalues --   -0.52755  -0.50635  -0.48824  -0.48806  -0.48620
 Alpha  occ. eigenvalues --   -0.47350  -0.46553  -0.46470  -0.44811  -0.44516
 Alpha  occ. eigenvalues --   -0.37344  -0.36375
 Alpha virt. eigenvalues --    0.05012   0.11121   0.16377   0.20501   0.22448
 Alpha virt. eigenvalues --    0.23734   0.25378   0.26132   0.26287   0.28350
 Alpha virt. eigenvalues --    0.29418   0.30501   0.30832   0.31308   0.31577

 Mulliken charges:
               1
     1  C   -0.173162
     2  C   -0.219857
     3  C   -0.172718
     4  C    0.158722
     5  C   -0.170613
     6  C   -0.219244
     7  H    0.228742
     8  H    0.228483
     9  H    0.276189
    10  H    0.275729
    11  H    0.223594
    12  N    0.488079
    13  O   -0.460398
    14  O   -0.460157
    15  C   -0.302466
    16  C   -0.298505
    17  C   -0.485144
    18  H    0.147552
    19  H    0.146183
    20  H    0.154803
    21  H    0.156079
    22  H    0.156266
    23  H    0.151972
    24  H    0.165227
    25  C   -0.298420
    26  C   -0.299613
    27  C   -0.476052
    28  H    0.152191
    29  H    0.152460
    30  H    0.151522
    31  H    0.147560
    32  H    0.156838
    33  H    0.157065
    34  H    0.161094
 Sum of Mulliken charges =  -0.00000

 Dipole moment (field-independent basis, Debye):
    X=             -4.7516    Y=             -0.6361    Z=              2.1951  Tot=              5.2726
 Quadrupole moment (field-independent basis, Debye-Ang):
   XX=           -124.8891   YY=            -89.6801   ZZ=            -94.8004
   XY=             -1.8288   XZ=              6.6139   YZ=              0.3349

 Normal termination of Gaussian 16 at Thu May  6 00:02:55 2021.
