 Gaussian 16, Revision A.03,
 Gaussian 16:  EM64L-G16RevA.03 25-Dec-2016

 -------------
 #p 6-31g* mp2
 -------------

 ------------------------------------------------------
 Input file generated by CHIRIPA (05-May-2021 14:57:24)
 ------------------------------------------------------
 Symbolic Z-matrix:
 Charge =  0 Multiplicity = 1

                         Standard orientation:
 ---------------------------------------------------------------------
 Center     Atomic      Atomic             Coordinates (Angstroms)
 Number     Number       Type             X           Y           Z
 ---------------------------------------------------------------------
      1          6           0       -5.149779    2.101542   -0.192734
      2          6           0       -3.798961    2.225342    0.148565
      3          6           0       -2.980365    1.094836    0.228594
      4          6           0       -3.548114   -0.149616   -0.040274
      5          6           0       -4.890358   -0.305507   -0.382865
      6          6           0       -5.690214    0.838739   -0.456894
      7          1           0       -5.778405    2.985082   -0.252572
      8          1           0       -3.376543    3.204783    0.354240
      9          1           0       -1.931422    1.161960    0.490569
     10          1           0       -5.282890   -1.295224   -0.582357
     11          1           0       -6.738943    0.739584   -0.722187
     12          7           0       -2.691422   -1.353705    0.041273
     13          8           0       -3.215718   -2.438789   -0.200272
     14          8           0       -1.511873   -1.189587    0.345191
     15          6           0        2.002634   -1.852051    0.572809
     16          6           0        2.111667   -0.734485    1.406883
     17          6           0        3.042671    0.270768    1.128953
     18          6           0        3.852368    0.125496    0.003530
     19          6           0        3.767616   -0.976030   -0.846614
     20          6           0        2.829498   -1.969051   -0.549300
     21          1           0        1.276645   -2.628204    0.796241
     22          1           0        1.470820   -0.640966    2.279015
     23          1           0        3.148150    1.146478    1.757780
     24          1           0        4.420212   -1.041283   -1.708750
     25          1           0        2.747031   -2.835864   -1.198822
     26          7           0        4.841745    1.183237   -0.300964
     27          8           0        5.543465    1.031637   -1.298583
     28          8           0        4.896764    2.143868    0.463758
 ---------------------------------------------------------------------

 SCF Done:  E(RHF) =  -868.340121541     A.U. after   16 cycles
 E2 =    -0.2598630151D+01 EUMP2 =    -0.87093875169224D+03

 The electronic state is 1-A.
 Alpha  occ. eigenvalues --  -20.61640 -20.61613 -20.60166 -20.60158 -15.86656
 Alpha  occ. eigenvalues --  -15.85213 -11.31758 -11.30310 -11.28295 -11.28289
 Alpha  occ. eigenvalues --  -11.27979 -11.27246 -11.27233 -11.26896 -11.26887
 Alpha  occ. eigenvalues --  -11.26355 -11.25741 -11.25725  -1.60696  -1.59249
 Alpha  occ. eigenvalues --   -1.40256  -1.38810  -1.19904  -1.18451  -1.09348
 Alpha  occ. eigenvalues --   -1.07836  -1.05266  -1.03835  -0.96230  -0.94724
 Alpha  occ. eigenvalues --   -0.86676  -0.85212  -0.83071  -0.81593  -0.78146
 Alpha  occ. eigenvalues --   -0.76720  -0.72910  -0.71995  -0.71435  -0.71006
 Alpha  occ. eigenvalues --   -0.70574  -0.69426  -0.65560  -0.65263  -0.64079
 Alpha  occ. eigenvalues --   -0.63809  -0.62616  -0.61209  -0.55773  -0.54162
 Alpha  occ. eigenvalues --   -0.53610  -0.53351  -0.52150  -0.51911  -0.49658
 Alpha  occ. eigenvalues --   -0.49622  -0.48206  -0.48164  -0.45718  -0.44278
 Alpha  occ. eigenvalues --   -0.37866  -0.36858  -0.36289  -0.35467
 Alpha virt. eigenvalues --    0.04364   0.05841   0.10801   0.12209   0.15913
 Alpha virt. eigenvalues --    0.17437   0.20959   0.22495   0.26882   0.27709
 Alpha virt. eigenvalues --    0.28312   0.29494   0.30586   0.31938   0.32281

 Mulliken charges:
               1
     1  C   -0.169837
     2  C   -0.218455
     3  C   -0.170730
     4  C    0.157602
     5  C   -0.170544
     6  C   -0.218539
     7  H    0.227974
     8  H    0.226135
     9  H    0.274963
    10  H    0.275948
    11  H    0.225191
    12  N    0.491087
    13  O   -0.459023
    14  O   -0.470479
    15  C   -0.158599
    16  C   -0.218338
    17  C   -0.174981
    18  C    0.156325
    19  C   -0.172208
    20  C   -0.221840
    21  H    0.239808
    22  H    0.223071
    23  H    0.270081
    24  H    0.272169
    25  H    0.222526
    26  N    0.488315
    27  O   -0.462985
    28  O   -0.464637
 Sum of Mulliken charges =  -0.00000

 Dipole moment (field-independent basis, Debye):
    X=             -7.0206    Y=              0.3720    Z=              0.7946  Tot=              7.0752
 Quadrupole moment (field-independent basis, Debye-Ang):
   XX=           -108.3904   YY=           -104.5484   ZZ=           -102.4495
   XY=            -28.7637   XZ=              5.2238   YZ=              3.0548

 Normal termination of Gaussian 16 at Thu May  6 05:04:12 2021.
