 Gaussian 16, Revision A.03,
 Gaussian 16:  EM64L-G16RevA.03 25-Dec-2016

 -------------
 #p 6-31g* mp2
 -------------

 ------------------------------------------------------
 Input file generated by CHIRIPA (05-May-2021 14:53:11)
 ------------------------------------------------------
 Symbolic Z-matrix:
 Charge =  0 Multiplicity = 1

                         Standard orientation:
 ---------------------------------------------------------------------
 Center     Atomic      Atomic             Coordinates (Angstroms)
 Number     Number       Type             X           Y           Z
 ---------------------------------------------------------------------
      1          6           0        3.671119    0.900185    0.206523
      2          6           0        2.257933    1.428478   -0.042067
      3          6           0        2.065874    2.860748    0.457444
      4          1           0        3.889361    0.947244    1.282209
      5          1           0        4.394938    1.562307   -0.288527
      6          1           0        1.536909    0.764780    0.452145
      7          1           0        2.042958    1.379977   -1.117264
      8          1           0        2.762544    3.540301   -0.044013
      9          1           0        2.253619    2.921609    1.534314
     10          1           0        1.048687    3.218415    0.269658
     11          6           0        3.878658   -0.530457   -0.287358
     12          6           0        5.291844   -1.058750   -0.038769
     13          6           0        5.483902   -2.491020   -0.538279
     14          1           0        3.154838   -1.192580    0.207692
     15          1           0        3.660415   -0.577517   -1.363044
     16          1           0        5.506818   -1.010249    1.036429
     17          1           0        6.012868   -0.395052   -0.532981
     18          1           0        5.296157   -2.551882   -1.615149
     19          1           0        4.787232   -3.170574   -0.036822
     20          1           0        6.501090   -2.848687   -0.350494
     21          6           0       -3.740767   -2.528181    0.270206
     22          6           0       -2.638945   -2.079532    1.005887
     23          6           0       -2.191570   -0.760836    0.881611
     24          6           0       -2.872599    0.086028    0.008506
     25          6           0       -3.973435   -0.331225   -0.738051
     26          6           0       -4.403328   -1.654137   -0.597884
     27          1           0       -4.081508   -3.554212    0.372920
     28          1           0       -2.122459   -2.756110    1.680816
     29          1           0       -1.341281   -0.387260    1.439166
     30          1           0       -4.467924    0.366580   -1.402858
     31          1           0       -5.259300   -1.999811   -1.170478
     32          7           0       -2.408237    1.484303   -0.131471
     33          8           0       -3.025424    2.210671   -0.907427
     34          8           0       -1.435877    1.827428    0.537423
 ---------------------------------------------------------------------

 SCF Done:  E(RHF) =  -669.536195236     A.U. after   15 cycles
 E2 =    -0.2091479096D+01 EUMP2 =    -0.67162767433183D+03

 The electronic state is 1-A.
 Alpha  occ. eigenvalues --  -20.60971 -20.60955 -15.85987 -11.31294 -11.27858
 Alpha  occ. eigenvalues --  -11.27853 -11.27591 -11.26862 -11.26852 -11.21357
 Alpha  occ. eigenvalues --  -11.21034 -11.20942 -11.20763 -11.20646 -11.19680
 Alpha  occ. eigenvalues --   -1.60019  -1.39576  -1.19461  -1.08869  -1.07903
 Alpha  occ. eigenvalues --   -1.04856  -1.02881  -0.95720  -0.95315  -0.86348
 Alpha  occ. eigenvalues --   -0.86255  -0.82548  -0.79004  -0.77697  -0.77575
 Alpha  occ. eigenvalues --   -0.72221  -0.71327  -0.70571  -0.65120  -0.64862
 Alpha  occ. eigenvalues --   -0.64550  -0.62206  -0.60297  -0.58739  -0.56874
 Alpha  occ. eigenvalues --   -0.55361  -0.54646  -0.53187  -0.52951  -0.51957
 Alpha  occ. eigenvalues --   -0.51750  -0.49320  -0.48982  -0.48952  -0.47269
 Alpha  occ. eigenvalues --   -0.46084  -0.45244  -0.45163  -0.44894  -0.43117
 Alpha  occ. eigenvalues --   -0.37438  -0.36455
 Alpha virt. eigenvalues --    0.04901   0.11186   0.16391   0.21042   0.23232
 Alpha virt. eigenvalues --    0.24677   0.26266   0.27388   0.27641   0.28593
 Alpha virt. eigenvalues --    0.28849   0.30417   0.31554   0.32112   0.32901

 Mulliken charges:
               1
     1  C   -0.298123
     2  C   -0.296115
     3  C   -0.482155
     4  H    0.147152
     5  H    0.148632
     6  H    0.149572
     7  H    0.149665
     8  H    0.147435
     9  H    0.148764
    10  H    0.187629
    11  C   -0.296462
    12  C   -0.299015
    13  C   -0.475071
    14  H    0.143985
    15  H    0.149119
    16  H    0.150981
    17  H    0.152442
    18  H    0.154878
    19  H    0.152499
    20  H    0.159428
    21  C   -0.170459
    22  C   -0.218626
    23  C   -0.171219
    24  C    0.157891
    25  C   -0.170513
    26  C   -0.218595
    27  H    0.226036
    28  H    0.223859
    29  H    0.276732
    30  H    0.275819
    31  H    0.223825
    32  N    0.490879
    33  O   -0.458989
    34  O   -0.461880
 Sum of Mulliken charges =  -0.00000

 Dipole moment (field-independent basis, Debye):
    X=             -1.9391    Y=             -4.8282    Z=              0.4697  Tot=              5.2242
 Quadrupole moment (field-independent basis, Debye-Ang):
   XX=            -83.8467   YY=            -96.8632   ZZ=            -92.3898
   XY=             13.9319   XZ=              1.1683   YZ=             -1.4221

 Normal termination of Gaussian 16 at Wed May  5 20:05:22 2021.
