 Gaussian 16, Revision A.03,
 Gaussian 16:  EM64L-G16RevA.03 25-Dec-2016

 -------------
 #p 6-31g* mp2
 -------------

 ------------------------------------------------------
 Input file generated by CHIRIPA (05-May-2021 14:57:22)
 ------------------------------------------------------
 Symbolic Z-matrix:
 Charge =  0 Multiplicity = 1

                         Standard orientation:
 ---------------------------------------------------------------------
 Center     Atomic      Atomic             Coordinates (Angstroms)
 Number     Number       Type             X           Y           Z
 ---------------------------------------------------------------------
      1          6           0        3.065552    2.115524    1.208161
      2          6           0        2.457700    1.986487   -0.044989
      3          6           0        2.520212    0.776924   -0.743271
      4          6           0        3.201877   -0.287906   -0.156108
      5          6           0        3.817621   -0.190543    1.090755
      6          6           0        3.742379    1.028513    1.771042
      7          1           0        3.012047    3.058828    1.743614
      8          1           0        1.931389    2.828992   -0.484567
      9          1           0        2.058568    0.649499   -1.714902
     10          1           0        4.335135   -1.048116    1.503267
     11          1           0        4.215382    1.125839    2.744099
     12          7           0        3.274793   -1.573441   -0.885823
     13          8           0        3.881368   -2.496595   -0.346850
     14          8           0        2.723990   -1.633548   -1.982928
     15          6           0       -2.089777    2.171263   -0.839233
     16          6           0       -1.326550    1.204342   -0.176611
     17          6           0       -1.925502    0.039585    0.312416
     18          6           0       -3.296211   -0.126525    0.120442
     19          6           0       -4.083542    0.818475   -0.535589
     20          6           0       -3.463415    1.975589   -1.016294
     21          1           0       -1.616272    3.073106   -1.215889
     22          1           0       -0.259568    1.353637   -0.037663
     23          1           0       -1.358380   -0.725181    0.829062
     24          1           0       -5.145096    0.641539   -0.658932
     25          1           0       -4.058636    2.724814   -1.530511
     26          7           0       -3.941503   -1.355555    0.633748
     27          8           0       -5.150843   -1.478165    0.451814
     28          8           0       -3.225724   -2.172988    1.208292
 ---------------------------------------------------------------------

 SCF Done:  E(RHF) =  -868.336200690     A.U. after   16 cycles
 E2 =    -0.2601662333D+01 EUMP2 =    -0.87093786302308D+03

 The electronic state is 1-A.
 Alpha  occ. eigenvalues --  -20.61371 -20.61361 -20.60749 -20.60739 -15.86435
 Alpha  occ. eigenvalues --  -15.85801 -11.32059 -11.31254 -11.28730 -11.28616
 Alpha  occ. eigenvalues --  -11.28448 -11.27835 -11.27810 -11.27809 -11.27669
 Alpha  occ. eigenvalues --  -11.27632 -11.26901 -11.26785  -1.60441  -1.59819
 Alpha  occ. eigenvalues --   -1.39986  -1.39370  -1.20286  -1.19439  -1.09609
 Alpha  occ. eigenvalues --   -1.08842  -1.05745  -1.04843  -0.96394  -0.95658
 Alpha  occ. eigenvalues --   -0.87092  -0.86269  -0.83239  -0.82476  -0.78247
 Alpha  occ. eigenvalues --   -0.77492  -0.72642  -0.72021  -0.71776  -0.71332
 Alpha  occ. eigenvalues --   -0.71141  -0.70606  -0.65930  -0.65729  -0.65098
 Alpha  occ. eigenvalues --   -0.64895  -0.63054  -0.62187  -0.56164  -0.55447
 Alpha  occ. eigenvalues --   -0.54134  -0.53795  -0.53182  -0.52812  -0.49423
 Alpha  occ. eigenvalues --   -0.49383  -0.48787  -0.48768  -0.45333  -0.44755
 Alpha  occ. eigenvalues --   -0.38257  -0.37474  -0.37311  -0.36433
 Alpha virt. eigenvalues --    0.04281   0.05031   0.10181   0.11227   0.15576
 Alpha virt. eigenvalues --    0.16490   0.19761   0.21865   0.25597   0.27452
 Alpha virt. eigenvalues --    0.27869   0.28473   0.30543   0.31332   0.31989

 Mulliken charges:
               1
     1  C   -0.169974
     2  C   -0.230009
     3  C   -0.175413
     4  C    0.159460
     5  C   -0.168782
     6  C   -0.218362
     7  H    0.228875
     8  H    0.220968
     9  H    0.278988
    10  H    0.280198
    11  H    0.228018
    12  N    0.488036
    13  O   -0.456196
    14  O   -0.458075
    15  C   -0.174886
    16  C   -0.227306
    17  C   -0.172901
    18  C    0.159635
    19  C   -0.171048
    20  C   -0.217708
    21  H    0.218960
    22  H    0.231292
    23  H    0.277842
    24  H    0.276179
    25  H    0.223076
    26  N    0.488018
    27  O   -0.460422
    28  O   -0.458463
 Sum of Mulliken charges =  -0.00000

 Dipole moment (field-independent basis, Debye):
    X=              2.3071    Y=              8.6311    Z=              0.8826  Tot=              8.9776
 Quadrupole moment (field-independent basis, Debye-Ang):
   XX=           -115.5483   YY=           -108.5287   ZZ=           -103.4486
   XY=             -2.7802   XZ=             19.0365   YZ=             -2.8574

 Normal termination of Gaussian 16 at Wed May  5 16:17:12 2021.
