 Gaussian 16, Revision A.03,
 Gaussian 16:  EM64L-G16RevA.03 25-Dec-2016

 -------------
 #p 6-31g* mp2
 -------------

 ------------------------------------------------------
 Input file generated by CHIRIPA (05-May-2021 14:57:25)
 ------------------------------------------------------
 Symbolic Z-matrix:
 Charge =  0 Multiplicity = 1

                         Standard orientation:
 ---------------------------------------------------------------------
 Center     Atomic      Atomic             Coordinates (Angstroms)
 Number     Number       Type             X           Y           Z
 ---------------------------------------------------------------------
      1          6           0        2.168418   -2.321991    0.339349
      2          6           0        1.996811   -1.440434    1.411696
      3          6           0        2.214650   -0.069477    1.245648
      4          6           0        2.605110    0.387637   -0.012079
      5          6           0        2.784405   -0.465506   -1.099871
      6          6           0        2.560975   -1.832576   -0.910808
      7          1           0        1.997024   -3.385474    0.477279
      8          1           0        1.692007   -1.817699    2.383710
      9          1           0        2.089138    0.635208    2.058718
     10          1           0        3.088887   -0.059703   -2.056967
     11          1           0        2.695016   -2.514877   -1.745400
     12          7           0        2.838686    1.836951   -0.200050
     13          8           0        3.182143    2.214573   -1.318118
     14          8           0        2.673883    2.567857    0.774246
     15          6           0       -3.628532    2.136562    0.105576
     16          6           0       -3.012199    1.588595    1.235349
     17          6           0       -2.420619    0.323177    1.177916
     18          6           0       -2.463951   -0.369711   -0.030934
     19          6           0       -3.070425    0.149325   -1.173774
     20          6           0       -3.655630    1.416448   -1.093266
     21          1           0       -4.085610    3.120231    0.159154
     22          1           0       -2.989644    2.145572    2.167719
     23          1           0       -1.936773   -0.124792    2.037354
     24          1           0       -3.076990   -0.429852   -2.089159
     25          1           0       -4.133580    1.839518   -1.972254
     26          7           0       -1.841046   -1.710255   -0.103951
     27          8           0       -1.892663   -2.300466   -1.180808
     28          8           0       -1.312991   -2.145378    0.917060
 ---------------------------------------------------------------------

 SCF Done:  E(RHF) =  -868.339779182     A.U. after   16 cycles
 E2 =    -0.2600469972D+01 EUMP2 =    -0.87094024915402D+03

 The electronic state is 1-A.
 Alpha  occ. eigenvalues --  -20.61252 -20.61230 -20.60375 -20.60366 -15.86254
 Alpha  occ. eigenvalues --  -15.85418 -11.31379 -11.30496 -11.27937 -11.27903
 Alpha  occ. eigenvalues --  -11.27583 -11.27024 -11.27019 -11.26867 -11.26856
 Alpha  occ. eigenvalues --  -11.26553 -11.25918 -11.25892  -1.60295  -1.59457
 Alpha  occ. eigenvalues --   -1.39863  -1.39019  -1.19518  -1.18617  -1.08955
 Alpha  occ. eigenvalues --   -1.08020  -1.04889  -1.03983  -0.95842  -0.94918
 Alpha  occ. eigenvalues --   -0.86298  -0.85366  -0.82692  -0.81778  -0.77773
 Alpha  occ. eigenvalues --   -0.76894  -0.72525  -0.71645  -0.71592  -0.70779
 Alpha  occ. eigenvalues --   -0.70627  -0.69648  -0.65181  -0.64892  -0.64247
 Alpha  occ. eigenvalues --   -0.63951  -0.62253  -0.61353  -0.55388  -0.54378
 Alpha  occ. eigenvalues --   -0.53220  -0.52984  -0.52320  -0.52058  -0.49286
 Alpha  occ. eigenvalues --   -0.49236  -0.48414  -0.48368  -0.45333  -0.44491
 Alpha  occ. eigenvalues --   -0.37487  -0.36505  -0.36391  -0.35558
 Alpha virt. eigenvalues --    0.04744   0.05640   0.11171   0.12123   0.16336
 Alpha virt. eigenvalues --    0.17246   0.21268   0.22295   0.27112   0.27792
 Alpha virt. eigenvalues --    0.28534   0.29192   0.30908   0.31851   0.32468

 Mulliken charges:
               1
     1  C   -0.159564
     2  C   -0.207059
     3  C   -0.179162
     4  C    0.156312
     5  C   -0.173994
     6  C   -0.218984
     7  H    0.231882
     8  H    0.224240
     9  H    0.268820
    10  H    0.272229
    11  H    0.223824
    12  N    0.488398
    13  O   -0.462852
    14  O   -0.465346
    15  C   -0.168943
    16  C   -0.216665
    17  C   -0.169850
    18  C    0.159297
    19  C   -0.170611
    20  C   -0.217709
    21  H    0.228044
    22  H    0.225146
    23  H    0.270718
    24  H    0.274955
    25  H    0.224917
    26  N    0.490300
    27  O   -0.461583
    28  O   -0.466761
 Sum of Mulliken charges =  -0.00000

 Dipole moment (field-independent basis, Debye):
    X=             -3.2480    Y=             -0.5950    Z=              0.9127  Tot=              3.4259
 Quadrupole moment (field-independent basis, Debye-Ang):
   XX=            -99.4091   YY=           -112.8650   ZZ=            -95.8022
   XY=            -25.9930   XZ=              1.5081   YZ=              1.2593

 Normal termination of Gaussian 16 at Fri May  7 11:11:49 2021.
