 Gaussian 16, Revision A.03,
 Gaussian 16:  EM64L-G16RevA.03 25-Dec-2016

 -------------
 #p 6-31g* mp2
 -------------

 ------------------------------------------------------
 Input file generated by CHIRIPA (05-May-2021 14:55:20)
 ------------------------------------------------------
 Symbolic Z-matrix:
 Charge =  0 Multiplicity = 1

                         Standard orientation:
 ---------------------------------------------------------------------
 Center     Atomic      Atomic             Coordinates (Angstroms)
 Number     Number       Type             X           Y           Z
 ---------------------------------------------------------------------
      1          6           0        0.473944   -0.440170    1.505796
      2          6           0        0.540647   -1.003652    0.227298
      3          6           0        1.734348   -0.974905   -0.499889
      4          6           0        2.847050   -0.371882    0.084532
      5          6           0        2.812221    0.198121    1.356213
      6          6           0        1.607945    0.157864    2.065188
      7          1           0       -0.457460   -0.466972    2.063618
      8          1           0       -0.338449   -1.468758   -0.209638
      9          1           0        1.813896   -1.403554   -1.491529
     10          1           0        3.705243    0.654756    1.765376
     11          1           0        1.559067    0.596266    3.057891
     12          7           0        4.116366   -0.335356   -0.675668
     13          8           0        5.082562    0.201822   -0.138507
     14          8           0        4.121024   -0.844598   -1.794278
     15          6           0       -2.914160    0.923925   -0.688018
     16          6           0       -2.124717    1.937279    0.141365
     17          6           0       -1.204356    2.810608   -0.711878
     18          1           0       -2.211646    0.286540   -1.242237
     19          1           0       -3.509480    1.460287   -1.439887
     20          1           0       -1.532126    1.399250    0.892350
     21          1           0       -2.829189    2.572201    0.693821
     22          1           0       -1.783555    3.372879   -1.451461
     23          1           0       -0.479122    2.193264   -1.251805
     24          1           0       -0.649628    3.527790   -0.098862
     25          6           0       -3.838738    0.043503    0.150875
     26          6           0       -4.628181   -0.969850   -0.678509
     27          6           0       -5.548543   -1.843180    0.174734
     28          1           0       -3.243420   -0.492859    0.902743
     29          1           0       -4.541254    0.680888    0.705093
     30          1           0       -3.923710   -1.604773   -1.230965
     31          1           0       -5.220773   -0.431822   -1.429494
     32          1           0       -6.273777   -1.225835    0.714661
     33          1           0       -4.969344   -2.405451    0.914318
     34          1           0       -6.103271   -2.560361   -0.438281
 ---------------------------------------------------------------------

 SCF Done:  E(RHF) =  -669.534619491     A.U. after   15 cycles
 E2 =    -0.2093873680D+01 EUMP2 =    -0.67162849317087D+03

 The electronic state is 1-A.
 Alpha  occ. eigenvalues --  -20.60809 -20.60804 -15.85865 -11.31256 -11.27846
 Alpha  occ. eigenvalues --  -11.27833 -11.27579 -11.26859 -11.26842 -11.22426
 Alpha  occ. eigenvalues --  -11.22335 -11.22225 -11.22152 -11.21786 -11.21476
 Alpha  occ. eigenvalues --   -1.59884  -1.39437  -1.19445  -1.09251  -1.08827
 Alpha  occ. eigenvalues --   -1.04849  -1.04214  -0.96660  -0.95669  -0.87669
 Alpha  occ. eigenvalues --   -0.86245  -0.82502  -0.80297  -0.79068  -0.77530
 Alpha  occ. eigenvalues --   -0.72083  -0.71208  -0.70592  -0.65973  -0.65090
 Alpha  occ. eigenvalues --   -0.64783  -0.62191  -0.61632  -0.60033  -0.58277
 Alpha  occ. eigenvalues --   -0.55971  -0.55379  -0.53315  -0.53173  -0.53061
 Alpha  occ. eigenvalues --   -0.52921  -0.50600  -0.48847  -0.48835  -0.48595
 Alpha  occ. eigenvalues --   -0.47352  -0.46577  -0.46535  -0.44837  -0.44506
 Alpha  occ. eigenvalues --   -0.37343  -0.36444
 Alpha virt. eigenvalues --    0.04966   0.11112   0.16333   0.18585   0.22943
 Alpha virt. eigenvalues --    0.23777   0.24792   0.25272   0.26957   0.28347
 Alpha virt. eigenvalues --    0.30176   0.30815   0.31096   0.31354   0.31719

 Mulliken charges:
               1
     1  C   -0.171113
     2  C   -0.218216
     3  C   -0.171967
     4  C    0.158840
     5  C   -0.170087
     6  C   -0.219863
     7  H    0.227986
     8  H    0.225555
     9  H    0.276008
    10  H    0.276039
    11  H    0.224167
    12  N    0.488089
    13  O   -0.460155
    14  O   -0.460266
    15  C   -0.300441
    16  C   -0.301762
    17  C   -0.475746
    18  H    0.145779
    19  H    0.154411
    20  H    0.147772
    21  H    0.152331
    22  H    0.156437
    23  H    0.158633
    24  H    0.161262
    25  C   -0.298692
    26  C   -0.299588
    27  C   -0.475864
    28  H    0.138175
    29  H    0.153741
    30  H    0.148836
    31  H    0.156117
    32  H    0.157174
    33  H    0.153160
    34  H    0.163246
 Sum of Mulliken charges =  -0.00000

 Dipole moment (field-independent basis, Debye):
    X=             -4.5132    Y=             -0.0722    Z=              2.6366  Tot=              5.2274
 Quadrupole moment (field-independent basis, Debye-Ang):
   XX=           -119.1147   YY=            -94.0847   ZZ=            -91.8907
   XY=              1.4746   XZ=              9.8957   YZ=              1.3165

 Normal termination of Gaussian 16 at Thu May  6 17:28:19 2021.
