 Gaussian 16, Revision A.03,
 Gaussian 16:  EM64L-G16RevA.03 25-Dec-2016

 -------------
 #p 6-31g* mp2
 -------------

 ------------------------------------------------------
 Input file generated by CHIRIPA (05-May-2021 14:55:21)
 ------------------------------------------------------
 Symbolic Z-matrix:
 Charge =  0 Multiplicity = 1

                         Standard orientation:
 ---------------------------------------------------------------------
 Center     Atomic      Atomic             Coordinates (Angstroms)
 Number     Number       Type             X           Y           Z
 ---------------------------------------------------------------------
      1          6           0        3.742468    2.601004   -0.020153
      2          6           0        2.496990    2.008187   -0.252260
      3          6           0        2.366290    0.616446   -0.275095
      4          6           0        3.507039   -0.155659   -0.061000
      5          6           0        4.761631    0.405237    0.172846
      6          6           0        4.868828    1.799051    0.191286
      7          1           0        3.834870    3.682947   -0.004122
      8          1           0        1.620531    2.628506   -0.416784
      9          1           0        1.414163    0.131263   -0.452495
     10          1           0        5.617271   -0.239345    0.333507
     11          1           0        5.837349    2.256689    0.371782
     12          7           0        3.381113   -1.630131   -0.082848
     13          8           0        4.401359   -2.288223    0.108593
     14          8           0        2.264551   -2.099810   -0.291000
     15          6           0       -5.162302   -0.061761   -0.329854
     16          6           0       -6.343022    0.472795    0.481400
     17          6           0       -7.629680    0.567153   -0.339211
     18          1           0       -4.997694    0.589933   -1.198844
     19          1           0       -5.418497   -1.053698   -0.727121
     20          1           0       -6.084152    1.462833    0.878170
     21          1           0       -6.504717   -0.180141    1.348664
     22          1           0       -7.914991   -0.417726   -0.722895
     23          1           0       -7.492037    1.234583   -1.196063
     24          1           0       -8.460844    0.951556    0.260172
     25          6           0       -3.868848   -0.161858    0.476796
     26          6           0       -2.688127   -0.696413   -0.334458
     27          6           0       -1.401469   -0.790772    0.486153
     28          1           0       -3.612651    0.830079    0.874064
     29          1           0       -4.033454   -0.813553    1.345786
     30          1           0       -2.526432   -0.043478   -1.201722
     31          1           0       -2.946997   -1.686452   -0.731228
     32          1           0       -1.539112   -1.458202    1.343005
     33          1           0       -1.116158    0.194107    0.869836
     34          1           0       -0.570306   -1.175176   -0.113230
 ---------------------------------------------------------------------

 SCF Done:  E(RHF) =  -669.535687978     A.U. after   15 cycles
 E2 =    -0.2091488171D+01 EUMP2 =    -0.67162717614868D+03

 The electronic state is 1-A.
 Alpha  occ. eigenvalues --  -20.60801 -20.60796 -15.85844 -11.31155 -11.27740
 Alpha  occ. eigenvalues --  -11.27680 -11.27484 -11.26748 -11.26731 -11.21630
 Alpha  occ. eigenvalues --  -11.21587 -11.21423 -11.21363 -11.21096 -11.20988
 Alpha  occ. eigenvalues --   -1.59868  -1.39424  -1.19335  -1.08743  -1.08444
 Alpha  occ. eigenvalues --   -1.04733  -1.03535  -0.95991  -0.95578  -0.87008
 Alpha  occ. eigenvalues --   -0.86132  -0.82418  -0.79603  -0.78258  -0.77466
 Alpha  occ. eigenvalues --   -0.72070  -0.71183  -0.70455  -0.65085  -0.64992
 Alpha  occ. eigenvalues --   -0.64750  -0.62126  -0.60930  -0.59318  -0.57581
 Alpha  occ. eigenvalues --   -0.55342  -0.55190  -0.53069  -0.52986  -0.52493
 Alpha  occ. eigenvalues --   -0.52377  -0.49930  -0.48823  -0.48815  -0.47898
 Alpha  occ. eigenvalues --   -0.46638  -0.45796  -0.45730  -0.44841  -0.43756
 Alpha  occ. eigenvalues --   -0.37323  -0.36332
 Alpha virt. eigenvalues --    0.05056   0.11310   0.16550   0.20894   0.22895
 Alpha virt. eigenvalues --    0.24092   0.26508   0.26830   0.27396   0.27822
 Alpha virt. eigenvalues --    0.29570   0.29896   0.31499   0.31678   0.31916

 Mulliken charges:
               1
     1  C   -0.170230
     2  C   -0.222884
     3  C   -0.172701
     4  C    0.155172
     5  C   -0.169995
     6  C   -0.219198
     7  H    0.225436
     8  H    0.223630
     9  H    0.286831
    10  H    0.275438
    11  H    0.223278
    12  N    0.489686
    13  O   -0.459908
    14  O   -0.464722
    15  C   -0.298169
    16  C   -0.299533
    17  C   -0.475682
    18  H    0.148333
    19  H    0.151003
    20  H    0.150703
    21  H    0.152673
    22  H    0.155937
    23  H    0.154591
    24  H    0.160175
    25  C   -0.298046
    26  C   -0.299491
    27  C   -0.491056
    28  H    0.146505
    29  H    0.151359
    30  H    0.147404
    31  H    0.156580
    32  H    0.161880
    33  H    0.144398
    34  H    0.180602
 Sum of Mulliken charges =  -0.00000

 Dipole moment (field-independent basis, Debye):
    X=              0.4455    Y=              5.0682    Z=              0.0838  Tot=              5.0884
 Quadrupole moment (field-independent basis, Debye-Ang):
   XX=            -87.8365   YY=            -95.9063   ZZ=            -95.6695
   XY=             18.5000   XZ=              0.7641   YZ=             -0.6814

 Normal termination of Gaussian 16 at Wed May  5 20:34:49 2021.
