 Gaussian 16, Revision A.03,
 Gaussian 16:  EM64L-G16RevA.03 25-Dec-2016

 -------------
 #p 6-31g* mp2
 -------------

 ------------------------------------------------------
 Input file generated by CHIRIPA (05-May-2021 14:51:12)
 ------------------------------------------------------
 Symbolic Z-matrix:
 Charge =  0 Multiplicity = 1

                         Standard orientation:
 ---------------------------------------------------------------------
 Center     Atomic      Atomic             Coordinates (Angstroms)
 Number     Number       Type             X           Y           Z
 ---------------------------------------------------------------------
      1          6           0       -2.348302   -0.075613   -0.794973
      2          6           0       -3.366405   -1.199610   -0.599831
      3          6           0       -3.115069   -2.391820   -1.523552
      4          1           0       -2.375451    0.257461   -1.841524
      5          1           0       -1.338192   -0.470613   -0.618772
      6          1           0       -4.374402   -0.802274   -0.774995
      7          1           0       -3.336965   -1.529917    0.446423
      8          1           0       -2.121426   -2.815150   -1.344476
      9          1           0       -3.164758   -2.083373   -2.572833
     10          1           0       -3.854353   -3.183596   -1.367314
     11          6           0       -2.586362    1.123245    0.121431
     12          6           0       -1.568258    2.247243   -0.073710
     13          6           0       -1.819595    3.439453    0.850010
     14          1           0       -3.596472    1.518245   -0.054770
     15          1           0       -2.559213    0.790171    1.167982
     16          1           0       -1.597699    2.577549   -1.119964
     17          1           0       -0.560262    1.849907    0.101453
     18          1           0       -1.769906    3.131005    1.899292
     19          1           0       -2.813237    3.862782    0.670934
     20          1           0       -1.080310    4.231228    0.693772
     21          6           0        1.734293   -0.707867    0.447277
     22          6           0        1.474555   -1.380178    1.795802
     23          6           0        0.003498   -1.742391    2.002167
     24          1           0        1.117970    0.198445    0.371846
     25          1           0        1.404269   -1.378237   -0.358381
     26          1           0        1.806244   -0.709314    2.598634
     27          1           0        2.091711   -2.284891    1.868110
     28          1           0       -0.336834   -2.430890    1.221947
     29          1           0       -0.623924   -0.846362    1.956622
     30          1           0       -0.159618   -2.221812    2.972429
     31          6           0        3.200370   -0.339765    0.226265
     32          6           0        3.460109    0.332545   -1.122260
     33          6           0        4.931165    0.694759   -1.328626
     34          1           0        3.530394    0.330604    1.031922
     35          1           0        3.816694   -1.246076    0.301695
     36          1           0        2.842952    1.237258   -1.194568
     37          1           0        3.128420   -0.338319   -1.925093
     38          1           0        5.558587   -0.201271   -1.283080
     39          1           0        5.271498    1.383258   -0.548406
     40          1           0        5.094281    1.174179   -2.298888
 ---------------------------------------------------------------------

 SCF Done:  E(RHF) =  -470.732457702     A.U. after   11 cycles
 E2 =    -0.1585527990D+01 EUMP2 =    -0.47231798569222D+03

 The electronic state is 1-A.
 Alpha  occ. eigenvalues --  -11.21695 -11.21631 -11.21610 -11.21510 -11.21473
 Alpha  occ. eigenvalues --  -11.21410 -11.21360 -11.21220 -11.21173 -11.21096
 Alpha  occ. eigenvalues --  -11.21093 -11.21034  -1.08530  -1.08364  -1.03602
 Alpha  occ. eigenvalues --   -1.03501  -0.96059  -0.95945  -0.87074  -0.86965
 Alpha  occ. eigenvalues --   -0.79672  -0.79570  -0.78462  -0.78069  -0.65296
 Alpha  occ. eigenvalues --   -0.64909  -0.61087  -0.60822  -0.59418  -0.59317
 Alpha  occ. eigenvalues --   -0.57660  -0.57559  -0.55487  -0.55114  -0.52746
 Alpha  occ. eigenvalues --   -0.52662  -0.52471  -0.52372  -0.50013  -0.49896
 Alpha  occ. eigenvalues --   -0.48024  -0.47909  -0.46769  -0.46612  -0.46340
 Alpha  occ. eigenvalues --   -0.45726  -0.45680  -0.45022  -0.43850  -0.43738
 Alpha virt. eigenvalues --    0.19793   0.22243   0.23162   0.24526   0.25633
 Alpha virt. eigenvalues --    0.25994   0.26575   0.27632   0.28360   0.30483
 Alpha virt. eigenvalues --    0.30771   0.31233   0.31633   0.31827   0.32238

 Mulliken charges:
               1
     1  C   -0.305739
     2  C   -0.300218
     3  C   -0.476320
     4  H    0.148842
     5  H    0.159626
     6  H    0.151393
     7  H    0.153646
     8  H    0.154584
     9  H    0.155044
    10  H    0.160116
    11  C   -0.300354
    12  C   -0.307967
    13  C   -0.475051
    14  H    0.149978
    15  H    0.150191
    16  H    0.152542
    17  H    0.157718
    18  H    0.154690
    19  H    0.155603
    20  H    0.159945
    21  C   -0.309983
    22  C   -0.298875
    23  C   -0.482532
    24  H    0.159497
    25  H    0.149988
    26  H    0.152031
    27  H    0.152436
    28  H    0.156646
    29  H    0.159969
    30  H    0.160901
    31  C   -0.297437
    32  C   -0.299988
    33  C   -0.475770
    34  H    0.149547
    35  H    0.149908
    36  H    0.152218
    37  H    0.152248
    38  H    0.155235
    39  H    0.155209
    40  H    0.160486
 Sum of Mulliken charges =  -0.00000

 Dipole moment (field-independent basis, Debye):
    X=              0.0436    Y=             -0.0095    Z=              0.0112  Tot=              0.0460
 Quadrupole moment (field-independent basis, Debye-Ang):
   XX=            -85.4964   YY=            -84.7879   ZZ=            -84.5518
   XY=             -0.7034   XZ=              0.6554   YZ=             -0.4207

 Normal termination of Gaussian 16 at Thu May  6 03:53:13 2021.
