 Gaussian 16, Revision A.03,
 Gaussian 16:  EM64L-G16RevA.03 25-Dec-2016

 -------------
 #p 6-31g* mp2
 -------------

 ------------------------------------------------------
 Input file generated by CHIRIPA (05-May-2021 14:55:22)
 ------------------------------------------------------
 Symbolic Z-matrix:
 Charge =  0 Multiplicity = 1

                         Standard orientation:
 ---------------------------------------------------------------------
 Center     Atomic      Atomic             Coordinates (Angstroms)
 Number     Number       Type             X           Y           Z
 ---------------------------------------------------------------------
      1          6           0       -4.588916   -2.185377   -0.104132
      2          6           0       -5.320354   -1.048123   -0.462148
      3          6           0       -4.711013    0.209948   -0.484719
      4          6           0       -3.362445    0.294669   -0.141971
      5          6           0       -2.606944   -0.819852    0.219073
      6          6           0       -3.236930   -2.067819    0.234738
      7          1           0       -5.070285   -3.158752   -0.089281
      8          1           0       -6.370468   -1.136423   -0.725793
      9          1           0       -5.253663    1.106742   -0.758049
     10          1           0       -1.561650   -0.700249    0.476895
     11          1           0       -2.666412   -2.949309    0.513179
     12          7           0       -2.706436    1.621184   -0.162211
     13          8           0       -1.517069    1.669160    0.143964
     14          8           0       -3.394043    2.587812   -0.483866
     15          6           0        3.953955    0.220787    0.671142
     16          6           0        2.527504   -0.314845    0.543381
     17          6           0        1.562195    0.331186    1.537672
     18          1           0        4.312321    0.050667    1.695632
     19          1           0        3.944418    1.309119    0.520018
     20          1           0        2.539926   -1.402033    0.693330
     21          1           0        2.172563   -0.143602   -0.480976
     22          1           0        1.520165    1.414533    1.385375
     23          1           0        1.889615    0.148952    2.566355
     24          1           0        0.548269   -0.066289    1.428913
     25          6           0        4.930687   -0.415458   -0.316235
     26          6           0        6.357137    0.120175   -0.188473
     27          6           0        7.322446   -0.525856   -1.182764
     28          1           0        4.940225   -1.503789   -0.165111
     29          1           0        4.572320   -0.245337   -1.340724
     30          1           0        6.712079   -0.051068    0.835884
     31          1           0        6.344717    1.207362   -0.338423
     32          1           0        6.995027   -0.343622   -2.211447
     33          1           0        7.364477   -1.609202   -1.030468
     34          1           0        8.336373   -0.128381   -1.074006
 ---------------------------------------------------------------------

 SCF Done:  E(RHF) =  -669.535257543     A.U. after   15 cycles
 E2 =    -0.2091481200D+01 EUMP2 =    -0.67162673874283D+03

 The electronic state is 1-A.
 Alpha  occ. eigenvalues --  -20.60797 -20.60792 -15.85843 -11.31211 -11.27779
 Alpha  occ. eigenvalues --  -11.27775 -11.27524 -11.26798 -11.26788 -11.21361
 Alpha  occ. eigenvalues --  -11.21216 -11.21117 -11.21011 -11.20881 -11.20468
 Alpha  occ. eigenvalues --   -1.59872  -1.39425  -1.19385  -1.08780  -1.08110
 Alpha  occ. eigenvalues --   -1.04789  -1.03187  -0.95671  -0.95566  -0.86635
 Alpha  occ. eigenvalues --   -0.86187  -0.82447  -0.79258  -0.77929  -0.77493
 Alpha  occ. eigenvalues --   -0.72069  -0.71191  -0.70502  -0.65041  -0.64805
 Alpha  occ. eigenvalues --   -0.64731  -0.62172  -0.60564  -0.59005  -0.57256
 Alpha  occ. eigenvalues --   -0.55292  -0.54877  -0.53117  -0.52949  -0.52266
 Alpha  occ. eigenvalues --   -0.52030  -0.49539  -0.48826  -0.48804  -0.47567
 Alpha  occ. eigenvalues --   -0.46279  -0.45465  -0.45387  -0.44829  -0.43441
 Alpha  occ. eigenvalues --   -0.37366  -0.36390
 Alpha virt. eigenvalues --    0.05035   0.11257   0.16532   0.20635   0.23143
 Alpha virt. eigenvalues --    0.24009   0.26445   0.26977   0.27718   0.27865
 Alpha virt. eigenvalues --    0.29266   0.30442   0.31532   0.31797   0.32165

 Mulliken charges:
               1
     1  C   -0.170272
     2  C   -0.219118
     3  C   -0.169611
     4  C    0.154011
     5  C   -0.175178
     6  C   -0.223143
     7  H    0.225742
     8  H    0.223526
     9  H    0.275746
    10  H    0.289959
    11  H    0.224295
    12  N    0.488387
    13  O   -0.463334
    14  O   -0.460216
    15  C   -0.298486
    16  C   -0.301409
    17  C   -0.475563
    18  H    0.148326
    19  H    0.152916
    20  H    0.144397
    21  H    0.154697
    22  H    0.170312
    23  H    0.149542
    24  H    0.156929
    25  C   -0.298003
    26  C   -0.299571
    27  C   -0.475540
    28  H    0.147186
    29  H    0.150047
    30  H    0.151311
    31  H    0.153059
    32  H    0.155216
    33  H    0.154008
    34  H    0.159833
 Sum of Mulliken charges =  -0.00000

 Dipole moment (field-independent basis, Debye):
    X=             -2.3862    Y=             -4.5321    Z=              0.0492  Tot=              5.1222
 Quadrupole moment (field-independent basis, Debye-Ang):
   XX=            -76.5806   YY=            -96.6959   ZZ=            -95.3073
   XY=             13.7282   XZ=              2.2053   YZ=             -0.6455

 Normal termination of Gaussian 16 at Thu May  6 03:01:57 2021.
