 Gaussian 16, Revision A.03,
 Gaussian 16:  EM64L-G16RevA.03 25-Dec-2016

 -------------
 #p 6-31g* mp2
 -------------

 ------------------------------------------------------
 Input file generated by CHIRIPA (05-May-2021 14:51:10)
 ------------------------------------------------------
 Symbolic Z-matrix:
 Charge =  0 Multiplicity = 1

                         Standard orientation:
 ---------------------------------------------------------------------
 Center     Atomic      Atomic             Coordinates (Angstroms)
 Number     Number       Type             X           Y           Z
 ---------------------------------------------------------------------
      1          6           0        4.582481   -0.647118    0.008166
      2          6           0        5.563330    0.421467   -0.475617
      3          6           0        6.970362   -0.129664   -0.708662
      4          1           0        4.962840   -1.090643    0.938520
      5          1           0        4.541482   -1.458946   -0.731191
      6          1           0        5.601425    1.231695    0.263771
      7          1           0        5.180497    0.862634   -1.404825
      8          1           0        6.953154   -0.923724   -1.462170
      9          1           0        7.376474   -0.552566    0.215907
     10          1           0        7.655212    0.651048   -1.054104
     11          6           0        3.171647   -0.111487    0.245599
     12          6           0        2.190797   -1.180072    0.729383
     13          6           0        0.783766   -0.628941    0.962427
     14          1           0        3.212646    0.700341    0.984956
     15          1           0        2.791288    0.332038   -0.684754
     16          1           0        2.573630   -1.621239    1.658590
     17          1           0        2.152703   -1.990300   -0.010006
     18          1           0        0.377654   -0.206039    0.037858
     19          1           0        0.800974    0.165119    1.715935
     20          1           0        0.098916   -1.409653    1.307869
     21          6           0       -3.991367   -0.370382   -0.035558
     22          6           0       -5.365035   -0.837522   -0.518050
     23          6           0       -5.578739   -2.339615   -0.328727
     24          1           0       -3.211918   -0.924149   -0.576618
     25          1           0       -3.876821   -0.626960    1.026724
     26          1           0       -5.477500   -0.578902   -1.578750
     27          1           0       -6.141302   -0.282441    0.024084
     28          1           0       -5.493319   -2.610640    0.728557
     29          1           0       -4.825745   -2.908785   -0.883384
     30          1           0       -6.567035   -2.651967   -0.680250
     31          6           0       -3.762761    1.128987   -0.218207
     32          6           0       -2.389092    1.596127    0.264286
     33          6           0       -2.175388    3.098220    0.074962
     34          1           0       -3.877307    1.385565   -1.280488
     35          1           0       -4.542210    1.682755    0.322853
     36          1           0       -1.612825    1.041046   -0.277849
     37          1           0       -2.276627    1.337507    1.324985
     38          1           0       -2.928383    3.667390    0.629619
     39          1           0       -2.260809    3.369246   -0.982322
     40          1           0       -1.187093    3.410572    0.426484
 ---------------------------------------------------------------------

 SCF Done:  E(RHF) =  -470.732997298     A.U. after   11 cycles
 E2 =    -0.1582682003D+01 EUMP2 =    -0.47231567930164D+03

 The electronic state is 1-A.
 Alpha  occ. eigenvalues --  -11.21601 -11.21575 -11.21570 -11.21478 -11.21401
 Alpha  occ. eigenvalues --  -11.21350 -11.21342 -11.21288 -11.21071 -11.21050
 Alpha  occ. eigenvalues --  -11.21018 -11.21008  -1.08426  -1.08371  -1.03532
 Alpha  occ. eigenvalues --   -1.03461  -0.95975  -0.95922  -0.87010  -0.86923
 Alpha  occ. eigenvalues --   -0.79682  -0.79448  -0.78270  -0.78140  -0.65079
 Alpha  occ. eigenvalues --   -0.64989  -0.60992  -0.60812  -0.59333  -0.59305
 Alpha  occ. eigenvalues --   -0.57651  -0.57465  -0.55290  -0.55195  -0.52696
 Alpha  occ. eigenvalues --   -0.52601  -0.52435  -0.52313  -0.50001  -0.49812
 Alpha  occ. eigenvalues --   -0.48092  -0.47678  -0.46750  -0.46445  -0.45882
 Alpha  occ. eigenvalues --   -0.45724  -0.45660  -0.45471  -0.43773  -0.43720
 Alpha virt. eigenvalues --    0.22074   0.23039   0.23772   0.24699   0.25725
 Alpha virt. eigenvalues --    0.26537   0.26951   0.27523   0.28017   0.29266
 Alpha virt. eigenvalues --    0.30203   0.31198   0.31773   0.32029   0.32179

 Mulliken charges:
               1
     1  C   -0.298218
     2  C   -0.299639
     3  C   -0.475700
     4  H    0.149682
     5  H    0.149460
     6  H    0.151925
     7  H    0.151886
     8  H    0.155158
     9  H    0.155188
    10  H    0.160249
    11  C   -0.298190
    12  C   -0.300264
    13  C   -0.476790
    14  H    0.149454
    15  H    0.149308
    16  H    0.151703
    17  H    0.151555
    18  H    0.157449
    19  H    0.155255
    20  H    0.160555
    21  C   -0.298221
    22  C   -0.299571
    23  C   -0.475648
    24  H    0.149598
    25  H    0.149527
    26  H    0.151745
    27  H    0.151891
    28  H    0.155106
    29  H    0.155053
    30  H    0.160125
    31  C   -0.298064
    32  C   -0.303732
    33  C   -0.475744
    34  H    0.148863
    35  H    0.149233
    36  H    0.157666
    37  H    0.152640
    38  H    0.154792
    39  H    0.154503
    40  H    0.160214
 Sum of Mulliken charges =  -0.00000

 Dipole moment (field-independent basis, Debye):
    X=              0.0098    Y=             -0.0054    Z=              0.0109  Tot=              0.0157
 Quadrupole moment (field-independent basis, Debye-Ang):
   XX=            -86.0029   YY=            -86.0226   ZZ=            -82.9910
   XY=             -0.0322   XZ=              0.0953   YZ=              0.4136

 Normal termination of Gaussian 16 at Wed May  5 16:40:07 2021.
