 Gaussian 16, Revision A.03,
 Gaussian 16:  EM64L-G16RevA.03 25-Dec-2016

 -------------
 #p 6-31g* mp2
 -------------

 ------------------------------------------------------
 Input file generated by CHIRIPA (05-May-2021 14:55:24)
 ------------------------------------------------------
 Symbolic Z-matrix:
 Charge =  0 Multiplicity = 1

                         Standard orientation:
 ---------------------------------------------------------------------
 Center     Atomic      Atomic             Coordinates (Angstroms)
 Number     Number       Type             X           Y           Z
 ---------------------------------------------------------------------
      1          6           0        1.035250   -1.908198   -0.062512
      2          6           0        2.325982   -2.446175   -0.095886
      3          6           0        3.445169   -1.608853   -0.066542
      4          6           0        3.236012   -0.232057   -0.003486
      5          6           0        1.962663    0.334231    0.031028
      6          6           0        0.858022   -0.522156    0.000727
      7          1           0        0.171488   -2.566055   -0.085679
      8          1           0        2.466632   -3.522209   -0.145002
      9          1           0        4.455562   -1.998610   -0.091265
     10          1           0        1.854208    1.410921    0.079941
     11          1           0       -0.143208   -0.101556    0.026762
     12          7           0        4.413145    0.664470    0.028086
     13          8           0        4.202071    1.874013    0.083679
     14          8           0        5.524568    0.140649   -0.003360
     15          6           0       -3.413724    0.992714    0.321599
     16          6           0       -3.279200    2.279268   -0.493673
     17          6           0       -2.315432    3.282792    0.140271
     18          1           0       -3.756484    1.242514    1.335039
     19          1           0       -2.422566    0.531330    0.431712
     20          1           0       -4.270525    2.737363   -0.603391
     21          1           0       -2.936903    2.026358   -1.505348
     22          1           0       -1.314760    2.848877    0.234993
     23          1           0       -2.655958    3.563921    1.142074
     24          1           0       -2.234304    4.195071   -0.458914
     25          6           0       -4.373812   -0.020387   -0.299355
     26          6           0       -4.508336   -1.306940    0.515918
     27          6           0       -5.472103   -2.310464   -0.118026
     28          1           0       -5.364970    0.440998   -0.409467
     29          1           0       -4.031051   -0.270186   -1.312796
     30          1           0       -4.850632   -1.054031    1.527593
     31          1           0       -3.517011   -1.765036    0.625636
     32          1           0       -5.131578   -2.591594   -1.119830
     33          1           0       -6.472777   -1.876549   -0.212748
     34          1           0       -5.553232   -3.222744    0.481159
 ---------------------------------------------------------------------

 SCF Done:  E(RHF) =  -669.535412704     A.U. after   15 cycles
 E2 =    -0.2091467117D+01 EUMP2 =    -0.67162687982064D+03

 The electronic state is 1-A.
 Alpha  occ. eigenvalues --  -20.60746 -20.60741 -15.85799 -11.31171 -11.27742
 Alpha  occ. eigenvalues --  -11.27738 -11.27489 -11.26760 -11.26739 -11.22478
 Alpha  occ. eigenvalues --  -11.22427 -11.22369 -11.22235 -11.21820 -11.21806
 Alpha  occ. eigenvalues --   -1.59821  -1.39375  -1.19345  -1.09320  -1.08740
 Alpha  occ. eigenvalues --   -1.04751  -1.04347  -0.96791  -0.95573  -0.87801
 Alpha  occ. eigenvalues --   -0.86152  -0.82408  -0.80404  -0.79146  -0.77451
 Alpha  occ. eigenvalues --   -0.72018  -0.71144  -0.70457  -0.66016  -0.64998
 Alpha  occ. eigenvalues --   -0.64735  -0.62138  -0.61711  -0.60150  -0.58397
 Alpha  occ. eigenvalues --   -0.56096  -0.55254  -0.53447  -0.53228  -0.53078
 Alpha  occ. eigenvalues --   -0.52841  -0.50735  -0.48790  -0.48772  -0.48705
 Alpha  occ. eigenvalues --   -0.47450  -0.46665  -0.46599  -0.44779  -0.44618
 Alpha  occ. eigenvalues --   -0.37328  -0.36352
 Alpha virt. eigenvalues --    0.05085   0.11295   0.16573   0.18082   0.22720
 Alpha virt. eigenvalues --    0.23098   0.24958   0.26016   0.26410   0.27897
 Alpha virt. eigenvalues --    0.29532   0.30322   0.31040   0.31298   0.31673

 Mulliken charges:
               1
     1  C   -0.174015
     2  C   -0.218493
     3  C   -0.171126
     4  C    0.159133
     5  C   -0.174344
     6  C   -0.227654
     7  H    0.225764
     8  H    0.223400
     9  H    0.275567
    10  H    0.276498
    11  H    0.237052
    12  N    0.488007
    13  O   -0.460244
    14  O   -0.460599
    15  C   -0.304007
    16  C   -0.301249
    17  C   -0.474512
    18  H    0.154656
    19  H    0.141790
    20  H    0.156278
    21  H    0.152587
    22  H    0.147180
    23  H    0.158745
    24  H    0.165765
    25  C   -0.298887
    26  C   -0.298232
    27  C   -0.476304
    28  H    0.153880
    29  H    0.149579
    30  H    0.155146
    31  H    0.143682
    32  H    0.155113
    33  H    0.158184
    34  H    0.161657
 Sum of Mulliken charges =  -0.00000

 Dipole moment (field-independent basis, Debye):
    X=             -4.3913    Y=             -3.0676    Z=             -0.1157  Tot=              5.3579
 Quadrupole moment (field-independent basis, Debye-Ang):
   XX=           -118.8192   YY=            -90.3743   ZZ=            -95.4692
   XY=            -13.2967   XZ=             -1.1448   YZ=              0.1700

 Normal termination of Gaussian 16 at Thu May  6 01:34:28 2021.
