 Gaussian 16, Revision A.03,
 Gaussian 16:  EM64L-G16RevA.03 25-Dec-2016

 -------------
 #p 6-31g* mp2
 -------------

 ------------------------------------------------------
 Input file generated by CHIRIPA (05-May-2021 14:53:12)
 ------------------------------------------------------
 Symbolic Z-matrix:
 Charge =  0 Multiplicity = 1

                         Standard orientation:
 ---------------------------------------------------------------------
 Center     Atomic      Atomic             Coordinates (Angstroms)
 Number     Number       Type             X           Y           Z
 ---------------------------------------------------------------------
      1          6           0       -3.563212    0.645673   -0.043116
      2          6           0       -3.443101    1.828117    0.918853
      3          6           0       -2.263876    2.742952    0.586742
      4          1           0       -2.630054    0.066329   -0.020247
      5          1           0       -3.670173    1.025633   -1.068583
      6          1           0       -3.337787    1.446055    1.942354
      7          1           0       -4.376724    2.404604    0.893834
      8          1           0       -2.366131    3.151794   -0.423701
      9          1           0       -1.321291    2.187798    0.630776
     10          1           0       -2.196731    3.581534    1.286836
     11          6           0       -4.737415   -0.278006    0.275936
     12          6           0       -4.857526   -1.460450   -0.686033
     13          6           0       -6.036751   -2.375286   -0.353922
     14          1           0       -4.630453   -0.657967    1.301403
     15          1           0       -5.670572    0.301338    0.253066
     16          1           0       -3.923902   -2.036937   -0.661014
     17          1           0       -4.962839   -1.078388   -1.709534
     18          1           0       -6.979335   -1.820132   -0.397956
     19          1           0       -5.934495   -2.784127    0.656521
     20          1           0       -6.103895   -3.213868   -1.054016
     21          6           0        2.301921    2.118955   -0.692708
     22          6           0        1.447350    1.020603   -0.551814
     23          6           0        1.957419   -0.237720   -0.218644
     24          6           0        3.333357   -0.362358   -0.032769
     25          6           0        4.210538    0.712859   -0.166012
     26          6           0        3.678361    1.961855   -0.499697
     27          1           0        1.897100    3.092827   -0.951722
     28          1           0        0.377966    1.139659   -0.701113
     29          1           0        1.318560   -1.104880   -0.103273
     30          1           0        5.272111    0.563103   -0.010920
     31          1           0        4.344414    2.813083   -0.608458
     32          7           0        3.885048   -1.689550    0.320216
     33          8           0        5.101000   -1.773120    0.478684
     34          8           0        3.091063   -2.621101    0.431733
 ---------------------------------------------------------------------

 SCF Done:  E(RHF) =  -669.535619760     A.U. after   15 cycles
 E2 =    -0.2091077716D+01 EUMP2 =    -0.67162669747591D+03

 The electronic state is 1-A.
 Alpha  occ. eigenvalues --  -20.60748 -20.60743 -15.85801 -11.31161 -11.27735
 Alpha  occ. eigenvalues --  -11.27729 -11.27463 -11.26740 -11.26700 -11.22348
 Alpha  occ. eigenvalues --  -11.22126 -11.22064 -11.21995 -11.21874 -11.21347
 Alpha  occ. eigenvalues --   -1.59824  -1.39377  -1.19333  -1.09044  -1.08725
 Alpha  occ. eigenvalues --   -1.04737  -1.04132  -0.96605  -0.95562  -0.87626
 Alpha  occ. eigenvalues --   -0.86132  -0.82396  -0.80212  -0.78839  -0.77445
 Alpha  occ. eigenvalues --   -0.72020  -0.71147  -0.70435  -0.65683  -0.64983
 Alpha  occ. eigenvalues --   -0.64752  -0.62129  -0.61491  -0.59975  -0.58199
 Alpha  occ. eigenvalues --   -0.55913  -0.55223  -0.53281  -0.53157  -0.53038
 Alpha  occ. eigenvalues --   -0.52734  -0.50536  -0.48790  -0.48775  -0.48499
 Alpha  occ. eigenvalues --   -0.47227  -0.46383  -0.46280  -0.44784  -0.44381
 Alpha  occ. eigenvalues --   -0.37306  -0.36335
 Alpha virt. eigenvalues --    0.05091   0.11217   0.16554   0.19873   0.22591
 Alpha virt. eigenvalues --    0.23731   0.25333   0.26460   0.27004   0.28436
 Alpha virt. eigenvalues --    0.28960   0.30283   0.31209   0.31376   0.31760

 Mulliken charges:
               1
     1  C   -0.298746
     2  C   -0.299464
     3  C   -0.482141
     4  H    0.143855
     5  H    0.149521
     6  H    0.155676
     7  H    0.155301
     8  H    0.153801
     9  H    0.150871
    10  H    0.164755
    11  C   -0.298816
    12  C   -0.300305
    13  C   -0.476174
    14  H    0.151873
    15  H    0.151311
    16  H    0.152567
    17  H    0.151884
    18  H    0.155500
    19  H    0.156660
    20  H    0.162114
    21  C   -0.171855
    22  C   -0.223539
    23  C   -0.171950
    24  C    0.158634
    25  C   -0.170920
    26  C   -0.218579
    27  H    0.226531
    28  H    0.230696
    29  H    0.275099
    30  H    0.275537
    31  H    0.223347
    32  N    0.488091
    33  O   -0.460499
    34  O   -0.460636
 Sum of Mulliken charges =  -0.00000

 Dipole moment (field-independent basis, Debye):
    X=             -2.1247    Y=              4.6817    Z=             -1.2041  Tot=              5.2804
 Quadrupole moment (field-independent basis, Debye-Ang):
   XX=           -102.9577   YY=            -98.0406   ZZ=            -95.1473
   XY=             17.6440   XZ=             -3.7305   YZ=              0.1309

 Normal termination of Gaussian 16 at Thu May  6 08:51:56 2021.
