 Gaussian 16, Revision A.03,
 Gaussian 16:  EM64L-G16RevA.03 25-Dec-2016

 -------------
 #p 6-31g* mp2
 -------------

 ------------------------------------------------------
 Input file generated by CHIRIPA (05-May-2021 14:55:24)
 ------------------------------------------------------
 Symbolic Z-matrix:
 Charge =  0 Multiplicity = 1

                         Standard orientation:
 ---------------------------------------------------------------------
 Center     Atomic      Atomic             Coordinates (Angstroms)
 Number     Number       Type             X           Y           Z
 ---------------------------------------------------------------------
      1          6           0        3.348577   -1.865000    0.546701
      2          6           0        2.613178   -1.650189   -0.623583
      3          6           0        2.159590   -0.369205   -0.952045
      4          6           0        2.460830    0.678803   -0.083585
      5          6           0        3.191345    0.496739    1.089654
      6          6           0        3.634809   -0.792741    1.398084
      7          1           0        3.697003   -2.863399    0.794078
      8          1           0        2.389401   -2.481041   -1.286646
      9          1           0        1.588344   -0.174707   -1.851637
     10          1           0        3.398766    1.344768    1.730936
     11          1           0        4.205729   -0.956610    2.307613
     12          7           0        1.985996    2.039420   -0.420709
     13          8           0        2.264602    2.946005    0.361032
     14          8           0        1.344205    2.173523   -1.460305
     15          6           0       -3.516599    0.132815    0.076530
     16          6           0       -5.004130    0.206358    0.422691
     17          6           0       -5.522691    1.642622    0.500386
     18          1           0       -2.943403    0.690887    0.829487
     19          1           0       -3.345433    0.637906   -0.884189
     20          1           0       -5.172654   -0.299928    1.381800
     21          1           0       -5.573835   -0.352115   -0.331072
     22          1           0       -5.383494    2.154785   -0.457170
     23          1           0       -4.980033    2.207269    1.265434
     24          1           0       -6.588138    1.671875    0.749039
     25          6           0       -2.983467   -1.296480   -0.004791
     26          6           0       -1.495936   -1.370023   -0.350954
     27          6           0       -0.977374   -2.806287   -0.428649
     28          1           0       -3.154633   -1.801571    0.955927
     29          1           0       -3.556663   -1.854553   -0.757749
     30          1           0       -0.926230   -0.811549    0.402810
     31          1           0       -1.327411   -0.863737   -1.310062
     32          1           0       -1.520032   -3.370933   -1.193696
     33          1           0       -1.116572   -3.318449    0.528907
     34          1           0        0.088072   -2.835540   -0.677301
 ---------------------------------------------------------------------

 SCF Done:  E(RHF) =  -669.534524024     A.U. after   15 cycles
 E2 =    -0.2093245229D+01 EUMP2 =    -0.67162776925363D+03

 The electronic state is 1-A.
 Alpha  occ. eigenvalues --  -20.60788 -20.60782 -15.85843 -11.31225 -11.27798
 Alpha  occ. eigenvalues --  -11.27793 -11.27538 -11.26810 -11.26799 -11.21711
 Alpha  occ. eigenvalues --  -11.21418 -11.21380 -11.21371 -11.21168 -11.20809
 Alpha  occ. eigenvalues --   -1.59862  -1.39415  -1.19408  -1.08796  -1.08371
 Alpha  occ. eigenvalues --   -1.04825  -1.03511  -0.95975  -0.95623  -0.87007
 Alpha  occ. eigenvalues --   -0.86203  -0.82463  -0.79586  -0.78150  -0.77509
 Alpha  occ. eigenvalues --   -0.72061  -0.71185  -0.70502  -0.65060  -0.65002
 Alpha  occ. eigenvalues --   -0.64843  -0.62217  -0.60908  -0.59389  -0.57605
 Alpha  occ. eigenvalues --   -0.55305  -0.55249  -0.53272  -0.52978  -0.52560
 Alpha  occ. eigenvalues --   -0.52263  -0.49900  -0.48821  -0.48813  -0.47897
 Alpha  occ. eigenvalues --   -0.46607  -0.45699  -0.45603  -0.44813  -0.43767
 Alpha  occ. eigenvalues --   -0.37362  -0.36346
 Alpha virt. eigenvalues --    0.05020   0.11157   0.16423   0.20714   0.23012
 Alpha virt. eigenvalues --    0.24340   0.26252   0.26696   0.27225   0.28273
 Alpha virt. eigenvalues --    0.28809   0.29924   0.31410   0.31714   0.32427

 Mulliken charges:
               1
     1  C   -0.171553
     2  C   -0.218289
     3  C   -0.166264
     4  C    0.157460
     5  C   -0.171094
     6  C   -0.218717
     7  H    0.226125
     8  H    0.224169
     9  H    0.276550
    10  H    0.275704
    11  H    0.223598
    12  N    0.488192
    13  O   -0.460565
    14  O   -0.460160
    15  C   -0.299113
    16  C   -0.299799
    17  C   -0.475845
    18  H    0.151835
    19  H    0.153867
    20  H    0.150472
    21  H    0.150904
    22  H    0.157177
    23  H    0.156657
    24  H    0.159146
    25  C   -0.298668
    26  C   -0.300278
    27  C   -0.478157
    28  H    0.148518
    29  H    0.148941
    30  H    0.154427
    31  H    0.152369
    32  H    0.154592
    33  H    0.155361
    34  H    0.152437
 Sum of Mulliken charges =  -0.00000

 Dipole moment (field-independent basis, Debye):
    X=              1.6939    Y=             -4.6828    Z=              1.2030  Tot=              5.1230
 Quadrupole moment (field-independent basis, Debye-Ang):
   XX=            -86.4180   YY=           -102.5105   ZZ=            -90.7335
   XY=             -9.7236   XZ=              5.2372   YZ=              2.7474

 Normal termination of Gaussian 16 at Thu May  6 19:18:08 2021.
