 Gaussian 16, Revision A.03,
 Gaussian 16:  EM64L-G16RevA.03 25-Dec-2016

 -------------
 #p 6-31g* mp2
 -------------

 ------------------------------------------------------
 Input file generated by CHIRIPA (05-May-2021 14:51:07)
 ------------------------------------------------------
 Symbolic Z-matrix:
 Charge =  0 Multiplicity = 1

                         Standard orientation:
 ---------------------------------------------------------------------
 Center     Atomic      Atomic             Coordinates (Angstroms)
 Number     Number       Type             X           Y           Z
 ---------------------------------------------------------------------
      1          6           0        5.331600   -0.544675    0.205297
      2          6           0        6.615085   -0.179026   -0.540994
      3          6           0        7.694335   -1.255703   -0.423593
      4          1           0        5.567061   -0.715864    1.264636
      5          1           0        4.946025   -1.495949   -0.186882
      6          1           0        6.997374    0.771973   -0.148473
      7          1           0        6.376510   -0.008500   -1.598642
      8          1           0        7.336677   -2.205943   -0.833136
      9          1           0        7.961069   -1.421035    0.625272
     10          1           0        8.603142   -0.973812   -0.964395
     11          6           0        4.243222    0.521857    0.097264
     12          6           0        2.959737    0.156208    0.843556
     13          6           0        1.880488    1.232884    0.726155
     14          1           0        4.628798    1.473131    0.489444
     15          1           0        4.007762    0.693046   -0.962074
     16          1           0        3.198313   -0.014318    1.901204
     17          1           0        2.577449   -0.794791    0.451035
     18          1           0        1.613754    1.398217   -0.322711
     19          1           0        2.238145    2.183125    1.135698
     20          1           0        0.971681    0.950993    1.266957
     21          6           0       -5.291382   -0.446883    0.194284
     22          6           0       -6.707368   -0.325795   -0.369902
     23          6           0       -7.704179   -1.248825    0.331649
     24          1           0       -4.955157   -1.488819    0.103366
     25          1           0       -5.311418   -0.217530    1.268710
     26          1           0       -6.684435   -0.553958   -1.443230
     27          1           0       -7.040187    0.716014   -0.277806
     28          1           0       -7.756606   -1.017928    1.400545
     29          1           0       -7.398833   -2.295116    0.228499
     30          1           0       -8.710027   -1.146069   -0.087365
     31          6           0       -4.283442    0.469701   -0.496846
     32          6           0       -2.867455    0.348613    0.067341
     33          6           0       -1.870643    1.271643   -0.634211
     34          1           0       -4.263404    0.240349   -1.571271
     35          1           0       -4.619665    1.511637   -0.405928
     36          1           0       -2.534636   -0.693196   -0.024755
     37          1           0       -2.890387    0.576776    1.140668
     38          1           0       -2.175990    2.317934   -0.531061
     39          1           0       -1.818217    1.040746   -1.703107
     40          1           0       -0.864796    1.168887   -0.215197
 ---------------------------------------------------------------------

 SCF Done:  E(RHF) =  -470.732654748     A.U. after   11 cycles
 E2 =    -0.1582563461D+01 EUMP2 =    -0.47231521820817D+03

 The electronic state is 1-A.
 Alpha  occ. eigenvalues --  -11.21633 -11.21612 -11.21571 -11.21529 -11.21424
 Alpha  occ. eigenvalues --  -11.21364 -11.21357 -11.21295 -11.21111 -11.21080
 Alpha  occ. eigenvalues --  -11.21048 -11.20863  -1.08453  -1.08375  -1.03568
 Alpha  occ. eigenvalues --   -1.03458  -0.96051  -0.95878  -0.87106  -0.86863
 Alpha  occ. eigenvalues --   -0.79662  -0.79496  -0.78262  -0.78192  -0.65084
 Alpha  occ. eigenvalues --   -0.65008  -0.60983  -0.60863  -0.59620  -0.59112
 Alpha  occ. eigenvalues --   -0.57677  -0.57470  -0.55309  -0.55194  -0.53039
 Alpha  occ. eigenvalues --   -0.52470  -0.52400  -0.52154  -0.49927  -0.49849
 Alpha  occ. eigenvalues --   -0.47941  -0.47837  -0.46643  -0.46569  -0.45805
 Alpha  occ. eigenvalues --   -0.45735  -0.45725  -0.45662  -0.43949  -0.43524
 Alpha virt. eigenvalues --    0.22397   0.23002   0.23614   0.24953   0.26591
 Alpha virt. eigenvalues --    0.26697   0.27118   0.27396   0.27622   0.28894
 Alpha virt. eigenvalues --    0.30907   0.31094   0.31469   0.31730   0.32175

 Mulliken charges:
               1
     1  C   -0.298342
     2  C   -0.299674
     3  C   -0.475718
     4  H    0.149698
     5  H    0.149573
     6  H    0.151968
     7  H    0.152004
     8  H    0.155195
     9  H    0.155192
    10  H    0.160305
    11  C   -0.298838
    12  C   -0.299493
    13  C   -0.480678
    14  H    0.149651
    15  H    0.150044
    16  H    0.152104
    17  H    0.152274
    18  H    0.158201
    19  H    0.155969
    20  H    0.162527
    21  C   -0.298170
    22  C   -0.299586
    23  C   -0.475663
    24  H    0.149433
    25  H    0.149360
    26  H    0.151839
    27  H    0.151898
    28  H    0.155123
    29  H    0.155093
    30  H    0.160144
    31  C   -0.298118
    32  C   -0.299052
    33  C   -0.486196
    34  H    0.149331
    35  H    0.149558
    36  H    0.151165
    37  H    0.151098
    38  H    0.154312
    39  H    0.153498
    40  H    0.172971
 Sum of Mulliken charges =  -0.00000

 Dipole moment (field-independent basis, Debye):
    X=              0.0753    Y=              0.0103    Z=              0.0146  Tot=              0.0774
 Quadrupole moment (field-independent basis, Debye-Ang):
   XX=            -86.2722   YY=            -84.8733   ZZ=            -83.7892
   XY=              0.1452   XZ=              0.4862   YZ=              1.1802

 Normal termination of Gaussian 16 at Wed May  5 15:02:23 2021.
