 Gaussian 16, Revision A.03,
 Gaussian 16:  EM64L-G16RevA.03 25-Dec-2016

 -------------
 #p 6-31g* mp2
 -------------

 ------------------------------------------------------
 Input file generated by CHIRIPA (05-May-2021 14:55:21)
 ------------------------------------------------------
 Symbolic Z-matrix:
 Charge =  0 Multiplicity = 1

                         Standard orientation:
 ---------------------------------------------------------------------
 Center     Atomic      Atomic             Coordinates (Angstroms)
 Number     Number       Type             X           Y           Z
 ---------------------------------------------------------------------
      1          6           0       -3.299463   -2.084637    0.827256
      2          6           0       -3.576816   -1.548197   -0.434420
      3          6           0       -3.194014   -0.241128   -0.749984
      4          6           0       -2.532555    0.504714    0.224430
      5          6           0       -2.241938   -0.001541    1.490344
      6          6           0       -2.634082   -1.310961    1.783925
      7          1           0       -3.600461   -3.100913    1.063855
      8          1           0       -4.093423   -2.146733   -1.179348
      9          1           0       -3.396129    0.199061   -1.718901
     10          1           0       -1.725521    0.619465    2.212205
     11          1           0       -2.417365   -1.724958    2.764580
     12          7           0       -2.122354    1.889694   -0.098007
     13          8           0       -1.540822    2.526220    0.777945
     14          8           0       -2.390139    2.312492   -1.220581
     15          6           0        4.030090   -0.555532   -0.131420
     16          6           0        4.819506    0.593189    0.497266
     17          6           0        6.221686    0.174124    0.940068
     18          1           0        3.956943   -1.380155    0.590793
     19          1           0        4.587270   -0.944719   -0.994831
     20          1           0        4.260343    0.981001    1.358401
     21          1           0        4.890618    1.415248   -0.226460
     22          1           0        6.801298   -0.193376    0.087077
     23          1           0        6.167442   -0.630092    1.680942
     24          1           0        6.768394    1.010505    1.386652
     25          6           0        2.626321   -0.152187   -0.579162
     26          6           0        1.836904   -1.300908   -1.207847
     27          6           0        0.434725   -0.881844   -1.650650
     28          1           0        2.069140    0.236999    0.284249
     29          1           0        2.699467    0.672436   -1.301375
     30          1           0        1.765793   -2.122967   -0.484123
     31          1           0        2.396067   -1.688719   -2.068984
     32          1           0        0.488969   -0.077627   -2.391524
     33          1           0       -0.144886   -0.514343   -0.797659
     34          1           0       -0.111983   -1.718225   -2.097234
 ---------------------------------------------------------------------

 SCF Done:  E(RHF) =  -669.534517515     A.U. after   15 cycles
 E2 =    -0.2093238305D+01 EUMP2 =    -0.67162775582039D+03

 The electronic state is 1-A.
 Alpha  occ. eigenvalues --  -20.60778 -20.60771 -15.85823 -11.31167 -11.27788
 Alpha  occ. eigenvalues --  -11.27752 -11.27539 -11.26822 -11.26798 -11.21454
 Alpha  occ. eigenvalues --  -11.21371 -11.21202 -11.21110 -11.20901 -11.20853
 Alpha  occ. eigenvalues --   -1.59849  -1.39402  -1.19399  -1.08786  -1.08228
 Alpha  occ. eigenvalues --   -1.04795  -1.03347  -0.95804  -0.95608  -0.86825
 Alpha  occ. eigenvalues --   -0.86190  -0.82445  -0.79419  -0.78032  -0.77486
 Alpha  occ. eigenvalues --   -0.72047  -0.71184  -0.70495  -0.65042  -0.64868
 Alpha  occ. eigenvalues --   -0.64797  -0.62140  -0.60768  -0.59169  -0.57422
 Alpha  occ. eigenvalues --   -0.55302  -0.55210  -0.53270  -0.52886  -0.52457
 Alpha  occ. eigenvalues --   -0.52103  -0.49668  -0.48808  -0.48801  -0.47721
 Alpha  occ. eigenvalues --   -0.46428  -0.45572  -0.45499  -0.44799  -0.43602
 Alpha  occ. eigenvalues --   -0.37304  -0.36390
 Alpha virt. eigenvalues --    0.05036   0.11197   0.16512   0.21382   0.23039
 Alpha virt. eigenvalues --    0.24433   0.26804   0.27266   0.27603   0.28102
 Alpha virt. eigenvalues --    0.28317   0.30860   0.31505   0.32026   0.32051

 Mulliken charges:
               1
     1  C   -0.171121
     2  C   -0.216542
     3  C   -0.167928
     4  C    0.156141
     5  C   -0.174586
     6  C   -0.216457
     7  H    0.225762
     8  H    0.223638
     9  H    0.275846
    10  H    0.275469
    11  H    0.223546
    12  N    0.490841
    13  O   -0.461074
    14  O   -0.460210
    15  C   -0.298096
    16  C   -0.299715
    17  C   -0.475608
    18  H    0.146894
    19  H    0.148842
    20  H    0.152952
    21  H    0.154038
    22  H    0.154676
    23  H    0.153567
    24  H    0.160578
    25  C   -0.298928
    26  C   -0.298868
    27  C   -0.480340
    28  H    0.150929
    29  H    0.153761
    30  H    0.147992
    31  H    0.150891
    32  H    0.160667
    33  H    0.157809
    34  H    0.154633
 Sum of Mulliken charges =  -0.00000

 Dipole moment (field-independent basis, Debye):
    X=             -1.5244    Y=             -4.8086    Z=              1.1151  Tot=              5.1662
 Quadrupole moment (field-independent basis, Debye-Ang):
   XX=            -88.3608   YY=           -100.3983   ZZ=            -89.4566
   XY=             12.6140   XZ=             -1.8809   YZ=             -0.3573

 Normal termination of Gaussian 16 at Wed May  5 20:35:10 2021.
