 Gaussian 16, Revision A.03,
 Gaussian 16:  EM64L-G16RevA.03 25-Dec-2016

 -------------
 #p 6-31g* mp2
 -------------

 ------------------------------------------------------
 Input file generated by CHIRIPA (05-May-2021 14:57:25)
 ------------------------------------------------------
 Symbolic Z-matrix:
 Charge =  0 Multiplicity = 1

                         Standard orientation:
 ---------------------------------------------------------------------
 Center     Atomic      Atomic             Coordinates (Angstroms)
 Number     Number       Type             X           Y           Z
 ---------------------------------------------------------------------
      1          6           0       -3.561934   -2.057771    0.522938
      2          6           0       -4.390667   -0.939833    0.381739
      3          6           0       -3.871656    0.275727   -0.073881
      4          6           0       -2.513220    0.338095   -0.380564
      5          6           0       -1.661897   -0.758073   -0.250353
      6          6           0       -2.202591   -1.963489    0.206999
      7          1           0       -3.973536   -2.998107    0.877547
      8          1           0       -5.446729   -1.010133    0.626353
      9          1           0       -4.490612    1.156781   -0.192430
     10          1           0       -0.613146   -0.657230   -0.502086
     11          1           0       -1.556615   -2.830061    0.315687
     12          7           0       -1.952289    1.619584   -0.863825
     13          8           0       -0.752143    1.648557   -1.127352
     14          8           0       -2.723399    2.570778   -0.969927
     15          6           0        1.704240    0.916441    2.413926
     16          6           0        1.302350   -0.370734    2.042191
     17          6           0        1.795358   -0.958714    0.873529
     18          6           0        2.692816   -0.227755    0.096638
     19          6           0        3.112242    1.056487    0.440287
     20          6           0        2.606313    1.624694    1.613200
     21          1           0        1.316241    1.365518    3.323422
     22          1           0        0.601909   -0.923113    2.662113
     23          1           0        1.501004   -1.953614    0.562165
     24          1           0        3.811743    1.582461   -0.198045
     25          1           0        2.920184    2.624497    1.899423
     26          7           0        3.221580   -0.839758   -1.142821
     27          8           0        4.011172   -0.174958   -1.810072
     28          8           0        2.836421   -1.972656   -1.423591
 ---------------------------------------------------------------------

 SCF Done:  E(RHF) =  -868.336795721     A.U. after   16 cycles
 E2 =    -0.2602584421D+01 EUMP2 =    -0.87093938014139D+03

 The electronic state is 1-A.
 Alpha  occ. eigenvalues --  -20.60943 -20.60922 -20.60759 -20.60712 -15.85987
 Alpha  occ. eigenvalues --  -15.85790 -11.31368 -11.31169 -11.27991 -11.27898
 Alpha  occ. eigenvalues --  -11.27820 -11.27759 -11.27600 -11.27400 -11.27015
 Alpha  occ. eigenvalues --  -11.26985 -11.26812 -11.26635  -1.60010  -1.59806
 Alpha  occ. eigenvalues --   -1.39560  -1.39365  -1.19582  -1.19306  -1.08969
 Alpha  occ. eigenvalues --   -1.08692  -1.05030  -1.04707  -0.95798  -0.95541
 Alpha  occ. eigenvalues --   -0.86389  -0.86129  -0.82645  -0.82377  -0.77697
 Alpha  occ. eigenvalues --   -0.77422  -0.72213  -0.72013  -0.71336  -0.71122
 Alpha  occ. eigenvalues --   -0.70724  -0.70399  -0.65236  -0.65023  -0.64967
 Alpha  occ. eigenvalues --   -0.64738  -0.62457  -0.61993  -0.55513  -0.55204
 Alpha  occ. eigenvalues --   -0.53440  -0.53269  -0.52827  -0.52676  -0.48972
 Alpha  occ. eigenvalues --   -0.48955  -0.48783  -0.48753  -0.44955  -0.44770
 Alpha  occ. eigenvalues --   -0.37594  -0.37243  -0.36848  -0.35995
 Alpha virt. eigenvalues --    0.04723   0.05232   0.10943   0.11288   0.16219
 Alpha virt. eigenvalues --    0.16718   0.20158   0.21951   0.25410   0.27838
 Alpha virt. eigenvalues --    0.28068   0.29027   0.30753   0.31417   0.32315

 Mulliken charges:
               1
     1  C   -0.170307
     2  C   -0.219737
     3  C   -0.170327
     4  C    0.155369
     5  C   -0.171708
     6  C   -0.226764
     7  H    0.226109
     8  H    0.223838
     9  H    0.275865
    10  H    0.285276
    11  H    0.221472
    12  N    0.487552
    13  O   -0.458821
    14  O   -0.461418
    15  C   -0.169508
    16  C   -0.213010
    17  C   -0.192376
    18  C    0.169912
    19  C   -0.163595
    20  C   -0.212034
    21  H    0.226045
    22  H    0.220570
    23  H    0.267127
    24  H    0.278056
    25  H    0.226152
    26  N    0.488854
    27  O   -0.455626
    28  O   -0.466965
 Sum of Mulliken charges =  -0.00000

 Dipole moment (field-independent basis, Debye):
    X=             -3.6536    Y=             -2.0129    Z=              6.0350  Tot=              7.3363
 Quadrupole moment (field-independent basis, Debye-Ang):
   XX=            -99.4078   YY=           -105.4306   ZZ=           -106.5230
   XY=             18.1712   XZ=              7.1543   YZ=              1.0921

 Normal termination of Gaussian 16 at Fri May  7 12:39:25 2021.
