 Gaussian 16, Revision A.03,
 Gaussian 16:  EM64L-G16RevA.03 25-Dec-2016

 -------------
 #p 6-31g* mp2
 -------------

 ------------------------------------------------------
 Input file generated by CHIRIPA (05-May-2021 14:53:14)
 ------------------------------------------------------
 Symbolic Z-matrix:
 Charge =  0 Multiplicity = 1

                         Standard orientation:
 ---------------------------------------------------------------------
 Center     Atomic      Atomic             Coordinates (Angstroms)
 Number     Number       Type             X           Y           Z
 ---------------------------------------------------------------------
      1          6           0        3.275225    0.503627   -0.286535
      2          6           0        3.330033    2.031309   -0.320732
      3          6           0        1.943035    2.671245   -0.387909
      4          1           0        2.745814    0.141999   -1.178665
      5          1           0        2.680684    0.184323    0.580622
      6          1           0        3.925451    2.347610   -1.186784
      7          1           0        3.859542    2.389333    0.571486
      8          1           0        1.343852    2.384362    0.482309
      9          1           0        1.410135    2.342403   -1.285952
     10          1           0        2.005638    3.763667   -0.411485
     11          6           0        4.654022   -0.150689   -0.219325
     12          6           0        4.599215   -1.678371   -0.185128
     13          6           0        5.986212   -2.318308   -0.117952
     14          1           0        5.248563    0.168614   -1.086482
     15          1           0        5.183433    0.210939    0.672804
     16          1           0        4.069705   -2.036395   -1.077347
     17          1           0        4.003796   -1.994673    0.680924
     18          1           0        6.519112   -1.989465    0.780091
     19          1           0        6.585395   -2.031425   -0.988170
     20          1           0        5.923609   -3.410729   -0.094376
     21          6           0       -1.567140    0.561643    2.077769
     22          6           0       -2.348937   -0.591379    2.203672
     23          6           0       -3.200351   -0.988470    1.168317
     24          6           0       -3.245299   -0.205492    0.015834
     25          6           0       -2.478763    0.948439   -0.139586
     26          6           0       -1.634429    1.326524    0.908602
     27          1           0       -0.908491    0.862731    2.887043
     28          1           0       -2.298723   -1.187330    3.110517
     29          1           0       -3.816523   -1.876561    1.239333
     30          1           0       -2.550350    1.522135   -1.055647
     31          1           0       -1.028420    2.222453    0.808051
     32          7           0       -4.142903   -0.615814   -1.087045
     33          8           0       -4.164324    0.091193   -2.092190
     34          8           0       -4.808031   -1.636662   -0.925451
 ---------------------------------------------------------------------

 SCF Done:  E(RHF) =  -669.535370953     A.U. after   15 cycles
 E2 =    -0.2091143076D+01 EUMP2 =    -0.67162651402865D+03

 The electronic state is 1-A.
 Alpha  occ. eigenvalues --  -20.60736 -20.60731 -15.85788 -11.31149 -11.27714
 Alpha  occ. eigenvalues --  -11.27697 -11.27459 -11.26739 -11.26679 -11.22263
 Alpha  occ. eigenvalues --  -11.21980 -11.21947 -11.21911 -11.21788 -11.21357
 Alpha  occ. eigenvalues --   -1.59812  -1.39365  -1.19317  -1.08933  -1.08716
 Alpha  occ. eigenvalues --   -1.04716  -1.04063  -0.96533  -0.95553  -0.87564
 Alpha  occ. eigenvalues --   -0.86116  -0.82382  -0.80138  -0.78718  -0.77427
 Alpha  occ. eigenvalues --   -0.72008  -0.71134  -0.70433  -0.65572  -0.64969
 Alpha  occ. eigenvalues --   -0.64738  -0.62099  -0.61444  -0.59896  -0.58121
 Alpha  occ. eigenvalues --   -0.55842  -0.55224  -0.53261  -0.53144  -0.53000
 Alpha  occ. eigenvalues --   -0.52636  -0.50470  -0.48773  -0.48763  -0.48425
 Alpha  occ. eigenvalues --   -0.47153  -0.46265  -0.46175  -0.44772  -0.44302
 Alpha  occ. eigenvalues --   -0.37299  -0.36305
 Alpha virt. eigenvalues --    0.05097   0.11259   0.16578   0.20621   0.22481
 Alpha virt. eigenvalues --    0.23912   0.25651   0.26190   0.27147   0.28100
 Alpha virt. eigenvalues --    0.28694   0.30366   0.30978   0.31366   0.31825

 Mulliken charges:
               1
     1  C   -0.298253
     2  C   -0.299844
     3  C   -0.478782
     4  H    0.152785
     5  H    0.146837
     6  H    0.155562
     7  H    0.152236
     8  H    0.145740
     9  H    0.158324
    10  H    0.162318
    11  C   -0.298795
    12  C   -0.299861
    13  C   -0.475992
    14  H    0.151119
    15  H    0.149195
    16  H    0.153963
    17  H    0.150813
    18  H    0.154851
    19  H    0.156191
    20  H    0.161450
    21  C   -0.172585
    22  C   -0.218274
    23  C   -0.171243
    24  C    0.158742
    25  C   -0.172541
    26  C   -0.219475
    27  H    0.224756
    28  H    0.223114
    29  H    0.275403
    30  H    0.275625
    31  H    0.229660
    32  N    0.488040
    33  O   -0.460507
    34  O   -0.460572
 Sum of Mulliken charges =  -0.00000

 Dipole moment (field-independent basis, Debye):
    X=              3.3037    Y=              1.4230    Z=              3.8159  Tot=              5.2441
 Quadrupole moment (field-independent basis, Debye-Ang):
   XX=           -116.1090   YY=            -92.8854   ZZ=            -92.6255
   XY=             -3.4678   XZ=            -13.8137   YZ=             -3.2695

 Normal termination of Gaussian 16 at Thu May  6 10:30:29 2021.
