 Gaussian 16, Revision A.03,
 Gaussian 16:  EM64L-G16RevA.03 25-Dec-2016

 -------------
 #p 6-31g* mp2
 -------------

 ------------------------------------------------------
 Input file generated by CHIRIPA (05-May-2021 14:55:22)
 ------------------------------------------------------
 Symbolic Z-matrix:
 Charge =  0 Multiplicity = 1

                         Standard orientation:
 ---------------------------------------------------------------------
 Center     Atomic      Atomic             Coordinates (Angstroms)
 Number     Number       Type             X           Y           Z
 ---------------------------------------------------------------------
      1          6           0       -3.392180    1.071610    0.428765
      2          6           0       -2.578943    0.641924    1.482586
      3          6           0       -1.685000   -0.417872    1.303015
      4          6           0       -1.630045   -1.027989    0.050806
      5          6           0       -2.427181   -0.622831   -1.018639
      6          6           0       -3.313841    0.438976   -0.816288
      7          1           0       -4.083787    1.895667    0.577108
      8          1           0       -2.637646    1.131368    2.450596
      9          1           0       -1.043850   -0.770771    2.101643
     10          1           0       -2.346155   -1.130412   -1.972166
     11          1           0       -3.944199    0.770554   -1.636502
     12          7           0       -0.687523   -2.151013   -0.151355
     13          8           0       -0.658109   -2.671912   -1.264205
     14          8           0        0.003967   -2.489075    0.806869
     15          6           0        2.100960    1.819224   -0.070334
     16          6           0        0.648262    2.102508   -0.454265
     17          6           0        0.294663    3.587912   -0.374649
     18          1           0        2.282499    2.186695    0.948957
     19          1           0        2.766020    2.391378   -0.731947
     20          1           0       -0.013830    1.528918    0.206978
     21          1           0        0.470108    1.734148   -1.472690
     22          1           0        0.931104    4.172005   -1.047240
     23          1           0        0.444417    3.965609    0.641972
     24          1           0       -0.748372    3.767791   -0.653186
     25          6           0        2.469623    0.338603   -0.145025
     26          6           0        3.922321    0.055318    0.238906
     27          6           0        4.275921   -1.430085    0.159291
     28          1           0        1.804564   -0.233551    0.516587
     29          1           0        2.288084   -0.028869   -1.164316
     30          1           0        4.100475    0.423679    1.257330
     31          1           0        4.584413    0.628909   -0.422338
     32          1           0        4.126167   -1.807783   -0.857331
     33          1           0        3.639479   -2.014179    0.831881
     34          1           0        5.318955   -1.609964    0.437826
 ---------------------------------------------------------------------

 SCF Done:  E(RHF) =  -669.535050868     A.U. after   15 cycles
 E2 =    -0.2095682358D+01 EUMP2 =    -0.67163073322603D+03

 The electronic state is 1-A.
 Alpha  occ. eigenvalues --  -20.60949 -20.60940 -15.85958 -11.31286 -11.27876
 Alpha  occ. eigenvalues --  -11.27854 -11.27630 -11.26904 -11.26887 -11.21325
 Alpha  occ. eigenvalues --  -11.21123 -11.21046 -11.20958 -11.20740 -11.20124
 Alpha  occ. eigenvalues --   -1.59990  -1.39551  -1.19495  -1.08881  -1.07998
 Alpha  occ. eigenvalues --   -1.04899  -1.03084  -0.95723  -0.95537  -0.86550
 Alpha  occ. eigenvalues --   -0.86287  -0.82560  -0.79194  -0.77806  -0.77596
 Alpha  occ. eigenvalues --   -0.72195  -0.71288  -0.70596  -0.65146  -0.64893
 Alpha  occ. eigenvalues --   -0.64648  -0.62239  -0.60521  -0.58989  -0.57147
 Alpha  occ. eigenvalues --   -0.55390  -0.54833  -0.53320  -0.52980  -0.52229
 Alpha  occ. eigenvalues --   -0.51925  -0.49465  -0.48952  -0.48944  -0.47429
 Alpha  occ. eigenvalues --   -0.46207  -0.45587  -0.45293  -0.44532  -0.43337
 Alpha  occ. eigenvalues --   -0.37440  -0.36421
 Alpha virt. eigenvalues --    0.04880   0.11085   0.16345   0.21233   0.23283
 Alpha virt. eigenvalues --    0.24728   0.26776   0.27351   0.27519   0.28288
 Alpha virt. eigenvalues --    0.28553   0.30959   0.31849   0.31876   0.32228

 Mulliken charges:
               1
     1  C   -0.169943
     2  C   -0.215300
     3  C   -0.180568
     4  C    0.166701
     5  C   -0.170269
     6  C   -0.217219
     7  H    0.226523
     8  H    0.224392
     9  H    0.275513
    10  H    0.275929
    11  H    0.224194
    12  N    0.489353
    13  O   -0.458314
    14  O   -0.459983
    15  C   -0.296685
    16  C   -0.307474
    17  C   -0.473749
    18  H    0.145812
    19  H    0.148060
    20  H    0.159259
    21  H    0.150033
    22  H    0.155567
    23  H    0.151952
    24  H    0.153875
    25  C   -0.307139
    26  C   -0.298750
    27  C   -0.477551
    28  H    0.157313
    29  H    0.151702
    30  H    0.148281
    31  H    0.148682
    32  H    0.157439
    33  H    0.166973
    34  H    0.155392
 Sum of Mulliken charges =  -0.00000

 Dipole moment (field-independent basis, Debye):
    X=             -3.4957    Y=              3.6954    Z=              0.7088  Tot=              5.1360
 Quadrupole moment (field-independent basis, Debye-Ang):
   XX=            -84.3720   YY=           -105.0927   ZZ=            -89.2446
   XY=             -2.9597   XZ=              0.0491   YZ=             -0.1110

 Normal termination of Gaussian 16 at Thu May  6 19:14:26 2021.
