 Gaussian 16, Revision A.03,
 Gaussian 16:  EM64L-G16RevA.03 25-Dec-2016

 -------------
 #p 6-31g* mp2
 -------------

 ------------------------------------------------------
 Input file generated by CHIRIPA (05-May-2021 14:51:08)
 ------------------------------------------------------
 Symbolic Z-matrix:
 Charge =  0 Multiplicity = 1

                         Standard orientation:
 ---------------------------------------------------------------------
 Center     Atomic      Atomic             Coordinates (Angstroms)
 Number     Number       Type             X           Y           Z
 ---------------------------------------------------------------------
      1          6           0        3.572554   -0.073620    0.623762
      2          6           0        2.186643   -0.021939   -0.020104
      3          6           0        1.073708    0.247091    0.993204
      4          1           0        3.581897   -0.854279    1.396697
      5          1           0        3.765924    0.877894    1.138178
      6          1           0        1.996508   -0.972752   -0.534323
      7          1           0        2.180655    0.758558   -0.791728
      8          1           0        1.236036    1.204625    1.498554
      9          1           0        1.050843   -0.536522    1.757422
     10          1           0        0.091503    0.279939    0.511482
     11          6           0        4.695632   -0.341788   -0.376493
     12          6           0        6.081544   -0.393469    0.267373
     13          6           0        7.194479   -0.662499   -0.745935
     14          1           0        4.502262   -1.293303   -0.890909
     15          1           0        4.686289    0.438871   -1.149428
     16          1           0        6.087531   -1.173967    1.038997
     17          1           0        6.271678    0.557343    0.781592
     18          1           0        7.217343    0.121113   -1.510153
     19          1           0        7.032150   -1.620033   -1.251285
     20          1           0        8.176683   -0.695348   -0.264213
     21          6           0       -4.256299   -0.541804   -0.041565
     22          6           0       -5.727515   -0.934947   -0.179215
     23          6           0       -5.955964   -2.437554   -0.012558
     24          1           0       -3.665641   -1.089049   -0.788954
     25          1           0       -3.888864   -0.862500    0.943087
     26          1           0       -6.092444   -0.612372   -1.162773
     27          1           0       -6.314764   -0.386557    0.568463
     28          1           0       -5.618611   -2.771420    0.974015
     29          1           0       -5.395027   -2.998519   -0.767058
     30          1           0       -7.014448   -2.696470   -0.114713
     31          6           0       -4.011887    0.957212   -0.205704
     32          6           0       -2.540672    1.350355   -0.068054
     33          6           0       -2.312222    2.852963   -0.234711
     34          1           0       -4.379322    1.277910   -1.190356
     35          1           0       -4.602544    1.504459    0.541686
     36          1           0       -1.953422    0.801966   -0.815733
     37          1           0       -2.175743    1.027782    0.915505
     38          1           0       -2.873159    3.413927    0.519788
     39          1           0       -2.649575    3.186829   -1.221285
     40          1           0       -1.253739    3.111879   -0.132555
 ---------------------------------------------------------------------

 SCF Done:  E(RHF) =  -470.732749885     A.U. after   11 cycles
 E2 =    -0.1582876894D+01 EUMP2 =    -0.47231562677868D+03

 The electronic state is 1-A.
 Alpha  occ. eigenvalues --  -11.21611 -11.21607 -11.21580 -11.21546 -11.21412
 Alpha  occ. eigenvalues --  -11.21369 -11.21352 -11.21308 -11.21079 -11.21075
 Alpha  occ. eigenvalues --  -11.21055 -11.20906  -1.08448  -1.08387  -1.03567
 Alpha  occ. eigenvalues --   -1.03462  -0.96010  -0.95908  -0.87018  -0.86938
 Alpha  occ. eigenvalues --   -0.79700  -0.79482  -0.78272  -0.78199  -0.65072
 Alpha  occ. eigenvalues --   -0.65022  -0.60940  -0.60882  -0.59623  -0.59113
 Alpha  occ. eigenvalues --   -0.57737  -0.57382  -0.55273  -0.55213  -0.52746
 Alpha  occ. eigenvalues --   -0.52577  -0.52419  -0.52341  -0.49929  -0.49870
 Alpha  occ. eigenvalues --   -0.48061  -0.47714  -0.46648  -0.46583  -0.45804
 Alpha  occ. eigenvalues --   -0.45744  -0.45718  -0.45674  -0.43837  -0.43613
 Alpha virt. eigenvalues --    0.22101   0.23019   0.23515   0.25006   0.26500
 Alpha virt. eigenvalues --    0.26644   0.26727   0.27527   0.27802   0.28947
 Alpha virt. eigenvalues --    0.30907   0.31067   0.31293   0.31934   0.32106

 Mulliken charges:
               1
     1  C   -0.298303
     2  C   -0.299093
     3  C   -0.486068
     4  H    0.149528
     5  H    0.149318
     6  H    0.151392
     7  H    0.151268
     8  H    0.153760
     9  H    0.154030
    10  H    0.173619
    11  C   -0.298177
    12  C   -0.299584
    13  C   -0.475671
    14  H    0.149379
    15  H    0.149488
    16  H    0.151888
    17  H    0.151870
    18  H    0.155124
    19  H    0.155126
    20  H    0.160172
    21  C   -0.298606
    22  C   -0.299625
    23  C   -0.475712
    24  H    0.149441
    25  H    0.149758
    26  H    0.151938
    27  H    0.152002
    28  H    0.155240
    29  H    0.155156
    30  H    0.160275
    31  C   -0.296829
    32  C   -0.304876
    33  C   -0.476403
    34  H    0.149405
    35  H    0.149734
    36  H    0.152100
    37  H    0.156053
    38  H    0.155363
    39  H    0.155101
    40  H    0.161421
 Sum of Mulliken charges =  -0.00000

 Dipole moment (field-independent basis, Debye):
    X=             -0.0564    Y=              0.0096    Z=              0.0002  Tot=              0.0572
 Quadrupole moment (field-independent basis, Debye-Ang):
   XX=            -85.8339   YY=            -84.8966   ZZ=            -84.1514
   XY=             -0.1024   XZ=              0.3802   YZ=             -0.0248

 Normal termination of Gaussian 16 at Wed May  5 22:55:06 2021.
