 Gaussian 16, Revision A.03,
 Gaussian 16:  EM64L-G16RevA.03 25-Dec-2016

 -------------
 #p 6-31g* mp2
 -------------

 ------------------------------------------------------
 Input file generated by CHIRIPA (05-May-2021 14:55:23)
 ------------------------------------------------------
 Symbolic Z-matrix:
 Charge =  0 Multiplicity = 1

                         Standard orientation:
 ---------------------------------------------------------------------
 Center     Atomic      Atomic             Coordinates (Angstroms)
 Number     Number       Type             X           Y           Z
 ---------------------------------------------------------------------
      1          6           0       -4.301353    2.470471    0.200607
      2          6           0       -5.096889    1.351343    0.467430
      3          6           0       -4.584814    0.060823    0.303464
      4          6           0       -3.267089   -0.074476   -0.130802
      5          6           0       -2.449489    1.020850   -0.404812
      6          6           0       -2.982517    2.301950   -0.233896
      7          1           0       -4.707284    3.469319    0.330680
      8          1           0       -6.121460    1.479203    0.804997
      9          1           0       -5.178644   -0.822942    0.502821
     10          1           0       -1.431787    0.861619   -0.739991
     11          1           0       -2.362382    3.169259   -0.441870
     12          7           0       -2.713887   -1.435705   -0.308064
     13          8           0       -1.549897   -1.528079   -0.691771
     14          8           0       -3.454752   -2.384489   -0.059940
     15          6           0        4.772865    0.337992    0.408898
     16          6           0        5.865088    0.753458   -0.577217
     17          6           0        6.806017    1.814033   -0.004830
     18          1           0        4.193927    1.225098    0.700135
     19          1           0        5.242504   -0.043701    1.326037
     20          1           0        5.393529    1.132965   -1.492762
     21          1           0        6.441372   -0.134772   -0.866287
     22          1           0        7.303087    1.441803    0.896816
     23          1           0        6.249292    2.716743    0.266783
     24          1           0        7.579022    2.096406   -0.726348
     25          6           0        3.824290   -0.721662   -0.148836
     26          6           0        2.732066   -1.137128    0.837279
     27          6           0        1.791138   -2.197703    0.264892
     28          1           0        3.354650   -0.339968   -1.065975
     29          1           0        4.403228   -1.608768   -0.440073
     30          1           0        2.155783   -0.248898    1.126349
     31          1           0        3.203625   -1.516635    1.752824
     32          1           0        2.347863   -3.100413   -0.006719
     33          1           0        1.294067   -1.825474   -0.636754
     34          1           0        1.018132   -2.480076    0.986410
 ---------------------------------------------------------------------

 SCF Done:  E(RHF) =  -669.535543219     A.U. after   15 cycles
 E2 =    -0.2090961395D+01 EUMP2 =    -0.67162650461496D+03

 The electronic state is 1-A.
 Alpha  occ. eigenvalues --  -20.60862 -20.60852 -15.85900 -11.31259 -11.27831
 Alpha  occ. eigenvalues --  -11.27823 -11.27569 -11.26844 -11.26833 -11.21353
 Alpha  occ. eigenvalues --  -11.21042 -11.20905 -11.20868 -11.20808 -11.19713
 Alpha  occ. eigenvalues --   -1.59927  -1.39483  -1.19432  -1.08829  -1.07954
 Alpha  occ. eigenvalues --   -1.04834  -1.02947  -0.95673  -0.95348  -0.86363
 Alpha  occ. eigenvalues --   -0.86231  -0.82500  -0.79035  -0.77750  -0.77540
 Alpha  occ. eigenvalues --   -0.72130  -0.71246  -0.70541  -0.65090  -0.64837
 Alpha  occ. eigenvalues --   -0.64597  -0.62183  -0.60346  -0.58787  -0.56968
 Alpha  occ. eigenvalues --   -0.55336  -0.54639  -0.53164  -0.52927  -0.52005
 Alpha  occ. eigenvalues --   -0.51779  -0.49329  -0.48882  -0.48840  -0.47329
 Alpha  occ. eigenvalues --   -0.46097  -0.45278  -0.45211  -0.44857  -0.43184
 Alpha  occ. eigenvalues --   -0.37411  -0.36437
 Alpha virt. eigenvalues --    0.04979   0.11217   0.16465   0.21237   0.23236
 Alpha virt. eigenvalues --    0.24741   0.26886   0.27356   0.27914   0.28019
 Alpha virt. eigenvalues --    0.28947   0.30841   0.31777   0.32229   0.32631

 Mulliken charges:
               1
     1  C   -0.170731
     2  C   -0.218518
     3  C   -0.170849
     4  C    0.157939
     5  C   -0.170609
     6  C   -0.218478
     7  H    0.225863
     8  H    0.223710
     9  H    0.275829
    10  H    0.275067
    11  H    0.223609
    12  N    0.492765
    13  O   -0.463578
    14  O   -0.459731
    15  C   -0.297158
    16  C   -0.299106
    17  C   -0.475236
    18  H    0.146055
    19  H    0.149159
    20  H    0.150584
    21  H    0.152439
    22  H    0.155148
    23  H    0.153357
    24  H    0.159366
    25  C   -0.297455
    26  C   -0.300225
    27  C   -0.473779
    28  H    0.147605
    29  H    0.149859
    30  H    0.145139
    31  H    0.148446
    32  H    0.149259
    33  H    0.169324
    34  H    0.164934
 Sum of Mulliken charges =  -0.00000

 Dipole moment (field-independent basis, Debye):
    X=             -2.1838    Y=              4.7121    Z=              0.5718  Tot=              5.2250
 Quadrupole moment (field-independent basis, Debye-Ang):
   XX=            -79.3027   YY=            -95.1855   ZZ=            -95.3913
   XY=            -14.9643   XZ=             -3.4541   YZ=             -1.7450

 Normal termination of Gaussian 16 at Wed May  5 17:32:21 2021.
