 Gaussian 16, Revision A.03,
 Gaussian 16:  EM64L-G16RevA.03 25-Dec-2016

 -------------
 #p 6-31g* mp2
 -------------

 ------------------------------------------------------
 Input file generated by CHIRIPA (05-May-2021 14:53:15)
 ------------------------------------------------------
 Symbolic Z-matrix:
 Charge =  0 Multiplicity = 1

                         Standard orientation:
 ---------------------------------------------------------------------
 Center     Atomic      Atomic             Coordinates (Angstroms)
 Number     Number       Type             X           Y           Z
 ---------------------------------------------------------------------
      1          6           0       -3.676174   -0.947888    0.374348
      2          6           0       -2.158952   -1.136827    0.356367
      3          6           0       -1.720642   -2.460822    0.983038
      4          1           0       -4.033527   -1.000179    1.411898
      5          1           0       -4.148992   -1.782558   -0.161529
      6          1           0       -1.689061   -0.301324    0.890926
      7          1           0       -1.805145   -1.083890   -0.681243
      8          1           0       -2.162411   -3.306259    0.445750
      9          1           0       -2.045667   -2.519247    2.026852
     10          1           0       -0.632425   -2.575260    0.959650
     11          6           0       -4.129839    0.371100   -0.248697
     12          6           0       -5.647062    0.560039   -0.230716
     13          6           0       -6.085371    1.884034   -0.857387
     14          1           0       -3.657021    1.205770    0.287180
     15          1           0       -3.772486    0.423391   -1.286247
     16          1           0       -6.000868    0.507102    0.806894
     17          1           0       -6.116952   -0.275464   -0.765275
     18          1           0       -5.760347    1.942459   -1.901200
     19          1           0       -5.643603    2.729471   -0.320099
     20          1           0       -7.173588    1.998472   -0.833999
     21          6           0        3.158882    2.675212    0.544103
     22          6           0        4.241767    2.059996   -0.092601
     23          6           0        4.192039    0.703180   -0.425954
     24          6           0        3.038623   -0.011540   -0.106429
     25          6           0        1.943358    0.572936    0.527664
     26          6           0        2.015150    1.931030    0.851661
     27          1           0        3.206082    3.729716    0.799425
     28          1           0        5.131289    2.635466   -0.332666
     29          1           0        5.015937    0.201773   -0.919107
     30          1           0        1.070174   -0.026768    0.754209
     31          1           0        1.172655    2.406180    1.346109
     32          7           0        2.974299   -1.448617   -0.454384
     33          8           0        1.946711   -2.056296   -0.162105
     34          8           0        3.952688   -1.940108   -1.012799
 ---------------------------------------------------------------------

 SCF Done:  E(RHF) =  -669.536085949     A.U. after   15 cycles
 E2 =    -0.2091532885D+01 EUMP2 =    -0.67162761883411D+03

 The electronic state is 1-A.
 Alpha  occ. eigenvalues --  -20.60874 -20.60862 -15.85917 -11.31216 -11.27789
 Alpha  occ. eigenvalues --  -11.27764 -11.27528 -11.26795 -11.26780 -11.21628
 Alpha  occ. eigenvalues --  -11.21476 -11.21408 -11.21270 -11.21140 -11.20412
 Alpha  occ. eigenvalues --   -1.59937  -1.39494  -1.19389  -1.08798  -1.08367
 Alpha  occ. eigenvalues --   -1.04784  -1.03395  -0.95814  -0.95632  -0.86815
 Alpha  occ. eigenvalues --   -0.86186  -0.82479  -0.79480  -0.78203  -0.77530
 Alpha  occ. eigenvalues --   -0.72149  -0.71253  -0.70501  -0.65052  -0.65005
 Alpha  occ. eigenvalues --   -0.64788  -0.62144  -0.60800  -0.59168  -0.57405
 Alpha  occ. eigenvalues --   -0.55295  -0.55100  -0.53118  -0.52877  -0.52444
 Alpha  occ. eigenvalues --   -0.52216  -0.49761  -0.48891  -0.48885  -0.47763
 Alpha  occ. eigenvalues --   -0.46539  -0.45731  -0.45663  -0.44911  -0.43623
 Alpha  occ. eigenvalues --   -0.37373  -0.36384
 Alpha virt. eigenvalues --    0.04999   0.11265   0.16500   0.20290   0.22954
 Alpha virt. eigenvalues --    0.23816   0.25987   0.26837   0.27483   0.27959
 Alpha virt. eigenvalues --    0.29173   0.30684   0.31521   0.31656   0.32118

 Mulliken charges:
               1
     1  C   -0.297568
     2  C   -0.299285
     3  C   -0.488164
     4  H    0.148778
     5  H    0.151980
     6  H    0.136261
     7  H    0.156936
     8  H    0.156575
     9  H    0.149451
    10  H    0.186727
    11  C   -0.297566
    12  C   -0.299543
    13  C   -0.475516
    14  H    0.144619
    15  H    0.150284
    16  H    0.151665
    17  H    0.153253
    18  H    0.155425
    19  H    0.153276
    20  H    0.160531
    21  C   -0.170376
    22  C   -0.218963
    23  C   -0.170356
    24  C    0.156960
    25  C   -0.175219
    26  C   -0.220470
    27  H    0.225726
    28  H    0.223527
    29  H    0.275544
    30  H    0.284930
    31  H    0.223639
    32  N    0.494306
    33  O   -0.467969
    34  O   -0.459399
 Sum of Mulliken charges =  -0.00000

 Dipole moment (field-independent basis, Debye):
    X=              0.3327    Y=              4.9386    Z=              1.1566  Tot=              5.0831
 Quadrupole moment (field-independent basis, Debye-Ang):
   XX=            -89.6152   YY=            -95.8016   ZZ=            -94.4625
   XY=             16.5007   XZ=              1.6988   YZ=              0.2422

 Normal termination of Gaussian 16 at Thu May  6 15:29:39 2021.
