 Gaussian 16, Revision A.03,
 Gaussian 16:  EM64L-G16RevA.03 25-Dec-2016

 -------------
 #p 6-31g* mp2
 -------------

 ------------------------------------------------------
 Input file generated by CHIRIPA (05-May-2021 14:57:25)
 ------------------------------------------------------
 Symbolic Z-matrix:
 Charge =  0 Multiplicity = 1

                         Standard orientation:
 ---------------------------------------------------------------------
 Center     Atomic      Atomic             Coordinates (Angstroms)
 Number     Number       Type             X           Y           Z
 ---------------------------------------------------------------------
      1          6           0       -2.224384    2.235069    0.755724
      2          6           0       -3.620001    2.157011    0.807501
      3          6           0       -4.284655    1.014837    0.351188
      4          6           0       -3.518956   -0.035320   -0.152960
      5          6           0       -2.127259    0.012384   -0.217708
      6          6           0       -1.483773    1.164394    0.244186
      7          1           0       -1.716286    3.126158    1.112366
      8          1           0       -4.197741    2.986978    1.204258
      9          1           0       -5.364028    0.927877    0.379659
     10          1           0       -1.578441   -0.831130   -0.618585
     11          1           0       -0.399806    1.222233    0.202758
     12          7           0       -4.211391   -1.249695   -0.638992
     13          8           0       -3.513928   -2.161240   -1.078614
     14          8           0       -5.438474   -1.266982   -0.571119
     15          6           0        3.978621    2.025013   -1.041285
     16          6           0        2.972920    1.975987   -0.070366
     17          6           0        2.646606    0.768165    0.553522
     18          6           0        3.349363   -0.376529    0.180567
     19          6           0        4.356402   -0.359944   -0.783221
     20          6           0        4.665939    0.858947   -1.393992
     21          1           0        4.225592    2.967577   -1.520839
     22          1           0        2.437477    2.879989    0.205545
     23          1           0        1.872468    0.701747    1.308318
     24          1           0        4.872651   -1.277749   -1.037266
     25          1           0        5.447445    0.894037   -2.147691
     26          7           0        3.012789   -1.661055    0.834105
     27          8           0        3.646700   -2.655475    0.487806
     28          8           0        2.121445   -1.649123    1.680272
 ---------------------------------------------------------------------

 SCF Done:  E(RHF) =  -868.336701882     A.U. after   16 cycles
 E2 =    -0.2600383343D+01 EUMP2 =    -0.87093708522536D+03

 The electronic state is 1-A.
 Alpha  occ. eigenvalues --  -20.61356 -20.61336 -20.60629 -20.60613 -15.86410
 Alpha  occ. eigenvalues --  -15.85681 -11.31959 -11.31142 -11.28615 -11.28471
 Alpha  occ. eigenvalues --  -11.28257 -11.27749 -11.27718 -11.27664 -11.27592
 Alpha  occ. eigenvalues --  -11.27507 -11.26826 -11.26798  -1.60423  -1.59697
 Alpha  occ. eigenvalues --   -1.39972  -1.39247  -1.20139  -1.19347  -1.09482
 Alpha  occ. eigenvalues --   -1.08745  -1.05581  -1.04765  -0.96294  -0.95553
 Alpha  occ. eigenvalues --   -0.86952  -0.86180  -0.83131  -0.82380  -0.78169
 Alpha  occ. eigenvalues --   -0.77391  -0.72617  -0.71901  -0.71756  -0.71223
 Alpha  occ. eigenvalues --   -0.71020  -0.70494  -0.65789  -0.65580  -0.65012
 Alpha  occ. eigenvalues --   -0.64820  -0.62943  -0.62074  -0.56022  -0.55332
 Alpha  occ. eigenvalues --   -0.53891  -0.53673  -0.53086  -0.52835  -0.49391
 Alpha  occ. eigenvalues --   -0.49367  -0.48671  -0.48644  -0.45338  -0.44630
 Alpha  occ. eigenvalues --   -0.38088  -0.37365  -0.37182  -0.36356
 Alpha virt. eigenvalues --    0.04324   0.05149   0.10421   0.11254   0.15727
 Alpha virt. eigenvalues --    0.16573   0.19527   0.21939   0.25415   0.27162
 Alpha virt. eigenvalues --    0.28151   0.29058   0.30175   0.30927   0.32133

 Mulliken charges:
               1
     1  C   -0.171700
     2  C   -0.218324
     3  C   -0.170412
     4  C    0.158587
     5  C   -0.168803
     6  C   -0.220931
     7  H    0.220347
     8  H    0.222867
     9  H    0.276026
    10  H    0.280337
    11  H    0.219017
    12  N    0.488026
    13  O   -0.457528
    14  O   -0.461068
    15  C   -0.170151
    16  C   -0.218842
    17  C   -0.178834
    18  C    0.159297
    19  C   -0.169736
    20  C   -0.217251
    21  H    0.228115
    22  H    0.220086
    23  H    0.273004
    24  H    0.279131
    25  H    0.227111
    26  N    0.487715
    27  O   -0.455824
    28  O   -0.460263
 Sum of Mulliken charges =  -0.00000

 Dipole moment (field-independent basis, Debye):
    X=              3.8443    Y=              8.5938    Z=             -0.7071  Tot=              9.4410
 Quadrupole moment (field-independent basis, Debye-Ang):
   XX=           -106.6985   YY=           -107.6998   ZZ=           -105.7037
   XY=             -4.2678   XZ=            -17.8080   YZ=              2.8475

 Normal termination of Gaussian 16 at Fri May  7 00:25:26 2021.
