 Gaussian 16, Revision A.03,
 Gaussian 16:  EM64L-G16RevA.03 25-Dec-2016

 -------------
 #p 6-31g* mp2
 -------------

 ------------------------------------------------------
 Input file generated by CHIRIPA (05-May-2021 14:51:07)
 ------------------------------------------------------
 Symbolic Z-matrix:
 Charge =  0 Multiplicity = 1

                         Standard orientation:
 ---------------------------------------------------------------------
 Center     Atomic      Atomic             Coordinates (Angstroms)
 Number     Number       Type             X           Y           Z
 ---------------------------------------------------------------------
      1          6           0       -2.599674   -0.031516   -0.341833
      2          6           0       -3.920544   -0.757996   -0.597788
      3          6           0       -3.722348   -2.215406   -1.015482
      4          1           0       -1.983415   -0.073494   -1.250353
      5          1           0       -2.041174   -0.565173    0.439629
      6          1           0       -4.477006   -0.222342   -1.377558
      7          1           0       -4.533809   -0.714117    0.311385
      8          1           0       -3.188914   -2.770176   -0.236842
      9          1           0       -3.131788   -2.275607   -1.935382
     10          1           0       -4.679359   -2.715755   -1.193356
     11          6           0       -2.781342    1.426448    0.076577
     12          6           0       -1.460472    2.152928    0.332532
     13          6           0       -1.658668    3.610339    0.750225
     14          1           0       -3.339842    1.960106   -0.704885
     15          1           0       -3.397600    1.468427    0.985097
     16          1           0       -0.847207    2.109049   -0.576641
     17          1           0       -0.904010    1.617274    1.112302
     18          1           0       -2.249227    3.670539    1.670126
     19          1           0       -2.192102    4.165109   -0.028414
     20          1           0       -0.701656    4.110687    0.928100
     21          6           0        1.958574   -0.817513    0.315095
     22          6           0        1.684684   -2.233421    0.823204
     23          6           0        0.216016   -2.458180    1.184163
     24          1           0        1.653373   -0.093727    1.083165
     25          1           0        1.329876   -0.623224   -0.564897
     26          1           0        2.314724   -2.425474    1.701147
     27          1           0        1.990751   -2.953927    0.053913
     28          1           0       -0.424642   -2.293575    0.311773
     29          1           0       -0.098828   -1.762120    1.968366
     30          1           0        0.042642   -3.476790    1.545045
     31          6           0        3.422441   -0.577419   -0.049839
     32          6           0        3.696331    0.838488   -0.557948
     33          6           0        5.164999    1.063248   -0.918907
     34          1           0        4.051139   -0.771709    0.830153
     35          1           0        3.727643   -1.301206   -0.817908
     36          1           0        3.390265    1.558995    0.211344
     37          1           0        3.066292    1.030541   -1.435891
     38          1           0        5.479844    0.367187   -1.703110
     39          1           0        5.805657    0.898644   -0.046517
     40          1           0        5.338373    2.081857   -1.279789
 ---------------------------------------------------------------------

 SCF Done:  E(RHF) =  -470.732735792     A.U. after   11 cycles
 E2 =    -0.1584090801D+01 EUMP2 =    -0.47231682659257D+03

 The electronic state is 1-A.
 Alpha  occ. eigenvalues --  -11.21597 -11.21594 -11.21552 -11.21548 -11.21388
 Alpha  occ. eigenvalues --  -11.21330 -11.21327 -11.21241 -11.21067 -11.21046
 Alpha  occ. eigenvalues --  -11.21046 -11.21040  -1.08435  -1.08361  -1.03535
 Alpha  occ. eigenvalues --   -1.03480  -0.95988  -0.95929  -0.87020  -0.86939
 Alpha  occ. eigenvalues --   -0.79653  -0.79514  -0.78377  -0.78028  -0.65052
 Alpha  occ. eigenvalues --   -0.65015  -0.60971  -0.60847  -0.59354  -0.59310
 Alpha  occ. eigenvalues --   -0.57659  -0.57486  -0.55272  -0.55223  -0.52675
 Alpha  occ. eigenvalues --   -0.52641  -0.52529  -0.52269  -0.49942  -0.49873
 Alpha  occ. eigenvalues --   -0.48080  -0.47804  -0.46700  -0.46516  -0.46105
 Alpha  occ. eigenvalues --   -0.45773  -0.45574  -0.45137  -0.43778  -0.43730
 Alpha virt. eigenvalues --    0.21316   0.23007   0.23437   0.24054   0.25087
 Alpha virt. eigenvalues --    0.26043   0.27072   0.27453   0.28439   0.30162
 Alpha virt. eigenvalues --    0.30568   0.31275   0.31734   0.31917   0.32130

 Mulliken charges:
               1
     1  C   -0.305995
     2  C   -0.298948
     3  C   -0.478378
     4  H    0.147655
     5  H    0.160175
     6  H    0.151444
     7  H    0.151718
     8  H    0.157978
     9  H    0.154274
    10  H    0.160293
    11  C   -0.297931
    12  C   -0.300638
    13  C   -0.475749
    14  H    0.149004
    15  H    0.149182
    16  H    0.152319
    17  H    0.152964
    18  H    0.154885
    19  H    0.155109
    20  H    0.160023
    21  C   -0.299979
    22  C   -0.299637
    23  C   -0.482239
    24  H    0.150718
    25  H    0.151068
    26  H    0.151612
    27  H    0.151967
    28  H    0.163747
    29  H    0.153826
    30  H    0.159860
    31  C   -0.298393
    32  C   -0.299437
    33  C   -0.475704
    34  H    0.149400
    35  H    0.149552
    36  H    0.152065
    37  H    0.151699
    38  H    0.155128
    39  H    0.155166
    40  H    0.160196
 Sum of Mulliken charges =  -0.00000

 Dipole moment (field-independent basis, Debye):
    X=              0.0123    Y=             -0.0224    Z=              0.0093  Tot=              0.0272
 Quadrupole moment (field-independent basis, Debye-Ang):
   XX=            -85.9432   YY=            -85.9248   ZZ=            -83.1254
   XY=             -0.2105   XZ=              0.3748   YZ=             -0.2098

 Normal termination of Gaussian 16 at Wed May  5 16:34:43 2021.
