 Gaussian 16, Revision A.03,
 Gaussian 16:  EM64L-G16RevA.03 25-Dec-2016

 -------------
 #p 6-31g* mp2
 -------------

 ------------------------------------------------------
 Input file generated by CHIRIPA (05-May-2021 14:51:11)
 ------------------------------------------------------
 Symbolic Z-matrix:
 Charge =  0 Multiplicity = 1

                         Standard orientation:
 ---------------------------------------------------------------------
 Center     Atomic      Atomic             Coordinates (Angstroms)
 Number     Number       Type             X           Y           Z
 ---------------------------------------------------------------------
      1          6           0       -2.246810   -0.686864    0.776702
      2          6           0       -1.609311   -2.036525    0.445049
      3          6           0       -1.355105   -2.891361    1.686995
      4          1           0       -1.594168   -0.141197    1.471864
      5          1           0       -3.194535   -0.857064    1.306084
      6          1           0       -0.663748   -1.863849   -0.084773
      7          1           0       -2.263454   -2.578963   -0.249555
      8          1           0       -2.293027   -3.092905    2.214520
      9          1           0       -0.684232   -2.373728    2.380238
     10          1           0       -0.899026   -3.851676    1.426906
     11          6           0       -2.507086    0.179097   -0.454596
     12          6           0       -3.144585    1.528759   -0.122943
     13          6           0       -3.398791    2.383594   -1.364889
     14          1           0       -1.559362    0.349297   -0.983978
     15          1           0       -3.159728   -0.366570   -1.149758
     16          1           0       -2.490442    2.071196    0.571660
     17          1           0       -4.090148    1.356082    0.406878
     18          1           0       -4.069664    1.865962   -2.058132
     19          1           0       -2.460869    2.585138   -1.892414
     20          1           0       -3.854870    3.343910   -1.104800
     21          6           0        2.422490    1.013003   -0.232434
     22          6           0        2.460188    1.746949    1.108419
     23          6           0        2.551327    3.264877    0.949107
     24          1           0        3.321914    1.269268   -0.808896
     25          1           0        1.564020    1.373581   -0.815879
     26          1           0        3.317530    1.384099    1.689728
     27          1           0        1.560662    1.488757    1.681835
     28          1           0        1.689965    3.646076    0.391126
     29          1           0        3.456815    3.540823    0.399063
     30          1           0        2.577033    3.769612    1.919901
     31          6           0        2.331406   -0.505236   -0.089672
     32          6           0        2.293709   -1.239182   -1.430525
     33          6           0        2.202569   -2.757111   -1.271213
     34          1           0        3.189876   -0.865813    0.493774
     35          1           0        1.431981   -0.761502    0.486791
     36          1           0        3.193234   -0.980990   -2.003941
     37          1           0        1.436366   -0.876333   -2.011833
     38          1           0        1.297082   -3.033056   -0.721168
     39          1           0        3.063932   -3.138309   -0.713231
     40          1           0        2.176863   -3.261845   -2.242007
 ---------------------------------------------------------------------

 SCF Done:  E(RHF) =  -470.732801925     A.U. after   11 cycles
 E2 =    -0.1584748681D+01 EUMP2 =    -0.47231755060616D+03

 The electronic state is 1-A.
 Alpha  occ. eigenvalues --  -11.21667 -11.21660 -11.21648 -11.21631 -11.21480
 Alpha  occ. eigenvalues --  -11.21463 -11.21420 -11.21400 -11.21129 -11.21120
 Alpha  occ. eigenvalues --  -11.21120 -11.21062  -1.08545  -1.08448  -1.03637
 Alpha  occ. eigenvalues --   -1.03538  -0.96056  -0.96008  -0.87059  -0.87035
 Alpha  occ. eigenvalues --   -0.79703  -0.79602  -0.78347  -0.78276  -0.65517
 Alpha  occ. eigenvalues --   -0.64793  -0.61282  -0.60722  -0.59446  -0.59341
 Alpha  occ. eigenvalues --   -0.57716  -0.57574  -0.55403  -0.55235  -0.52731
 Alpha  occ. eigenvalues --   -0.52712  -0.52487  -0.52420  -0.49990  -0.49969
 Alpha  occ. eigenvalues --   -0.48087  -0.47886  -0.46884  -0.46549  -0.46064
 Alpha  occ. eigenvalues --   -0.45824  -0.45722  -0.45437  -0.43847  -0.43830
 Alpha virt. eigenvalues --    0.18717   0.22344   0.23408   0.24326   0.25544
 Alpha virt. eigenvalues --    0.26345   0.26585   0.28307   0.28787   0.30324
 Alpha virt. eigenvalues --    0.30879   0.31453   0.31653   0.31772   0.32047

 Mulliken charges:
               1
     1  C   -0.298489
     2  C   -0.309483
     3  C   -0.477178
     4  H    0.149378
     5  H    0.150155
     6  H    0.160646
     7  H    0.152682
     8  H    0.155858
     9  H    0.155719
    10  H    0.161058
    11  C   -0.299738
    12  C   -0.299738
    13  C   -0.475708
    14  H    0.149785
    15  H    0.150176
    16  H    0.151868
    17  H    0.152319
    18  H    0.155410
    19  H    0.154888
    20  H    0.160583
    21  C   -0.298677
    22  C   -0.299884
    23  C   -0.475757
    24  H    0.150164
    25  H    0.149354
    26  H    0.152353
    27  H    0.151345
    28  H    0.155127
    29  H    0.155470
    30  H    0.160493
    31  C   -0.303739
    32  C   -0.300991
    33  C   -0.480798
    34  H    0.150135
    35  H    0.154100
    36  H    0.152769
    37  H    0.152107
    38  H    0.160410
    39  H    0.155322
    40  H    0.160507
 Sum of Mulliken charges =  -0.00000

 Dipole moment (field-independent basis, Debye):
    X=             -0.0043    Y=             -0.0129    Z=              0.0048  Tot=              0.0144
 Quadrupole moment (field-independent basis, Debye-Ang):
   XX=            -82.8030   YY=            -86.3227   ZZ=            -85.4280
   XY=              0.4625   XZ=             -0.0964   YZ=              0.5611

 Normal termination of Gaussian 16 at Thu May  6 03:51:44 2021.
