 Gaussian 16, Revision A.03,
 Gaussian 16:  EM64L-G16RevA.03 25-Dec-2016

 -------------
 #p 6-31g* mp2
 -------------

 ------------------------------------------------------
 Input file generated by CHIRIPA (05-May-2021 14:55:21)
 ------------------------------------------------------
 Symbolic Z-matrix:
 Charge =  0 Multiplicity = 1

                         Standard orientation:
 ---------------------------------------------------------------------
 Center     Atomic      Atomic             Coordinates (Angstroms)
 Number     Number       Type             X           Y           Z
 ---------------------------------------------------------------------
      1          6           0       -1.811447    1.634171    0.379543
      2          6           0       -2.268274    1.348180   -0.911208
      3          6           0       -3.330491    0.460773   -1.108065
      4          6           0       -3.915325   -0.125356    0.013413
      5          6           0       -3.482817    0.139345    1.311935
      6          6           0       -2.419105    1.029906    1.485046
      7          1           0       -0.985710    2.324754    0.523243
      8          1           0       -1.798263    1.815988   -1.771609
      9          1           0       -3.704127    0.221511   -2.096279
     10          1           0       -3.971413   -0.342499    2.150098
     11          1           0       -2.066421    1.250138    2.488618
     12          7           0       -5.040638   -1.066483   -0.182421
     13          8           0       -5.538937   -1.569768    0.822088
     14          8           0       -5.403052   -1.283032   -1.336718
     15          6           0        5.484231   -0.089856   -0.335316
     16          6           0        6.385022   -1.021551    0.476167
     17          6           0        7.802230   -1.114705   -0.090080
     18          1           0        5.442861   -0.443667   -1.374571
     19          1           0        5.935253    0.911724   -0.363836
     20          1           0        5.931741   -2.020731    0.504310
     21          1           0        6.424100   -0.665590    1.513655
     22          1           0        8.277601   -0.128569   -0.102766
     23          1           0        7.782444   -1.491410   -1.117846
     24          1           0        8.429105   -1.785879    0.505247
     25          6           0        4.064211    0.013687    0.218353
     26          6           0        3.163421    0.945381   -0.593130
     27          6           0        1.746212    1.038535   -0.026883
     28          1           0        3.613189   -0.987892    0.246873
     29          1           0        4.105582    0.367498    1.257608
     30          1           0        3.124343    0.589421   -1.630618
     31          1           0        3.616702    1.944562   -0.621273
     32          1           0        1.765998    1.415240    1.000883
     33          1           0        1.270842    0.052400   -0.014197
     34          1           0        1.119337    1.709710   -0.622209
 ---------------------------------------------------------------------

 SCF Done:  E(RHF) =  -669.535077878     A.U. after   15 cycles
 E2 =    -0.2091442631D+01 EUMP2 =    -0.67162652050976D+03

 The electronic state is 1-A.
 Alpha  occ. eigenvalues --  -20.60711 -20.60706 -15.85766 -11.31107 -11.27692
 Alpha  occ. eigenvalues --  -11.27688 -11.27376 -11.26685 -11.26672 -11.22349
 Alpha  occ. eigenvalues --  -11.22096 -11.21988 -11.21973 -11.21837 -11.21389
 Alpha  occ. eigenvalues --   -1.59788  -1.39342  -1.19286  -1.08996  -1.08678
 Alpha  occ. eigenvalues --   -1.04690  -1.04134  -0.96614  -0.95511  -0.87637
 Alpha  occ. eigenvalues --   -0.86086  -0.82354  -0.80208  -0.78774  -0.77406
 Alpha  occ. eigenvalues --   -0.71984  -0.71112  -0.70395  -0.65618  -0.64939
 Alpha  occ. eigenvalues --   -0.64701  -0.62045  -0.61521  -0.60022  -0.58196
 Alpha  occ. eigenvalues --   -0.55892  -0.55228  -0.53386  -0.53040  -0.52860
 Alpha  occ. eigenvalues --   -0.52781  -0.50528  -0.48740  -0.48740  -0.48518
 Alpha  occ. eigenvalues --   -0.47213  -0.46326  -0.46224  -0.44753  -0.44384
 Alpha  occ. eigenvalues --   -0.37211  -0.36300
 Alpha virt. eigenvalues --    0.05123   0.11325   0.16588   0.20514   0.22460
 Alpha virt. eigenvalues --    0.23895   0.26066   0.26337   0.26762   0.27407
 Alpha virt. eigenvalues --    0.28848   0.30403   0.30974   0.31136   0.31905

 Mulliken charges:
               1
     1  C   -0.165976
     2  C   -0.219742
     3  C   -0.171221
     4  C    0.157943
     5  C   -0.170941
     6  C   -0.220812
     7  H    0.228599
     8  H    0.222517
     9  H    0.275225
    10  H    0.275258
    11  H    0.223068
    12  N    0.488141
    13  O   -0.460746
    14  O   -0.460795
    15  C   -0.298743
    16  C   -0.300078
    17  C   -0.476008
    18  H    0.150721
    19  H    0.149772
    20  H    0.153005
    21  H    0.152050
    22  H    0.155339
    23  H    0.155872
    24  H    0.161492
    25  C   -0.299235
    26  C   -0.300446
    27  C   -0.476666
    28  H    0.151567
    29  H    0.149523
    30  H    0.154129
    31  H    0.152322
    32  H    0.151638
    33  H    0.163378
    34  H    0.149851
 Sum of Mulliken charges =  -0.00000

 Dipole moment (field-independent basis, Debye):
    X=              4.1478    Y=              3.2580    Z=              0.6960  Tot=              5.3201
 Quadrupole moment (field-independent basis, Debye-Ang):
   XX=           -127.2605   YY=            -95.7960   ZZ=            -89.6155
   XY=            -13.2838   XZ=             -2.5905   YZ=             -0.3379

 Normal termination of Gaussian 16 at Thu May  6 20:42:15 2021.
