 Gaussian 16, Revision A.03,
 Gaussian 16:  EM64L-G16RevA.03 25-Dec-2016

 -------------
 #p 6-31g* mp2
 -------------

 ------------------------------------------------------
 Input file generated by CHIRIPA (05-May-2021 14:51:12)
 ------------------------------------------------------
 Symbolic Z-matrix:
 Charge =  0 Multiplicity = 1

                         Standard orientation:
 ---------------------------------------------------------------------
 Center     Atomic      Atomic             Coordinates (Angstroms)
 Number     Number       Type             X           Y           Z
 ---------------------------------------------------------------------
      1          6           0       -3.021870   -0.372251    0.748512
      2          6           0       -1.678606   -0.878690    0.222066
      3          6           0       -0.735589   -1.324404    1.340034
      4          1           0       -2.846246    0.465131    1.437637
      5          1           0       -3.500035   -1.166955    1.337748
      6          1           0       -1.203748   -0.083740   -0.367155
      7          1           0       -1.857460   -1.714840   -0.466034
      8          1           0       -1.185291   -2.134468    1.923271
      9          1           0       -0.527866   -0.494101    2.022711
     10          1           0        0.218644   -1.682673    0.941356
     11          6           0       -3.975457    0.076957   -0.357206
     12          6           0       -5.318722    0.583396    0.169240
     13          6           0       -6.261739    1.029110   -0.948728
     14          1           0       -3.497293    0.871661   -0.946442
     15          1           0       -4.151082   -0.760425   -1.046331
     16          1           0       -5.139868    1.419546    0.857340
     17          1           0       -5.793579   -0.211553    0.758461
     18          1           0       -6.469462    0.198807   -1.631405
     19          1           0       -5.812036    1.839174   -1.531965
     20          1           0       -7.215971    1.387379   -0.550050
     21          6           0        3.357630   -0.453575   -0.645180
     22          6           0        3.344652   -1.784123    0.108116
     23          6           0        3.061193   -2.977509   -0.804723
     24          1           0        2.389405   -0.312961   -1.144892
     25          1           0        4.115818   -0.497182   -1.439312
     26          1           0        2.587673   -1.737524    0.901480
     27          1           0        4.312954   -1.921496    0.606250
     28          1           0        3.821912   -3.052240   -1.588510
     29          1           0        2.086829   -2.867221   -1.291602
     30          1           0        3.056529   -3.918404   -0.245656
     31          6           0        3.639697    0.748868    0.253874
     32          6           0        3.652674    2.079417   -0.499423
     33          6           0        3.936134    3.272803    0.413417
     34          1           0        2.881509    0.792476    1.048006
     35          1           0        4.607923    0.608254    0.753586
     36          1           0        2.684373    2.216790   -0.997557
     37          1           0        4.409654    2.032818   -1.292787
     38          1           0        4.910499    3.162515    0.900296
     39          1           0        3.175416    3.347533    1.197204
     40          1           0        3.940798    4.213698   -0.145650
 ---------------------------------------------------------------------

 SCF Done:  E(RHF) =  -470.733321907     A.U. after   11 cycles
 E2 =    -0.1582803646D+01 EUMP2 =    -0.47231612555312D+03

 The electronic state is 1-A.
 Alpha  occ. eigenvalues --  -11.21668 -11.21628 -11.21601 -11.21577 -11.21445
 Alpha  occ. eigenvalues --  -11.21396 -11.21385 -11.21336 -11.21122 -11.21091
 Alpha  occ. eigenvalues --  -11.21079 -11.21075  -1.08475  -1.08423  -1.03586
 Alpha  occ. eigenvalues --   -1.03520  -0.96027  -0.95975  -0.87049  -0.86988
 Alpha  occ. eigenvalues --   -0.79663  -0.79568  -0.78288  -0.78231  -0.65125
 Alpha  occ. eigenvalues --   -0.65061  -0.61016  -0.60964  -0.59394  -0.59301
 Alpha  occ. eigenvalues --   -0.57639  -0.57570  -0.55324  -0.55251  -0.52742
 Alpha  occ. eigenvalues --   -0.52664  -0.52455  -0.52386  -0.49964  -0.49915
 Alpha  occ. eigenvalues --   -0.48008  -0.47859  -0.46678  -0.46616  -0.45830
 Alpha  occ. eigenvalues --   -0.45775  -0.45763  -0.45686  -0.43807  -0.43757
 Alpha virt. eigenvalues --    0.20332   0.23099   0.23803   0.25042   0.26264
 Alpha virt. eigenvalues --    0.26612   0.26805   0.27836   0.27914   0.29087
 Alpha virt. eigenvalues --    0.30413   0.31422   0.31517   0.31717   0.32115

 Mulliken charges:
               1
     1  C   -0.298517
     2  C   -0.299336
     3  C   -0.483811
     4  H    0.149685
     5  H    0.149798
     6  H    0.151385
     7  H    0.152154
     8  H    0.155821
     9  H    0.154784
    10  H    0.168351
    11  C   -0.298291
    12  C   -0.299679
    13  C   -0.475733
    14  H    0.149486
    15  H    0.149765
    16  H    0.151980
    17  H    0.152014
    18  H    0.155240
    19  H    0.155213
    20  H    0.160355
    21  C   -0.298710
    22  C   -0.305199
    23  C   -0.476697
    24  H    0.149959
    25  H    0.149609
    26  H    0.156336
    27  H    0.152585
    28  H    0.155489
    29  H    0.155449
    30  H    0.160461
    31  C   -0.298625
    32  C   -0.299596
    33  C   -0.475676
    34  H    0.150244
    35  H    0.149639
    36  H    0.151643
    37  H    0.151937
    38  H    0.155262
    39  H    0.155045
    40  H    0.160180
 Sum of Mulliken charges =  -0.00000

 Dipole moment (field-independent basis, Debye):
    X=             -0.0090    Y=             -0.0109    Z=              0.0058  Tot=              0.0153
 Quadrupole moment (field-independent basis, Debye-Ang):
   XX=            -84.2408   YY=            -84.9105   ZZ=            -85.5337
   XY=              0.3585   XZ=             -0.7934   YZ=             -0.1927

 Normal termination of Gaussian 16 at Wed May  5 15:18:32 2021.
