 Gaussian 16, Revision A.03,
 Gaussian 16:  EM64L-G16RevA.03 25-Dec-2016

 -------------
 #p 6-31g* mp2
 -------------

 ------------------------------------------------------
 Input file generated by CHIRIPA (05-May-2021 14:51:11)
 ------------------------------------------------------
 Symbolic Z-matrix:
 Charge =  0 Multiplicity = 1

                         Standard orientation:
 ---------------------------------------------------------------------
 Center     Atomic      Atomic             Coordinates (Angstroms)
 Number     Number       Type             X           Y           Z
 ---------------------------------------------------------------------
      1          6           0        3.616318    0.719393   -0.606378
      2          6           0        2.249992    1.281717   -0.212767
      3          6           0        1.923324    2.594352   -0.925558
      4          1           0        4.391421    1.464195   -0.379595
      5          1           0        3.641400    0.563336   -1.693766
      6          1           0        2.227011    1.435368    0.873731
      7          1           0        1.478071    0.535415   -0.440336
      8          1           0        1.918778    2.452466   -2.011122
      9          1           0        2.671973    3.357532   -0.689588
     10          1           0        0.942206    2.978578   -0.629520
     11          6           0        3.957185   -0.592665    0.097924
     12          6           0        5.323511   -1.154989   -0.295686
     13          6           0        5.650179   -2.467624    0.417104
     14          1           0        3.932103   -0.436607    1.185312
     15          1           0        3.182082   -1.337466   -0.128858
     16          1           0        6.095432   -0.408687   -0.068117
     17          1           0        5.346492   -1.308639   -1.382185
     18          1           0        4.901530   -3.230804    0.181134
     19          1           0        5.654725   -2.325738    1.502668
     20          1           0        6.631297   -2.851849    0.121066
     21          6           0       -3.260217    0.488341    0.211618
     22          6           0       -2.230755    0.432557    1.340812
     23          6           0       -1.184021    1.542670    1.241850
     24          1           0       -2.740320    0.419049   -0.753706
     25          1           0       -3.759602    1.466980    0.228142
     26          1           0       -1.734433   -0.546199    1.323026
     27          1           0       -2.753178    0.501797    2.303566
     28          1           0       -1.661472    2.527054    1.282202
     29          1           0       -0.636937    1.473103    0.296090
     30          1           0       -0.458087    1.483959    2.058817
     31          6           0       -4.313286   -0.615069    0.296836
     32          6           0       -5.342748   -0.559286   -0.832359
     33          6           0       -6.389482   -1.669398   -0.733396
     34          1           0       -3.813899   -1.593708    0.280312
     35          1           0       -4.833182   -0.545777    1.262160
     36          1           0       -4.820324   -0.628525   -1.795112
     37          1           0       -5.839070    0.419471   -0.814572
     38          1           0       -6.936565   -1.599832    0.212364
     39          1           0       -5.912031   -2.653782   -0.773748
     40          1           0       -7.115414   -1.610687   -1.550363
 ---------------------------------------------------------------------

 SCF Done:  E(RHF) =  -470.732122184     A.U. after   11 cycles
 E2 =    -0.1583422458D+01 EUMP2 =    -0.47231554464172D+03

 The electronic state is 1-A.
 Alpha  occ. eigenvalues --  -11.21599 -11.21596 -11.21566 -11.21552 -11.21397
 Alpha  occ. eigenvalues --  -11.21388 -11.21337 -11.21326 -11.21070 -11.21070
 Alpha  occ. eigenvalues --  -11.20998 -11.20957  -1.08437  -1.08395  -1.03582
 Alpha  occ. eigenvalues --   -1.03446  -0.96056  -0.95870  -0.87017  -0.86942
 Alpha  occ. eigenvalues --   -0.79666  -0.79501  -0.78273  -0.78183  -0.65092
 Alpha  occ. eigenvalues --   -0.65012  -0.61053  -0.60842  -0.59392  -0.59296
 Alpha  occ. eigenvalues --   -0.57775  -0.57441  -0.55292  -0.55135  -0.52789
 Alpha  occ. eigenvalues --   -0.52614  -0.52500  -0.52145  -0.49922  -0.49846
 Alpha  occ. eigenvalues --   -0.47951  -0.47814  -0.46689  -0.46519  -0.45812
 Alpha  occ. eigenvalues --   -0.45743  -0.45701  -0.45615  -0.43780  -0.43738
 Alpha virt. eigenvalues --    0.21943   0.23071   0.23523   0.24892   0.26142
 Alpha virt. eigenvalues --    0.26661   0.26905   0.27399   0.27886   0.29220
 Alpha virt. eigenvalues --    0.29984   0.31102   0.31298   0.31859   0.32313

 Mulliken charges:
               1
     1  C   -0.297990
     2  C   -0.300179
     3  C   -0.481243
     4  H    0.149557
     5  H    0.149182
     6  H    0.153911
     7  H    0.151150
     8  H    0.154389
     9  H    0.155427
    10  H    0.165623
    11  C   -0.298159
    12  C   -0.299618
    13  C   -0.475677
    14  H    0.149412
    15  H    0.149296
    16  H    0.151985
    17  H    0.151871
    18  H    0.155061
    19  H    0.155173
    20  H    0.160242
    21  C   -0.298383
    22  C   -0.300099
    23  C   -0.481184
    24  H    0.149243
    25  H    0.149522
    26  H    0.151657
    27  H    0.151595
    28  H    0.153617
    29  H    0.164219
    30  H    0.160485
    31  C   -0.298218
    32  C   -0.299627
    33  C   -0.475693
    34  H    0.149393
    35  H    0.149711
    36  H    0.151833
    37  H    0.151950
    38  H    0.155201
    39  H    0.155132
    40  H    0.160233
 Sum of Mulliken charges =  -0.00000

 Dipole moment (field-independent basis, Debye):
    X=              0.0074    Y=              0.0139    Z=              0.0069  Tot=              0.0172
 Quadrupole moment (field-independent basis, Debye-Ang):
   XX=            -85.2296   YY=            -85.6079   ZZ=            -84.1163
   XY=             -0.3591   XZ=             -0.1462   YZ=              1.1462

 Normal termination of Gaussian 16 at Wed May  5 23:06:44 2021.
