 Gaussian 16, Revision A.03,
 Gaussian 16:  EM64L-G16RevA.03 25-Dec-2016

 -------------
 #p 6-31g* mp2
 -------------

 ------------------------------------------------------
 Input file generated by CHIRIPA (05-May-2021 14:51:13)
 ------------------------------------------------------
 Symbolic Z-matrix:
 Charge =  0 Multiplicity = 1

                         Standard orientation:
 ---------------------------------------------------------------------
 Center     Atomic      Atomic             Coordinates (Angstroms)
 Number     Number       Type             X           Y           Z
 ---------------------------------------------------------------------
      1          6           0       -3.577204    0.648025    0.302705
      2          6           0       -4.078562    1.959092   -0.303702
      3          6           0       -4.397846    3.015772    0.754258
      4          1           0       -4.335660    0.258076    0.995257
      5          1           0       -2.679537    0.849646    0.903485
      6          1           0       -4.974217    1.754843   -0.904286
      7          1           0       -3.318906    2.345867   -0.995037
      8          1           0       -3.507463    3.248512    1.347260
      9          1           0       -5.172179    2.654130    1.438526
     10          1           0       -4.754545    3.944869    0.298841
     11          6           0       -3.253797   -0.418229   -0.742397
     12          6           0       -2.752439   -1.729295   -0.135990
     13          6           0       -2.433155   -2.785976   -1.193950
     14          1           0       -4.151465   -0.619849   -1.343178
     15          1           0       -2.495341   -0.028279   -1.434949
     16          1           0       -3.512095   -2.116071    0.555344
     17          1           0       -1.856784   -1.525046    0.464594
     18          1           0       -1.658822   -2.424333   -1.878219
     19          1           0       -3.323538   -3.018715   -1.786953
     20          1           0       -2.076456   -3.715073   -0.738534
     21          6           0        3.900093    0.463042    0.340626
     22          6           0        4.658714    0.890980   -0.916094
     23          6           0        5.624289    2.048162   -0.658432
     24          1           0        3.345078    1.324202    0.737244
     25          1           0        4.622833    0.173059    1.115838
     26          1           0        3.934728    1.178752   -1.689171
     27          1           0        5.211836    0.028653   -1.309875
     28          1           0        6.368581    1.768541    0.094192
     29          1           0        5.084215    2.925176   -0.287259
     30          1           0        6.156011    2.337937   -1.570113
     31          6           0        2.930908   -0.692838    0.099066
     32          6           0        2.172287   -1.120777    1.355787
     33          6           0        1.206713   -2.277959    1.098125
     34          1           0        2.208168   -0.402856   -0.676145
     35          1           0        3.485924   -1.553999   -0.297551
     36          1           0        1.619165   -0.258449    1.749567
     37          1           0        2.896274   -1.408549    2.128863
     38          1           0        1.746786   -3.154972    0.726951
     39          1           0        0.462420   -1.998338    0.345500
     40          1           0        0.674990   -2.567733    2.009805
 ---------------------------------------------------------------------

 SCF Done:  E(RHF) =  -470.733131991     A.U. after   11 cycles
 E2 =    -0.1582729263D+01 EUMP2 =    -0.47231586125357D+03

 The electronic state is 1-A.
 Alpha  occ. eigenvalues --  -11.21638 -11.21628 -11.21611 -11.21538 -11.21441
 Alpha  occ. eigenvalues --  -11.21404 -11.21381 -11.21344 -11.21093 -11.21082
 Alpha  occ. eigenvalues --  -11.21073 -11.21044  -1.08467  -1.08423  -1.03578
 Alpha  occ. eigenvalues --   -1.03504  -0.96031  -0.95952  -0.87027  -0.86988
 Alpha  occ. eigenvalues --   -0.79657  -0.79551  -0.78285  -0.78229  -0.65169
 Alpha  occ. eigenvalues --   -0.65005  -0.61151  -0.60764  -0.59385  -0.59329
 Alpha  occ. eigenvalues --   -0.57638  -0.57562  -0.55430  -0.55133  -0.52711
 Alpha  occ. eigenvalues --   -0.52652  -0.52423  -0.52392  -0.50012  -0.49877
 Alpha  occ. eigenvalues --   -0.47972  -0.47865  -0.46793  -0.46480  -0.45850
 Alpha  occ. eigenvalues --   -0.45780  -0.45752  -0.45592  -0.43813  -0.43773
 Alpha virt. eigenvalues --    0.21180   0.23153   0.23637   0.24802   0.26381
 Alpha virt. eigenvalues --    0.26926   0.27175   0.27473   0.27870   0.28894
 Alpha virt. eigenvalues --    0.30913   0.31502   0.31672   0.31805   0.32104

 Mulliken charges:
               1
     1  C   -0.298181
     2  C   -0.299608
     3  C   -0.475681
     4  H    0.149821
     5  H    0.149126
     6  H    0.152043
     7  H    0.151692
     8  H    0.155022
     9  H    0.155270
    10  H    0.160264
    11  C   -0.297919
    12  C   -0.306226
    13  C   -0.475827
    14  H    0.149585
    15  H    0.148717
    16  H    0.151968
    17  H    0.158082
    18  H    0.154374
    19  H    0.155115
    20  H    0.161535
    21  C   -0.298304
    22  C   -0.299668
    23  C   -0.475725
    24  H    0.149518
    25  H    0.149708
    26  H    0.151818
    27  H    0.152065
    28  H    0.155264
    29  H    0.155169
    30  H    0.160350
    31  C   -0.298298
    32  C   -0.299905
    33  C   -0.481726
    34  H    0.149028
    35  H    0.149957
    36  H    0.151420
    37  H    0.152258
    38  H    0.155523
    39  H    0.162001
    40  H    0.160376
 Sum of Mulliken charges =  -0.00000

 Dipole moment (field-independent basis, Debye):
    X=              0.0139    Y=             -0.0207    Z=              0.0087  Tot=              0.0264
 Quadrupole moment (field-independent basis, Debye-Ang):
   XX=            -83.9033   YY=            -85.6202   ZZ=            -85.1933
   XY=             -0.5386   XZ=              0.2392   YZ=             -0.7632

 Normal termination of Gaussian 16 at Wed May  5 19:58:01 2021.
