 Gaussian 16, Revision A.03,
 Gaussian 16:  EM64L-G16RevA.03 25-Dec-2016

 -------------
 #p 6-31g* mp2
 -------------

 ------------------------------------------------------
 Input file generated by CHIRIPA (05-May-2021 14:53:15)
 ------------------------------------------------------
 Symbolic Z-matrix:
 Charge =  0 Multiplicity = 1

                         Standard orientation:
 ---------------------------------------------------------------------
 Center     Atomic      Atomic             Coordinates (Angstroms)
 Number     Number       Type             X           Y           Z
 ---------------------------------------------------------------------
      1          6           0       -4.618352   -0.252663   -0.254752
      2          6           0       -4.707019   -1.740180    0.087905
      3          6           0       -5.802688   -2.463124   -0.696094
      4          1           0       -5.588686    0.221799   -0.054047
      5          1           0       -4.433278   -0.142128   -1.332214
      6          1           0       -4.890494   -1.847903    1.164636
      7          1           0       -3.736305   -2.211118   -0.113457
      8          1           0       -5.621110   -2.385291   -1.772929
      9          1           0       -6.781857   -2.020013   -0.487574
     10          1           0       -5.848517   -3.525168   -0.435664
     11          6           0       -3.527618    0.483738    0.520967
     12          6           0       -3.438950    1.971256    0.178310
     13          6           0       -2.343281    2.694200    0.962310
     14          1           0       -3.712692    0.373203    1.598430
     15          1           0       -2.557283    0.009276    0.320263
     16          1           0       -4.409664    2.442193    0.379673
     17          1           0       -3.255475    2.078979   -0.898421
     18          1           0       -1.364112    2.251088    0.753789
     19          1           0       -2.524859    2.616366    2.039144
     20          1           0       -2.297452    3.756243    0.701880
     21          6           0        4.633159   -2.074381    0.464689
     22          6           0        3.239943   -2.190192    0.510077
     23          6           0        2.426072   -1.097426    0.196994
     24          6           0        3.041728    0.101553   -0.158968
     25          6           0        4.426930    0.248345   -0.213357
     26          6           0        5.221169   -0.857627    0.103753
     27          1           0        5.257768   -2.928398    0.709464
     28          1           0        2.780530   -3.133910    0.790047
     29          1           0        1.344939   -1.159371    0.224043
     30          1           0        4.855847    1.202055   -0.496000
     31          1           0        6.302891   -0.764781    0.067656
     32          7           0        2.190512    1.265407   -0.492547
     33          8           0        2.757430    2.310762   -0.803148
     34          8           0        0.972528    1.110243   -0.437088
 ---------------------------------------------------------------------

 SCF Done:  E(RHF) =  -669.536331552     A.U. after   15 cycles
 E2 =    -0.2090929923D+01 EUMP2 =    -0.67162726147468D+03

 The electronic state is 1-A.
 Alpha  occ. eigenvalues --  -20.60994 -20.60985 -15.86026 -11.31322 -11.27883
 Alpha  occ. eigenvalues --  -11.27878 -11.27615 -11.26884 -11.26874 -11.21238
 Alpha  occ. eigenvalues --  -11.20801 -11.20786 -11.20587 -11.20519 -11.19610
 Alpha  occ. eigenvalues --   -1.60049  -1.39607  -1.19487  -1.08896  -1.07725
 Alpha  occ. eigenvalues --   -1.04881  -1.02753  -0.95743  -0.95188  -0.86283
 Alpha  occ. eigenvalues --   -0.86208  -0.82578  -0.78873  -0.77639  -0.77492
 Alpha  occ. eigenvalues --   -0.72253  -0.71360  -0.70597  -0.65146  -0.64883
 Alpha  occ. eigenvalues --   -0.64353  -0.62229  -0.60134  -0.58634  -0.56798
 Alpha  occ. eigenvalues --   -0.55386  -0.54455  -0.53213  -0.52972  -0.51893
 Alpha  occ. eigenvalues --   -0.51619  -0.49243  -0.49000  -0.48880  -0.47164
 Alpha  occ. eigenvalues --   -0.45916  -0.45111  -0.45005  -0.44834  -0.43025
 Alpha  occ. eigenvalues --   -0.37464  -0.36480
 Alpha virt. eigenvalues --    0.04877   0.11175   0.16364   0.21215   0.23464
 Alpha virt. eigenvalues --    0.25079   0.26732   0.27385   0.27867   0.28616
 Alpha virt. eigenvalues --    0.28918   0.30836   0.31952   0.32323   0.32583

 Mulliken charges:
               1
     1  C   -0.297867
     2  C   -0.298393
     3  C   -0.475219
     4  H    0.148322
     5  H    0.150071
     6  H    0.150364
     7  H    0.148524
     8  H    0.155088
     9  H    0.155149
    10  H    0.157619
    11  C   -0.298511
    12  C   -0.297421
    13  C   -0.487044
    14  H    0.145509
    15  H    0.152555
    16  H    0.146254
    17  H    0.154253
    18  H    0.182899
    19  H    0.145917
    20  H    0.157769
    21  C   -0.170522
    22  C   -0.218535
    23  C   -0.170602
    24  C    0.157763
    25  C   -0.170499
    26  C   -0.218588
    27  H    0.226132
    28  H    0.224042
    29  H    0.275419
    30  H    0.275956
    31  H    0.223928
    32  N    0.491910
    33  O   -0.458103
    34  O   -0.464141
 Sum of Mulliken charges =  -0.00000

 Dipole moment (field-independent basis, Debye):
    X=              3.3340    Y=             -4.0695    Z=              1.1015  Tot=              5.3749
 Quadrupole moment (field-independent basis, Debye-Ang):
   XX=            -74.2633   YY=            -95.1535   ZZ=            -95.7542
   XY=            -10.4022   XZ=              1.7716   YZ=             -0.2083

 Normal termination of Gaussian 16 at Thu May  6 01:07:50 2021.
