 Gaussian 16, Revision A.03,
 Gaussian 16:  EM64L-G16RevA.03 25-Dec-2016

 -------------
 #p 6-31g* mp2
 -------------

 ------------------------------------------------------
 Input file generated by CHIRIPA (05-May-2021 14:53:11)
 ------------------------------------------------------
 Symbolic Z-matrix:
 Charge =  0 Multiplicity = 1

                         Standard orientation:
 ---------------------------------------------------------------------
 Center     Atomic      Atomic             Coordinates (Angstroms)
 Number     Number       Type             X           Y           Z
 ---------------------------------------------------------------------
      1          6           0        5.228155   -0.014095    0.056890
      2          6           0        5.854567   -1.308767   -0.462163
      3          6           0        7.284400   -1.515791    0.038350
      4          1           0        5.852276    0.836403   -0.249821
      5          1           0        5.234829   -0.026517    1.155615
      6          1           0        5.845454   -1.294514   -1.559582
      7          1           0        5.228779   -2.156266   -0.154344
      8          1           0        7.307607   -1.556223    1.132163
      9          1           0        7.927786   -0.689574   -0.281060
     10          1           0        7.712953   -2.447158   -0.344738
     11          6           0        3.798789    0.206942   -0.434824
     12          6           0        3.172377    1.501614    0.084230
     13          6           0        1.742544    1.708638   -0.416283
     14          1           0        3.792115    0.219364   -1.533549
     15          1           0        3.174668   -0.643556   -0.128113
     16          1           0        3.798164    2.349113   -0.223590
     17          1           0        3.181489    1.487361    1.181649
     18          1           0        1.099158    0.882422   -0.096873
     19          1           0        1.719337    1.749070   -1.510096
     20          1           0        1.313991    2.640005   -0.033195
     21          6           0       -1.536129    1.185371    1.051162
     22          6           0       -1.901384   -0.042121    1.613634
     23          6           0       -3.002173   -0.749354    1.121058
     24          6           0       -3.718537   -0.197211    0.060280
     25          6           0       -3.379585    1.023488   -0.521351
     26          6           0       -2.275093    1.713327   -0.012659
     27          1           0       -0.679571    1.728011    1.440067
     28          1           0       -1.329334   -0.454554    2.439892
     29          1           0       -3.306965   -1.701649    1.537775
     30          1           0       -3.969209    1.409160   -1.344161
     31          1           0       -1.993739    2.666402   -0.451445
     32          7           0       -4.885854   -0.936720   -0.469718
     33          8           0       -5.500612   -0.428783   -1.404978
     34          8           0       -5.163935   -2.010281    0.060163
 ---------------------------------------------------------------------

 SCF Done:  E(RHF) =  -669.534670908     A.U. after   15 cycles
 E2 =    -0.2091817082D+01 EUMP2 =    -0.67162648799007D+03

 The electronic state is 1-A.
 Alpha  occ. eigenvalues --  -20.60727 -20.60721 -15.85782 -11.31133 -11.27726
 Alpha  occ. eigenvalues --  -11.27713 -11.27396 -11.26719 -11.26693 -11.22421
 Alpha  occ. eigenvalues --  -11.22058 -11.22032 -11.22018 -11.21892 -11.21428
 Alpha  occ. eigenvalues --   -1.59803  -1.39357  -1.19317  -1.09048  -1.08709
 Alpha  occ. eigenvalues --   -1.04718  -1.04177  -0.96653  -0.95538  -0.87670
 Alpha  occ. eigenvalues --   -0.86112  -0.82380  -0.80248  -0.78822  -0.77426
 Alpha  occ. eigenvalues --   -0.71999  -0.71127  -0.70442  -0.65676  -0.64965
 Alpha  occ. eigenvalues --   -0.64722  -0.62068  -0.61581  -0.60047  -0.58232
 Alpha  occ. eigenvalues --   -0.56069  -0.55114  -0.53396  -0.53173  -0.52865
 Alpha  occ. eigenvalues --   -0.52806  -0.50530  -0.48756  -0.48755  -0.48552
 Alpha  occ. eigenvalues --   -0.47258  -0.46371  -0.46278  -0.44766  -0.44429
 Alpha  occ. eigenvalues --   -0.37226  -0.36331
 Alpha virt. eigenvalues --    0.05094   0.11284   0.16537   0.20445   0.22491
 Alpha virt. eigenvalues --    0.23895   0.26040   0.26329   0.26985   0.27406
 Alpha virt. eigenvalues --    0.29122   0.30653   0.30858   0.31255   0.31558

 Mulliken charges:
               1
     1  C   -0.298657
     2  C   -0.300120
     3  C   -0.476012
     4  H    0.150684
     5  H    0.149047
     6  H    0.153171
     7  H    0.152398
     8  H    0.155177
     9  H    0.155727
    10  H    0.161801
    11  C   -0.298845
    12  C   -0.299777
    13  C   -0.482552
    14  H    0.151982
    15  H    0.149982
    16  H    0.154623
    17  H    0.149178
    18  H    0.159797
    19  H    0.160679
    20  H    0.150172
    21  C   -0.169086
    22  C   -0.221874
    23  C   -0.170378
    24  C    0.158053
    25  C   -0.170894
    26  C   -0.219534
    27  H    0.230939
    28  H    0.222925
    29  H    0.275355
    30  H    0.275469
    31  H    0.223765
    32  N    0.488137
    33  O   -0.460602
    34  O   -0.460733
 Sum of Mulliken charges =  -0.00000

 Dipole moment (field-independent basis, Debye):
    X=              4.2676    Y=              2.5750    Z=              1.8082  Tot=              5.3021
 Quadrupole moment (field-independent basis, Debye-Ang):
   XX=           -126.5003   YY=            -93.4751   ZZ=            -92.1071
   XY=            -10.9011   XZ=             -6.8644   YZ=             -3.4334

 Normal termination of Gaussian 16 at Wed May  5 15:26:28 2021.
