 Gaussian 16, Revision A.03,
 Gaussian 16:  EM64L-G16RevA.03 25-Dec-2016

 -------------
 #p 6-31g* mp2
 -------------

 ------------------------------------------------------
 Input file generated by CHIRIPA (05-May-2021 14:53:15)
 ------------------------------------------------------
 Symbolic Z-matrix:
 Charge =  0 Multiplicity = 1

                         Standard orientation:
 ---------------------------------------------------------------------
 Center     Atomic      Atomic             Coordinates (Angstroms)
 Number     Number       Type             X           Y           Z
 ---------------------------------------------------------------------
      1          6           0        3.336688    0.874434    0.199441
      2          6           0        3.866884    2.072004   -0.589673
      3          6           0        3.554794    3.408725    0.083803
      4          1           0        2.250282    0.978353    0.325408
      5          1           0        3.771067    0.887838    1.208664
      6          1           0        3.432706    2.055571   -1.597560
      7          1           0        4.952127    1.965126   -0.713941
      8          1           0        4.001704    3.450612    1.082361
      9          1           0        2.473651    3.541571    0.193721
     10          1           0        3.942799    4.251224   -0.497152
     11          6           0        3.640877   -0.469008   -0.461136
     12          6           0        3.110681   -1.666579    0.327979
     13          6           0        3.422771   -3.003300   -0.345498
     14          1           0        3.206498   -0.482413   -1.470358
     15          1           0        4.727283   -0.572927   -0.587102
     16          1           0        2.025439   -1.559700    0.452247
     17          1           0        3.544859   -1.650145    1.335865
     18          1           0        4.503914   -3.136146   -0.455416
     19          1           0        2.975861   -3.045187   -1.344055
     20          1           0        3.034766   -3.845798    0.235457
     21          6           0       -4.240888    1.820889   -0.288154
     22          6           0       -3.147163    1.936352    0.576112
     23          6           0       -2.300899    0.846260    0.799905
     24          6           0       -2.579120   -0.349717    0.139965
     25          6           0       -3.660900   -0.496084   -0.726995
     26          6           0       -4.493820    0.607179   -0.935807
     27          1           0       -4.893104    2.672814   -0.456183
     28          1           0       -2.948309    2.877707    1.080444
     29          1           0       -1.447180    0.908005    1.463811
     30          1           0       -3.833575   -1.447409   -1.215444
     31          1           0       -5.342487    0.514611   -1.607550
     32          7           0       -1.690281   -1.510720    0.368955
     33          8           0       -1.956968   -2.553457   -0.224522
     34          8           0       -0.743754   -1.355994    1.137578
 ---------------------------------------------------------------------

 SCF Done:  E(RHF) =  -669.536349307     A.U. after   15 cycles
 E2 =    -0.2091195390D+01 EUMP2 =    -0.67162754469686D+03

 The electronic state is 1-A.
 Alpha  occ. eigenvalues --  -20.61017 -20.61012 -15.86037 -11.31337 -11.27896
 Alpha  occ. eigenvalues --  -11.27892 -11.27628 -11.26898 -11.26888 -11.21234
 Alpha  occ. eigenvalues --  -11.20906 -11.20791 -11.20538 -11.20237 -11.19909
 Alpha  occ. eigenvalues --   -1.60071  -1.39628  -1.19502  -1.08911  -1.07700
 Alpha  occ. eigenvalues --   -1.04894  -1.02761  -0.95756  -0.95266  -0.86299
 Alpha  occ. eigenvalues --   -0.86289  -0.82590  -0.78872  -0.77655  -0.77416
 Alpha  occ. eigenvalues --   -0.72257  -0.71382  -0.70609  -0.65158  -0.64896
 Alpha  occ. eigenvalues --   -0.64336  -0.62241  -0.60155  -0.58677  -0.56831
 Alpha  occ. eigenvalues --   -0.55399  -0.54577  -0.53228  -0.52985  -0.51966
 Alpha  occ. eigenvalues --   -0.51685  -0.49263  -0.49021  -0.49014  -0.47174
 Alpha  occ. eigenvalues --   -0.45926  -0.45266  -0.44973  -0.44567  -0.43024
 Alpha  occ. eigenvalues --   -0.37479  -0.36495
 Alpha virt. eigenvalues --    0.04840   0.11155   0.16319   0.21212   0.23448
 Alpha virt. eigenvalues --    0.25107   0.26681   0.27420   0.27825   0.28559
 Alpha virt. eigenvalues --    0.28905   0.30972   0.32107   0.32293   0.32489

 Mulliken charges:
               1
     1  C   -0.297046
     2  C   -0.298976
     3  C   -0.474365
     4  H    0.148805
     5  H    0.148618
     6  H    0.150433
     7  H    0.151707
     8  H    0.155043
     9  H    0.150271
    10  H    0.158564
    11  C   -0.297502
    12  C   -0.311480
    13  C   -0.474134
    14  H    0.146763
    15  H    0.145774
    16  H    0.179475
    17  H    0.147283
    18  H    0.148286
    19  H    0.153563
    20  H    0.163777
    21  C   -0.170500
    22  C   -0.218544
    23  C   -0.171399
    24  C    0.157899
    25  C   -0.170657
    26  C   -0.218569
    27  H    0.226233
    28  H    0.224206
    29  H    0.276213
    30  H    0.275948
    31  H    0.223993
    32  N    0.489056
    33  O   -0.458211
    34  O   -0.460527
 Sum of Mulliken charges =  -0.00000

 Dipole moment (field-independent basis, Debye):
    X=             -3.4311    Y=              3.9886    Z=             -0.7548  Tot=              5.3151
 Quadrupole moment (field-independent basis, Debye-Ang):
   XX=            -77.5663   YY=            -97.8928   ZZ=            -93.5315
   XY=             -7.8619   XZ=              4.4811   YZ=              2.3866

 Normal termination of Gaussian 16 at Thu May  6 15:29:52 2021.
