 Gaussian 16, Revision A.03,
 Gaussian 16:  EM64L-G16RevA.03 25-Dec-2016

 -------------
 #p 6-31g* mp2
 -------------

 ------------------------------------------------------
 Input file generated by CHIRIPA (05-May-2021 14:51:13)
 ------------------------------------------------------
 Symbolic Z-matrix:
 Charge =  0 Multiplicity = 1

                         Standard orientation:
 ---------------------------------------------------------------------
 Center     Atomic      Atomic             Coordinates (Angstroms)
 Number     Number       Type             X           Y           Z
 ---------------------------------------------------------------------
      1          6           0        4.743879   -0.399475   -0.381860
      2          6           0        6.112324    0.068705    0.114276
      3          6           0        7.214905   -0.118483   -0.928350
      4          1           0        4.806502   -1.459072   -0.665196
      5          1           0        4.483883    0.153447   -1.295137
      6          1           0        6.369043   -0.483951    1.027120
      7          1           0        6.046389    1.127259    0.396645
      8          1           0        6.985254    0.446471   -1.837574
      9          1           0        7.309741   -1.173893   -1.203517
     10          1           0        8.184669    0.222670   -0.552808
     11          6           0        3.631303   -0.218784    0.649282
     12          6           0        2.262858   -0.686964    0.153145
     13          6           0        1.160277   -0.499777    1.195772
     14          1           0        3.891299   -0.771706    1.562558
     15          1           0        3.568681    0.840812    0.932618
     16          1           0        2.328794   -1.745518   -0.129223
     17          1           0        2.006140   -0.134309   -0.759698
     18          1           0        1.065441    0.555633    1.470939
     19          1           0        1.389929   -1.064731    2.104996
     20          1           0        0.190513   -0.840930    0.820230
     21          6           0       -3.812953    0.970446   -0.057959
     22          6           0       -2.293117    0.817709   -0.126912
     23          6           0       -1.557605    2.149386    0.026232
     24          1           0       -4.141325    1.664775   -0.843468
     25          1           0       -4.084914    1.432403    0.901222
     26          1           0       -2.024205    0.354910   -1.085097
     27          1           0       -1.968344    0.123514    0.658730
     28          1           0       -1.796884    2.613179    0.988647
     29          1           0       -1.853062    2.845890   -0.765088
     30          1           0       -0.472436    2.016992   -0.026097
     31          6           0       -4.562230   -0.352187   -0.209463
     32          6           0       -6.082066   -0.199450   -0.140510
     33          6           0       -6.817577   -1.531126   -0.293654
     34          1           0       -4.290269   -0.814143   -1.168643
     35          1           0       -4.233856   -1.046515    0.576047
     36          1           0       -6.406839    0.494745   -0.926152
     37          1           0       -6.350977    0.263350    0.817676
     38          1           0       -6.522120   -2.227630    0.497668
     39          1           0       -6.578298   -1.994920   -1.256069
     40          1           0       -7.902747   -1.398732   -0.241324
 ---------------------------------------------------------------------

 SCF Done:  E(RHF) =  -470.732646817     A.U. after   11 cycles
 E2 =    -0.1583106670D+01 EUMP2 =    -0.47231575348696D+03

 The electronic state is 1-A.
 Alpha  occ. eigenvalues --  -11.21597 -11.21595 -11.21590 -11.21550 -11.21399
 Alpha  occ. eigenvalues --  -11.21385 -11.21340 -11.21324 -11.21067 -11.21063
 Alpha  occ. eigenvalues --  -11.21025 -11.20997  -1.08435  -1.08400  -1.03569
 Alpha  occ. eigenvalues --   -1.03462  -0.96039  -0.95890  -0.87010  -0.86956
 Alpha  occ. eigenvalues --   -0.79639  -0.79531  -0.78247  -0.78217  -0.65074
 Alpha  occ. eigenvalues --   -0.65033  -0.61014  -0.60880  -0.59535  -0.59150
 Alpha  occ. eigenvalues --   -0.57690  -0.57456  -0.55316  -0.55170  -0.52724
 Alpha  occ. eigenvalues --   -0.52596  -0.52433  -0.52336  -0.49916  -0.49865
 Alpha  occ. eigenvalues --   -0.48040  -0.47755  -0.46632  -0.46581  -0.45788
 Alpha  occ. eigenvalues --   -0.45754  -0.45714  -0.45682  -0.43808  -0.43664
 Alpha virt. eigenvalues --    0.21342   0.23035   0.23489   0.25251   0.26245
 Alpha virt. eigenvalues --    0.26575   0.26953   0.27428   0.27656   0.29283
 Alpha virt. eigenvalues --    0.29969   0.31177   0.31500   0.31718   0.32853

 Mulliken charges:
               1
     1  C   -0.298246
     2  C   -0.299638
     3  C   -0.475699
     4  H    0.149634
     5  H    0.149476
     6  H    0.151916
     7  H    0.151965
     8  H    0.155181
     9  H    0.155160
    10  H    0.160246
    11  C   -0.298402
    12  C   -0.300523
    13  C   -0.482208
    14  H    0.149582
    15  H    0.149513
    16  H    0.152022
    17  H    0.151949
    18  H    0.156738
    19  H    0.154476
    20  H    0.166957
    21  C   -0.297744
    22  C   -0.302776
    23  C   -0.478229
    24  H    0.149402
    25  H    0.149495
    26  H    0.151072
    27  H    0.156024
    28  H    0.154792
    29  H    0.154602
    30  H    0.163652
    31  C   -0.298350
    32  C   -0.299599
    33  C   -0.475707
    34  H    0.149369
    35  H    0.149479
    36  H    0.151934
    37  H    0.151958
    38  H    0.155171
    39  H    0.155132
    40  H    0.160226
 Sum of Mulliken charges =  -0.00000

 Dipole moment (field-independent basis, Debye):
    X=             -0.0000    Y=             -0.0074    Z=              0.0096  Tot=              0.0121
 Quadrupole moment (field-independent basis, Debye-Ang):
   XX=            -86.1688   YY=            -84.6965   ZZ=            -84.0602
   XY=             -0.6822   XZ=              0.5817   YZ=             -0.6089

 Normal termination of Gaussian 16 at Thu May  6 02:22:13 2021.
