 Gaussian 16, Revision A.03,
 Gaussian 16:  EM64L-G16RevA.03 25-Dec-2016

 -------------
 #p 6-31g* mp2
 -------------

 ------------------------------------------------------
 Input file generated by CHIRIPA (05-May-2021 14:55:23)
 ------------------------------------------------------
 Symbolic Z-matrix:
 Charge =  0 Multiplicity = 1

                         Standard orientation:
 ---------------------------------------------------------------------
 Center     Atomic      Atomic             Coordinates (Angstroms)
 Number     Number       Type             X           Y           Z
 ---------------------------------------------------------------------
      1          6           0       -0.653441    0.225386    2.302181
      2          6           0       -0.351618   -0.885832    1.508067
      3          6           0       -1.178971   -1.239644    0.438089
      4          6           0       -2.305099   -0.456487    0.189513
      5          6           0       -2.632558    0.656394    0.962531
      6          6           0       -1.790943    0.991602    2.027363
      7          1           0       -0.005194    0.493010    3.131367
      8          1           0        0.531116   -1.482713    1.719160
      9          1           0       -0.968908   -2.094841   -0.192727
     10          1           0       -3.519520    1.232139    0.727513
     11          1           0       -2.027817    1.855120    2.642402
     12          7           0       -3.188530   -0.821204   -0.940500
     13          8           0       -4.174733   -0.114986   -1.138735
     14          8           0       -2.878033   -1.806382   -1.606573
     15          6           0        3.251164    0.156687   -0.008434
     16          6           0        3.986607   -1.016575   -0.656944
     17          6           0        4.957306   -1.707973    0.300921
     18          1           0        3.987352    0.884842    0.358664
     19          1           0        2.703144   -0.205015    0.872611
     20          1           0        4.531960   -0.653023   -1.537306
     21          1           0        3.248576   -1.741931   -1.022712
     22          1           0        4.424587   -2.097777    1.174343
     23          1           0        5.715263   -1.002683    0.656824
     24          1           0        5.472207   -2.543634   -0.183234
     25          6           0        2.277154    0.858039   -0.953494
     26          6           0        1.541711    2.031301   -0.304985
     27          6           0        0.571012    2.722699   -1.262849
     28          1           0        2.825174    1.219740   -1.834540
     29          1           0        1.540965    0.129883   -1.320592
     30          1           0        2.279742    2.756656    0.060783
     31          1           0        0.996357    1.667749    0.575377
     32          1           0       -0.186945    2.017408   -1.618753
     33          1           0        1.103731    3.112502   -2.136271
     34          1           0        0.056111    3.558361   -0.778694
 ---------------------------------------------------------------------

 SCF Done:  E(RHF) =  -669.534512350     A.U. after   15 cycles
 E2 =    -0.2095211213D+01 EUMP2 =    -0.67162972356334D+03

 The electronic state is 1-A.
 Alpha  occ. eigenvalues --  -20.60876 -20.60870 -15.85933 -11.31352 -11.27927
 Alpha  occ. eigenvalues --  -11.27919 -11.27641 -11.26928 -11.26918 -11.22092
 Alpha  occ. eigenvalues --  -11.21913 -11.21692 -11.21622 -11.21601 -11.21160
 Alpha  occ. eigenvalues --   -1.59952  -1.39503  -1.19534  -1.08953  -1.08772
 Alpha  occ. eigenvalues --   -1.04931  -1.03853  -0.96317  -0.95742  -0.87328
 Alpha  occ. eigenvalues --   -0.86329  -0.82565  -0.79937  -0.78620  -0.77602
 Alpha  occ. eigenvalues --   -0.72147  -0.71279  -0.70627  -0.65538  -0.65177
 Alpha  occ. eigenvalues --   -0.64881  -0.62269  -0.61297  -0.59698  -0.57930
 Alpha  occ. eigenvalues --   -0.55637  -0.55417  -0.53275  -0.53026  -0.52966
 Alpha  occ. eigenvalues --   -0.52720  -0.50259  -0.48912  -0.48900  -0.48237
 Alpha  occ. eigenvalues --   -0.46997  -0.46141  -0.46103  -0.44897  -0.44122
 Alpha  occ. eigenvalues --   -0.37369  -0.36507
 Alpha virt. eigenvalues --    0.04893   0.10994   0.16300   0.19885   0.22998
 Alpha virt. eigenvalues --    0.23650   0.25668   0.26483   0.27389   0.28256
 Alpha virt. eigenvalues --    0.29326   0.30202   0.31284   0.31537   0.31937

 Mulliken charges:
               1
     1  C   -0.176255
     2  C   -0.213857
     3  C   -0.172345
     4  C    0.158809
     5  C   -0.169896
     6  C   -0.215731
     7  H    0.227613
     8  H    0.225432
     9  H    0.276301
    10  H    0.276617
    11  H    0.224681
    12  N    0.487770
    13  O   -0.459647
    14  O   -0.460040
    15  C   -0.298459
    16  C   -0.300179
    17  C   -0.474882
    18  H    0.150751
    19  H    0.138527
    20  H    0.155729
    21  H    0.150560
    22  H    0.149465
    23  H    0.156592
    24  H    0.162919
    25  C   -0.297704
    26  C   -0.306903
    27  C   -0.474686
    28  H    0.151458
    29  H    0.150519
    30  H    0.148298
    31  H    0.157818
    32  H    0.157682
    33  H    0.155896
    34  H    0.157148
 Sum of Mulliken charges =  -0.00000

 Dipole moment (field-independent basis, Debye):
    X=              3.0053    Y=              1.2701    Z=              3.9718  Tot=              5.1401
 Quadrupole moment (field-independent basis, Debye-Ang):
   XX=           -107.6722   YY=            -93.4146   ZZ=            -93.7496
   XY=             -6.2630   XZ=            -10.3156   YZ=             -0.3618

 Normal termination of Gaussian 16 at Thu May  6 09:26:55 2021.
