 Gaussian 16, Revision A.03,
 Gaussian 16:  EM64L-G16RevA.03 25-Dec-2016

 -------------
 #p 6-31g* mp2
 -------------

 ------------------------------------------------------
 Input file generated by CHIRIPA (05-May-2021 14:53:16)
 ------------------------------------------------------
 Symbolic Z-matrix:
 Charge =  0 Multiplicity = 1

                         Standard orientation:
 ---------------------------------------------------------------------
 Center     Atomic      Atomic             Coordinates (Angstroms)
 Number     Number       Type             X           Y           Z
 ---------------------------------------------------------------------
      1          6           0       -3.502073   -0.406938   -0.181505
      2          6           0       -4.724480   -1.322719   -0.110420
      3          6           0       -4.363379   -2.802265   -0.245855
      4          1           0       -2.982259   -0.573181   -1.134972
      5          1           0       -2.796011   -0.687164    0.612438
      6          1           0       -5.428650   -1.039949   -0.903391
      7          1           0       -5.241553   -1.154138    0.842907
      8          1           0       -3.679257   -3.106521    0.552898
      9          1           0       -3.867416   -2.991683   -1.203322
     10          1           0       -5.252001   -3.438928   -0.192280
     11          6           0       -3.846911    1.075255   -0.047639
     12          6           0       -2.624504    1.991035   -0.118724
     13          6           0       -2.985606    3.470581    0.016711
     14          1           0       -4.552973    1.355481   -0.841581
     15          1           0       -4.366725    1.241497    0.905829
     16          1           0       -2.107431    1.822455   -1.072051
     17          1           0       -1.920335    1.708265    0.674247
     18          1           0       -3.481568    3.659999    0.974178
     19          1           0       -3.669727    3.774838   -0.782042
     20          1           0       -2.096983    4.107245   -0.036863
     21          6           0        0.523765   -0.804437    0.839561
     22          6           0        0.839965   -0.800616   -0.522981
     23          6           0        2.137046   -0.500995   -0.950014
     24          6           0        3.097589   -0.208530    0.016998
     25          6           0        2.813544   -0.204218    1.381764
     26          6           0        1.509826   -0.506750    1.785917
     27          1           0       -0.486416   -1.038320    1.162404
     28          1           0        0.076203   -1.031421   -1.260166
     29          1           0        2.409185   -0.490874   -1.998469
     30          1           0        3.596236    0.029881    2.093107
     31          1           0        1.267127   -0.508967    2.844755
     32          7           0        4.474265    0.110207   -0.422972
     33          8           0        5.302492    0.364474    0.448822
     34          8           0        4.699009    0.099728   -1.631284
 ---------------------------------------------------------------------

 SCF Done:  E(RHF) =  -669.535533643     A.U. after   15 cycles
 E2 =    -0.2092070814D+01 EUMP2 =    -0.67162760445623D+03

 The electronic state is 1-A.
 Alpha  occ. eigenvalues --  -20.60720 -20.60715 -15.85774 -11.31127 -11.27697
 Alpha  occ. eigenvalues --  -11.27687 -11.27399 -11.26709 -11.26684 -11.22636
 Alpha  occ. eigenvalues --  -11.22543 -11.22371 -11.22259 -11.21998 -11.21651
 Alpha  occ. eigenvalues --   -1.59796  -1.39350  -1.19296  -1.09402  -1.08687
 Alpha  occ. eigenvalues --   -1.04697  -1.04375  -0.96841  -0.95529  -0.87848
 Alpha  occ. eigenvalues --   -0.86092  -0.82366  -0.80454  -0.79250  -0.77411
 Alpha  occ. eigenvalues --   -0.71991  -0.71119  -0.70416  -0.66029  -0.64945
 Alpha  occ. eigenvalues --   -0.64699  -0.62047  -0.61766  -0.60205  -0.58454
 Alpha  occ. eigenvalues --   -0.56167  -0.55197  -0.53479  -0.53257  -0.53021
 Alpha  occ. eigenvalues --   -0.52787  -0.50778  -0.48765  -0.48749  -0.48746
 Alpha  occ. eigenvalues --   -0.47500  -0.46739  -0.46675  -0.44759  -0.44672
 Alpha  occ. eigenvalues --   -0.37252  -0.36301
 Alpha virt. eigenvalues --    0.05098   0.11325   0.16513   0.19320   0.22759
 Alpha virt. eigenvalues --    0.23514   0.23800   0.25379   0.27133   0.28149
 Alpha virt. eigenvalues --    0.30116   0.30369   0.30951   0.31120   0.31474

 Mulliken charges:
               1
     1  C   -0.302896
     2  C   -0.299655
     3  C   -0.476347
     4  H    0.147237
     5  H    0.141672
     6  H    0.156192
     7  H    0.154608
     8  H    0.151884
     9  H    0.155035
    10  H    0.164982
    11  C   -0.298471
    12  C   -0.300975
    13  C   -0.476476
    14  H    0.153356
    15  H    0.151718
    16  H    0.151804
    17  H    0.150327
    18  H    0.155843
    19  H    0.156892
    20  H    0.163927
    21  C   -0.173501
    22  C   -0.221262
    23  C   -0.171322
    24  C    0.158495
    25  C   -0.170809
    26  C   -0.220488
    27  H    0.232545
    28  H    0.225146
    29  H    0.275294
    30  H    0.275267
    31  H    0.223227
    32  N    0.488021
    33  O   -0.460634
    34  O   -0.460637
 Sum of Mulliken charges =  -0.00000

 Dipole moment (field-independent basis, Debye):
    X=             -5.0774    Y=             -1.0497    Z=              1.5126  Tot=              5.4009
 Quadrupole moment (field-independent basis, Debye-Ang):
   XX=           -124.2198   YY=            -95.9030   ZZ=            -89.1893
   XY=             -2.2248   XZ=              6.5022   YZ=              0.1765

 Normal termination of Gaussian 16 at Thu May  6 02:46:13 2021.
