 Gaussian 16, Revision A.03,
 Gaussian 16:  EM64L-G16RevA.03 25-Dec-2016

 -------------
 #p 6-31g* mp2
 -------------

 ------------------------------------------------------
 Input file generated by CHIRIPA (05-May-2021 14:53:16)
 ------------------------------------------------------
 Symbolic Z-matrix:
 Charge =  0 Multiplicity = 1

                         Standard orientation:
 ---------------------------------------------------------------------
 Center     Atomic      Atomic             Coordinates (Angstroms)
 Number     Number       Type             X           Y           Z
 ---------------------------------------------------------------------
      1          6           0        3.525704    0.801513   -0.272710
      2          6           0        3.470738    2.276561    0.126285
      3          6           0        2.250609    2.998706   -0.446066
      4          1           0        3.533053    0.724703   -1.368608
      5          1           0        2.608829    0.301888    0.069501
      6          1           0        4.388066    2.772949   -0.215364
      7          1           0        3.463713    2.349875    1.221361
      8          1           0        1.325671    2.529749   -0.095110
      9          1           0        2.255276    2.955227   -1.539998
     10          1           0        2.231180    4.051758   -0.148472
     11          6           0        4.739827    0.066053    0.291854
     12          6           0        4.794793   -1.408995   -0.107141
     13          6           0        6.014923   -2.131140    0.465209
     14          1           0        5.656702    0.565678   -0.050358
     15          1           0        4.732478    0.142863    1.387752
     16          1           0        4.801819   -1.482309   -1.202217
     17          1           0        3.877465   -1.905383    0.234508
     18          1           0        6.010255   -2.087661    1.559142
     19          1           0        6.939861   -1.662183    0.114254
     20          1           0        6.034351   -3.184193    0.167615
     21          6           0       -0.934794   -1.334681   -0.342472
     22          6           0       -2.067792   -2.153235   -0.395469
     23          6           0       -3.343744   -1.612332   -0.211301
     24          6           0       -3.450491   -0.242624    0.024908
     25          6           0       -2.340758    0.599014    0.083467
     26          6           0       -1.074647    0.036413   -0.103594
     27          1           0        0.052573   -1.763296   -0.486662
     28          1           0       -1.962195   -3.218382   -0.580819
     29          1           0       -4.237726   -2.223006   -0.247249
     30          1           0       -2.477785    1.657245    0.269980
     31          1           0       -0.196513    0.674525   -0.061903
     32          7           0       -4.796076    0.341491    0.221410
     33          8           0       -4.863305    1.551212    0.428036
     34          8           0       -5.758037   -0.421461    0.165083
 ---------------------------------------------------------------------

 SCF Done:  E(RHF) =  -669.535458384     A.U. after   15 cycles
 E2 =    -0.2091431568D+01 EUMP2 =    -0.67162688995139D+03

 The electronic state is 1-A.
 Alpha  occ. eigenvalues --  -20.60718 -20.60713 -15.85771 -11.31129 -11.27701
 Alpha  occ. eigenvalues --  -11.27689 -11.27434 -11.26716 -11.26678 -11.22543
 Alpha  occ. eigenvalues --  -11.22464 -11.22458 -11.22237 -11.22124 -11.21758
 Alpha  occ. eigenvalues --   -1.59793  -1.39347  -1.19301  -1.09370  -1.08696
 Alpha  occ. eigenvalues --   -1.04706  -1.04426  -0.96880  -0.95532  -0.87893
 Alpha  occ. eigenvalues --   -0.86105  -0.82368  -0.80494  -0.79198  -0.77415
 Alpha  occ. eigenvalues --   -0.71989  -0.71116  -0.70408  -0.66022  -0.64952
 Alpha  occ. eigenvalues --   -0.64718  -0.62141  -0.61741  -0.60237  -0.58490
 Alpha  occ. eigenvalues --   -0.56189  -0.55198  -0.53541  -0.53335  -0.53033
 Alpha  occ. eigenvalues --   -0.52790  -0.50818  -0.48834  -0.48745  -0.48714
 Alpha  occ. eigenvalues --   -0.47516  -0.46725  -0.46641  -0.44754  -0.44686
 Alpha  occ. eigenvalues --   -0.37282  -0.36307
 Alpha virt. eigenvalues --    0.05120   0.11341   0.16615   0.18523   0.22429
 Alpha virt. eigenvalues --    0.23141   0.24950   0.25630   0.26293   0.28266
 Alpha virt. eigenvalues --    0.29620   0.30174   0.30980   0.31279   0.31648

 Mulliken charges:
               1
     1  C   -0.299787
     2  C   -0.300832
     3  C   -0.479729
     4  H    0.151798
     5  H    0.139718
     6  H    0.156730
     7  H    0.154805
     8  H    0.147074
     9  H    0.158820
    10  H    0.167102
    11  C   -0.298759
    12  C   -0.299576
    13  C   -0.476152
    14  H    0.153266
    15  H    0.152088
    16  H    0.152749
    17  H    0.146598
    18  H    0.156821
    19  H    0.157474
    20  H    0.161507
    21  C   -0.173996
    22  C   -0.218477
    23  C   -0.171279
    24  C    0.158818
    25  C   -0.173722
    26  C   -0.228142
    27  H    0.226711
    28  H    0.223162
    29  H    0.275391
    30  H    0.275613
    31  H    0.237293
    32  N    0.488068
    33  O   -0.460430
    34  O   -0.460724
 Sum of Mulliken charges =  -0.00000

 Dipole moment (field-independent basis, Debye):
    X=              5.0310    Y=             -1.9704    Z=             -0.7026  Tot=              5.4486
 Quadrupole moment (field-independent basis, Debye-Ang):
   XX=           -126.3774   YY=            -89.6796   ZZ=            -94.9800
   XY=              9.1094   XZ=              2.0910   YZ=              0.7382

 Normal termination of Gaussian 16 at Thu May  6 02:45:33 2021.
