 Gaussian 16, Revision A.03,
 Gaussian 16:  EM64L-G16RevA.03 25-Dec-2016

 -------------
 #p 6-31g* mp2
 -------------

 ------------------------------------------------------
 Input file generated by CHIRIPA (05-May-2021 14:51:10)
 ------------------------------------------------------
 Symbolic Z-matrix:
 Charge =  0 Multiplicity = 1

                         Standard orientation:
 ---------------------------------------------------------------------
 Center     Atomic      Atomic             Coordinates (Angstroms)
 Number     Number       Type             X           Y           Z
 ---------------------------------------------------------------------
      1          6           0       -2.741882    0.913319    0.340144
      2          6           0       -1.933406    2.211140    0.343685
      3          6           0       -2.436511    3.218200    1.378339
      4          1           0       -3.797269    1.146780    0.143675
      5          1           0       -2.702660    0.462341    1.341381
      6          1           0       -1.972997    2.658823   -0.657629
      7          1           0       -0.879790    1.974543    0.539978
      8          1           0       -2.381072    2.794986    2.386515
      9          1           0       -3.480490    3.483154    1.182104
     10          1           0       -1.844406    4.138557    1.363716
     11          6           0       -2.250974   -0.103431   -0.688913
     12          6           0       -3.059450   -1.401252   -0.692454
     13          6           0       -2.556344   -2.408311   -1.727109
     14          1           0       -2.290195    0.347547   -1.690150
     15          1           0       -1.195587   -0.336891   -0.492445
     16          1           0       -4.113066   -1.164655   -0.888747
     17          1           0       -3.019859   -1.848934    0.308859
     18          1           0       -1.512365   -2.673265   -1.530873
     19          1           0       -2.611783   -1.985098   -2.735284
     20          1           0       -3.148450   -3.328669   -1.712486
     21          6           0        3.076640    0.084717    0.090619
     22          6           0        2.874820    1.073174   -1.058384
     23          6           0        4.043978    2.046240   -1.213321
     24          1           0        3.217004    0.643401    1.026096
     25          1           0        4.004318   -0.479286   -0.078818
     26          1           0        1.947080    1.634178   -0.887536
     27          1           0        2.734729    0.512070   -1.991203
     28          1           0        4.974201    1.502844   -1.408272
     29          1           0        4.182076    2.631327   -0.298333
     30          1           0        3.878843    2.743789   -2.040376
     31          6           0        1.916215   -0.894606    0.258151
     32          6           0        2.118035   -1.883062    1.407154
     33          6           0        0.948878   -2.856129    1.562091
     34          1           0        0.988538   -0.330602    0.427588
     35          1           0        1.775852   -1.453289   -0.677326
     36          1           0        2.258126   -1.321958    2.339973
     37          1           0        3.045776   -2.444065    1.236305
     38          1           0        0.810779   -3.441216    0.647103
     39          1           0        0.018655   -2.312731    1.757041
     40          1           0        1.114013   -3.553677    2.389145
 ---------------------------------------------------------------------

 SCF Done:  E(RHF) =  -470.733307746     A.U. after   11 cycles
 E2 =    -0.1584123756D+01 EUMP2 =    -0.47231743150196D+03

 The electronic state is 1-A.
 Alpha  occ. eigenvalues --  -11.21682 -11.21649 -11.21619 -11.21552 -11.21471
 Alpha  occ. eigenvalues --  -11.21406 -11.21389 -11.21276 -11.21169 -11.21106
 Alpha  occ. eigenvalues --  -11.21084 -11.21017  -1.08507  -1.08404  -1.03587
 Alpha  occ. eigenvalues --   -1.03515  -0.96042  -0.95960  -0.87057  -0.86978
 Alpha  occ. eigenvalues --   -0.79660  -0.79572  -0.78450  -0.78099  -0.65267
 Alpha  occ. eigenvalues --   -0.64922  -0.60995  -0.60907  -0.59412  -0.59320
 Alpha  occ. eigenvalues --   -0.57681  -0.57548  -0.55344  -0.55242  -0.52730
 Alpha  occ. eigenvalues --   -0.52663  -0.52506  -0.52345  -0.49986  -0.49912
 Alpha  occ. eigenvalues --   -0.48054  -0.47833  -0.46694  -0.46621  -0.46430
 Alpha  occ. eigenvalues --   -0.45791  -0.45725  -0.45035  -0.43841  -0.43765
 Alpha virt. eigenvalues --    0.19591   0.21960   0.23554   0.24754   0.25262
 Alpha virt. eigenvalues --    0.26007   0.26609   0.27793   0.28402   0.30555
 Alpha virt. eigenvalues --    0.30958   0.31297   0.31595   0.31704   0.32110

 Mulliken charges:
               1
     1  C   -0.297783
     2  C   -0.302912
     3  C   -0.475626
     4  H    0.149915
     5  H    0.148568
     6  H    0.152519
     7  H    0.152982
     8  H    0.155084
     9  H    0.155616
    10  H    0.160237
    11  C   -0.307868
    12  C   -0.299060
    13  C   -0.476725
    14  H    0.149221
    15  H    0.159595
    16  H    0.151563
    17  H    0.151958
    18  H    0.156430
    19  H    0.154797
    20  H    0.160015
    21  C   -0.297399
    22  C   -0.301643
    23  C   -0.475696
    24  H    0.149498
    25  H    0.149829
    26  H    0.153793
    27  H    0.152283
    28  H    0.155207
    29  H    0.155145
    30  H    0.160496
    31  C   -0.306976
    32  C   -0.299266
    33  C   -0.477712
    34  H    0.156937
    35  H    0.150002
    36  H    0.152019
    37  H    0.152507
    38  H    0.156035
    39  H    0.155385
    40  H    0.161029
 Sum of Mulliken charges =  -0.00000

 Dipole moment (field-independent basis, Debye):
    X=              0.0391    Y=             -0.0069    Z=             -0.0007  Tot=              0.0397
 Quadrupole moment (field-independent basis, Debye-Ang):
   XX=            -84.8361   YY=            -85.4585   ZZ=            -84.4235
   XY=             -1.0060   XZ=              0.4966   YZ=             -0.2961

 Normal termination of Gaussian 16 at Wed May  5 15:12:50 2021.
