 Gaussian 16, Revision A.03,
 Gaussian 16:  EM64L-G16RevA.03 25-Dec-2016

 -------------
 #p 6-31g* mp2
 -------------

 ------------------------------------------------------
 Input file generated by CHIRIPA (05-May-2021 14:55:24)
 ------------------------------------------------------
 Symbolic Z-matrix:
 Charge =  0 Multiplicity = 1

                         Standard orientation:
 ---------------------------------------------------------------------
 Center     Atomic      Atomic             Coordinates (Angstroms)
 Number     Number       Type             X           Y           Z
 ---------------------------------------------------------------------
      1          6           0       -3.920614    2.117658    0.184757
      2          6           0       -2.685057    1.942259    0.816545
      3          6           0       -2.025276    0.711154    0.756401
      4          6           0       -2.632580   -0.327708    0.052670
      5          6           0       -3.862720   -0.184098   -0.587190
      6          6           0       -4.504472    1.055791   -0.513863
      7          1           0       -4.426145    3.077421    0.236599
      8          1           0       -2.229258    2.765152    1.359813
      9          1           0       -1.067978    0.547886    1.236340
     10          1           0       -4.292144   -1.023014   -1.121262
     11          1           0       -5.463941    1.189127   -1.005480
     12          7           0       -1.943642   -1.635673   -0.017981
     13          8           0       -2.499734   -2.535195   -0.644287
     14          8           0       -0.860607   -1.736568    0.554289
     15          6           0        3.209620    0.828397   -0.227644
     16          6           0        4.215088    1.975502   -0.121977
     17          6           0        3.589077    3.339237   -0.415458
     18          1           0        2.772960    0.823698   -1.235737
     19          1           0        2.381269    1.010620    0.470943
     20          1           0        5.041985    1.790472   -0.819560
     21          1           0        4.649547    1.977352    0.885922
     22          1           0        2.776912    3.549698    0.287888
     23          1           0        3.171581    3.361756   -1.427284
     24          1           0        4.325460    4.144849   -0.334288
     25          6           0        3.820461   -0.541321    0.063001
     26          6           0        2.814991   -1.688426   -0.042667
     27          6           0        3.441004   -3.052161    0.250815
     28          1           0        4.648811   -0.723545   -0.635587
     29          1           0        4.257120   -0.536622    1.071094
     30          1           0        2.380534   -1.690276   -1.050564
     31          1           0        1.988095   -1.503396    0.654917
     32          1           0        3.858499   -3.074680    1.262641
     33          1           0        4.253168   -3.262622   -0.452531
     34          1           0        2.704620   -3.857772    0.169646
 ---------------------------------------------------------------------

 SCF Done:  E(RHF) =  -669.535883544     A.U. after   15 cycles
 E2 =    -0.2091195710D+01 EUMP2 =    -0.67162707925394D+03

 The electronic state is 1-A.
 Alpha  occ. eigenvalues --  -20.60877 -20.60867 -15.85916 -11.31251 -11.27820
 Alpha  occ. eigenvalues --  -11.27814 -11.27556 -11.26829 -11.26819 -11.21404
 Alpha  occ. eigenvalues --  -11.21061 -11.21040 -11.20707 -11.20403 -11.20017
 Alpha  occ. eigenvalues --   -1.59939  -1.39495  -1.19421  -1.08823  -1.07888
 Alpha  occ. eigenvalues --   -1.04821  -1.02915  -0.95664  -0.95424  -0.86451
 Alpha  occ. eigenvalues --   -0.86221  -0.82502  -0.79036  -0.77670  -0.77478
 Alpha  occ. eigenvalues --   -0.72141  -0.71255  -0.70532  -0.65080  -0.64826
 Alpha  occ. eigenvalues --   -0.64531  -0.62170  -0.60316  -0.58831  -0.56973
 Alpha  occ. eigenvalues --   -0.55325  -0.54747  -0.53151  -0.52914  -0.52106
 Alpha  occ. eigenvalues --   -0.51841  -0.49412  -0.48900  -0.48897  -0.47331
 Alpha  occ. eigenvalues --   -0.46096  -0.45262  -0.45062  -0.44734  -0.43185
 Alpha  occ. eigenvalues --   -0.37400  -0.36422
 Alpha virt. eigenvalues --    0.04975   0.11228   0.16463   0.20973   0.23143
 Alpha virt. eigenvalues --    0.24904   0.25679   0.27474   0.27636   0.28435
 Alpha virt. eigenvalues --    0.29183   0.31028   0.31861   0.32053   0.32798

 Mulliken charges:
               1
     1  C   -0.170655
     2  C   -0.218448
     3  C   -0.170475
     4  C    0.157913
     5  C   -0.170857
     6  C   -0.218566
     7  H    0.225896
     8  H    0.223755
     9  H    0.275445
    10  H    0.275718
    11  H    0.223660
    12  N    0.492998
    13  O   -0.459765
    14  O   -0.464402
    15  C   -0.295512
    16  C   -0.299099
    17  C   -0.474557
    18  H    0.149505
    19  H    0.143141
    20  H    0.152617
    21  H    0.151277
    22  H    0.149959
    23  H    0.154860
    24  H    0.159615
    25  C   -0.298712
    26  C   -0.302828
    27  C   -0.476461
    28  H    0.146866
    29  H    0.146735
    30  H    0.151433
    31  H    0.170803
    32  H    0.150690
    33  H    0.149457
    34  H    0.167994
 Sum of Mulliken charges =  -0.00000

 Dipole moment (field-independent basis, Debye):
    X=             -2.6297    Y=              4.4873    Z=              0.2475  Tot=              5.2070
 Quadrupole moment (field-independent basis, Debye-Ang):
   XX=            -80.2333   YY=            -98.8920   ZZ=            -92.9477
   XY=             -9.7894   XZ=              1.3621   YZ=              1.6322

 Normal termination of Gaussian 16 at Thu May  6 09:29:14 2021.
