 Gaussian 16, Revision A.03,
 Gaussian 16:  EM64L-G16RevA.03 25-Dec-2016

 -------------
 #p 6-31g* mp2
 -------------

 ------------------------------------------------------
 Input file generated by CHIRIPA (05-May-2021 14:55:24)
 ------------------------------------------------------
 Symbolic Z-matrix:
 Charge =  0 Multiplicity = 1

                         Standard orientation:
 ---------------------------------------------------------------------
 Center     Atomic      Atomic             Coordinates (Angstroms)
 Number     Number       Type             X           Y           Z
 ---------------------------------------------------------------------
      1          6           0       -6.335174    0.034468   -0.612179
      2          6           0       -5.629985   -1.172787   -0.570146
      3          6           0       -4.270413   -1.189937   -0.244848
      4          6           0       -3.644715    0.024150    0.034052
      5          6           0       -4.320004    1.243226    0.000463
      6          6           0       -5.679089    1.236502   -0.327242
      7          1           0       -7.391133    0.038517   -0.865813
      8          1           0       -6.136921   -2.107825   -0.790970
      9          1           0       -3.700385   -2.110207   -0.204994
     10          1           0       -3.787402    2.159267    0.225453
     11          1           0       -6.224223    2.175575   -0.359119
     12          7           0       -2.205655    0.018631    0.379705
     13          8           0       -1.677431    1.101795    0.621310
     14          8           0       -1.633192   -1.068753    0.402476
     15          6           0        5.663901   -0.341308   -0.038989
     16          6           0        6.710348    0.632876   -0.581114
     17          6           0        8.095827   -0.000431   -0.712131
     18          1           0        5.992256   -0.714339    0.940794
     19          1           0        5.607451   -1.214872   -0.703138
     20          1           0        6.763820    1.504983    0.083106
     21          1           0        6.379372    1.003779   -1.559634
     22          1           0        8.064442   -0.858696   -1.391099
     23          1           0        8.451074   -0.354643    0.260974
     24          1           0        8.828399    0.713484   -1.101391
     25          6           0        4.273736    0.277155    0.097654
     26          6           0        3.227288   -0.697029    0.639779
     27          6           0        1.841810   -0.063721    0.770795
     28          1           0        4.330185    1.150720    0.761802
     29          1           0        3.945381    0.650186   -0.882130
     30          1           0        3.558264   -1.067930    1.618299
     31          1           0        3.173816   -1.569135   -0.024441
     32          1           0        1.486562    0.290491   -0.202309
     33          1           0        1.873194    0.794544    1.449764
     34          1           0        1.109238   -0.777637    1.160055
 ---------------------------------------------------------------------

 SCF Done:  E(RHF) =  -669.536101634     A.U. after   15 cycles
 E2 =    -0.2091441115D+01 EUMP2 =    -0.67162754274891D+03

 The electronic state is 1-A.
 Alpha  occ. eigenvalues --  -20.60963 -20.60952 -15.85973 -11.31307 -11.27867
 Alpha  occ. eigenvalues --  -11.27863 -11.27604 -11.26873 -11.26864 -11.20872
 Alpha  occ. eigenvalues --  -11.20478 -11.20470 -11.20204 -11.20043 -11.18797
 Alpha  occ. eigenvalues --   -1.60001  -1.39559  -1.19471  -1.08874  -1.07350
 Alpha  occ. eigenvalues --   -1.04868  -1.02309  -0.95718  -0.94704  -0.86268
 Alpha  occ. eigenvalues --   -0.85708  -0.82547  -0.78422  -0.77600  -0.77093
 Alpha  occ. eigenvalues --   -0.72184  -0.71316  -0.70579  -0.65126  -0.64870
 Alpha  occ. eigenvalues --   -0.64002  -0.62214  -0.59727  -0.58199  -0.56304
 Alpha  occ. eigenvalues --   -0.55372  -0.54024  -0.53199  -0.52959  -0.51424
 Alpha  occ. eigenvalues --   -0.51140  -0.48932  -0.48911  -0.48604  -0.46689
 Alpha  occ. eigenvalues --   -0.45509  -0.44972  -0.44617  -0.44546  -0.42479
 Alpha  occ. eigenvalues --   -0.37451  -0.36469
 Alpha virt. eigenvalues --    0.04927   0.11186   0.16429   0.21325   0.23834
 Alpha virt. eigenvalues --    0.25594   0.27241   0.27651   0.28205   0.28482
 Alpha virt. eigenvalues --    0.29381   0.30893   0.32422   0.32563   0.32704

 Mulliken charges:
               1
     1  C   -0.170595
     2  C   -0.218555
     3  C   -0.170833
     4  C    0.158586
     5  C   -0.170789
     6  C   -0.218581
     7  H    0.226012
     8  H    0.223836
     9  H    0.275761
    10  H    0.275959
    11  H    0.223870
    12  N    0.488575
    13  O   -0.457699
    14  O   -0.459029
    15  C   -0.296968
    16  C   -0.298694
    17  C   -0.475038
    18  H    0.147790
    19  H    0.147599
    20  H    0.150889
    21  H    0.150708
    22  H    0.154064
    23  H    0.154205
    24  H    0.157911
    25  C   -0.296569
    26  C   -0.302207
    27  C   -0.471486
    28  H    0.147534
    29  H    0.147635
    30  H    0.145881
    31  H    0.147509
    32  H    0.153957
    33  H    0.149342
    34  H    0.179422
 Sum of Mulliken charges =  -0.00000

 Dipole moment (field-independent basis, Debye):
    X=             -5.5620    Y=              0.0223    Z=             -1.1917  Tot=              5.6882
 Quadrupole moment (field-independent basis, Debye-Ang):
   XX=            -61.2954   YY=            -89.8716   ZZ=            -94.8770
   XY=              0.1021   XZ=              4.8030   YZ=              0.7982

 Normal termination of Gaussian 16 at Thu May  6 04:45:56 2021.
