 Gaussian 16, Revision A.03,
 Gaussian 16:  EM64L-G16RevA.03 25-Dec-2016

 -------------
 #p 6-31g* mp2
 -------------

 ------------------------------------------------------
 Input file generated by CHIRIPA (05-May-2021 14:57:27)
 ------------------------------------------------------
 Symbolic Z-matrix:
 Charge =  0 Multiplicity = 1

                         Standard orientation:
 ---------------------------------------------------------------------
 Center     Atomic      Atomic             Coordinates (Angstroms)
 Number     Number       Type             X           Y           Z
 ---------------------------------------------------------------------
      1          6           0        3.240701   -2.374864    0.413605
      2          6           0        2.909209   -1.868494   -0.847435
      3          6           0        2.770525   -0.491526   -1.045608
      4          6           0        2.971375    0.354119    0.044270
      5          6           0        3.302459   -0.119854    1.312743
      6          6           0        3.435924   -1.500469    1.487776
      7          1           0        3.346407   -3.445942    0.558563
      8          1           0        2.757009   -2.545199   -1.683468
      9          1           0        2.514610   -0.072567   -2.011217
     10          1           0        3.447996    0.579607    2.126986
     11          1           0        3.693440   -1.890898    2.468233
     12          7           0        2.827319    1.813784   -0.153278
     13          8           0        3.009489    2.537786    0.823079
     14          8           0        2.534966    2.206229   -1.280733
     15          6           0       -5.289708    0.251366    0.906843
     16          6           0       -5.139013    0.078545   -0.472992
     17          6           0       -3.872429   -0.124358   -1.028998
     18          6           0       -2.773285   -0.148826   -0.171926
     19          6           0       -2.890972    0.020221    1.206792
     20          6           0       -4.167187    0.221705    1.740861
     21          1           0       -6.277362    0.408435    1.330241
     22          1           0       -6.008998    0.101109   -1.123116
     23          1           0       -3.727129   -0.260921   -2.093732
     24          1           0       -2.004966   -0.007227    1.829412
     25          1           0       -4.281217    0.355630    2.812824
     26          7           0       -1.427311   -0.362880   -0.748933
     27          8           0       -0.474804   -0.380253    0.027640
     28          8           0       -1.350331   -0.509228   -1.966839
 ---------------------------------------------------------------------

 SCF Done:  E(RHF) =  -868.338460655     A.U. after   16 cycles
 E2 =    -0.2600259678D+01 EUMP2 =    -0.87093872033288D+03

 The electronic state is 1-A.
 Alpha  occ. eigenvalues --  -20.60980 -20.60974 -20.59511 -20.59480 -15.86010
 Alpha  occ. eigenvalues --  -15.84542 -11.31262 -11.29624 -11.27822 -11.27818
 Alpha  occ. eigenvalues --  -11.27553 -11.26818 -11.26808 -11.26350 -11.26172
 Alpha  occ. eigenvalues --  -11.26092 -11.25361 -11.25196  -1.60043  -1.58570
 Alpha  occ. eigenvalues --   -1.39602  -1.38135  -1.19427  -1.17832  -1.08847
 Alpha  occ. eigenvalues --   -1.07315  -1.04816  -1.03244  -0.95702  -0.94188
 Alpha  occ. eigenvalues --   -0.86220  -0.84687  -0.82539  -0.81051  -0.77597
 Alpha  occ. eigenvalues --   -0.76094  -0.72260  -0.71344  -0.70796  -0.70541
 Alpha  occ. eigenvalues --   -0.69849  -0.69070  -0.65087  -0.64824  -0.63552
 Alpha  occ. eigenvalues --   -0.63332  -0.62166  -0.60638  -0.55332  -0.53867
 Alpha  occ. eigenvalues --   -0.53147  -0.52913  -0.51608  -0.51406  -0.49005
 Alpha  occ. eigenvalues --   -0.48898  -0.47550  -0.47522  -0.45035  -0.43607
 Alpha  occ. eigenvalues --   -0.37404  -0.36412  -0.35805  -0.34746
 Alpha virt. eigenvalues --    0.04927   0.06475   0.11245   0.12860   0.16446
 Alpha virt. eigenvalues --    0.17974   0.21379   0.22689   0.27290   0.28266
 Alpha virt. eigenvalues --    0.28595   0.29581   0.30940   0.32150   0.32482

 Mulliken charges:
               1
     1  C   -0.170020
     2  C   -0.215590
     3  C   -0.149125
     4  C    0.166606
     5  C   -0.171596
     6  C   -0.219543
     7  H    0.218773
     8  H    0.219867
     9  H    0.276558
    10  H    0.268707
    11  H    0.215395
    12  N    0.488068
    13  O   -0.468810
    14  O   -0.461378
    15  C   -0.170315
    16  C   -0.218544
    17  C   -0.170256
    18  C    0.158637
    19  C   -0.169955
    20  C   -0.218435
    21  H    0.226040
    22  H    0.223794
    23  H    0.275570
    24  H    0.275627
    25  H    0.223854
    26  N    0.490684
    27  O   -0.462435
    28  O   -0.462177
 Sum of Mulliken charges =  -0.00000

 Dipole moment (field-independent basis, Debye):
    X=             -4.5870    Y=             -4.3781    Z=              2.5246  Tot=              6.8251
 Quadrupole moment (field-independent basis, Debye-Ang):
   XX=            -76.6673   YY=           -110.7606   ZZ=            -96.9462
   XY=            -16.3435   XZ=             -0.2106   YZ=              0.8600

 Normal termination of Gaussian 16 at Thu May  6 19:48:20 2021.
