 Gaussian 16, Revision A.03,
 Gaussian 16:  EM64L-G16RevA.03 25-Dec-2016

 -------------
 #p 6-31g* mp2
 -------------

 ------------------------------------------------------
 Input file generated by CHIRIPA (05-May-2021 14:57:25)
 ------------------------------------------------------
 Symbolic Z-matrix:
 Charge =  0 Multiplicity = 1

                         Standard orientation:
 ---------------------------------------------------------------------
 Center     Atomic      Atomic             Coordinates (Angstroms)
 Number     Number       Type             X           Y           Z
 ---------------------------------------------------------------------
      1          6           0       -4.502641    1.673756    0.206390
      2          6           0       -3.943869    1.323781   -1.027227
      3          6           0       -3.075038    0.233254   -1.129362
      4          6           0       -2.785441   -0.488541    0.027546
      5          6           0       -3.326207   -0.164743    1.270935
      6          6           0       -4.192574    0.929689    1.349519
      7          1           0       -5.176613    2.522421    0.276583
      8          1           0       -4.182883    1.899826   -1.916659
      9          1           0       -2.628378   -0.059649   -2.071764
     10          1           0       -3.069106   -0.758015    2.140042
     11          1           0       -4.625048    1.199182    2.308885
     12          7           0       -1.866953   -1.645100   -0.068113
     13          8           0       -1.627724   -2.264926    0.965919
     14          8           0       -1.403663   -1.909885   -1.175312
     15          6           0        2.749435    2.814032   -0.038708
     16          6           0        1.764471    2.039876   -0.660840
     17          6           0        1.858022    0.644985   -0.669543
     18          6           0        2.954934    0.054678   -0.043757
     19          6           0        3.952477    0.798673    0.584471
     20          6           0        3.838376    2.192056    0.580870
     21          1           0        2.668782    3.897031   -0.036726
     22          1           0        0.917678    2.520194   -1.142797
     23          1           0        1.109787    0.021559   -1.143781
     24          1           0        4.784931    0.291233    1.056640
     25          1           0        4.604810    2.790748    1.064801
     26          7           0        3.064851   -1.421232   -0.046457
     27          8           0        4.041085   -1.917119    0.511844
     28          8           0        2.172687   -2.054218   -0.606824
 ---------------------------------------------------------------------

 SCF Done:  E(RHF) =  -868.336031265     A.U. after   16 cycles
 E2 =    -0.2600945502D+01 EUMP2 =    -0.87093697676775D+03

 The electronic state is 1-A.
 Alpha  occ. eigenvalues --  -20.60713 -20.60702 -20.59865 -20.59762 -15.85750
 Alpha  occ. eigenvalues --  -15.84873 -11.31380 -11.30592 -11.27997 -11.27934
 Alpha  occ. eigenvalues --  -11.27737 -11.27232 -11.27152 -11.27070 -11.27053
 Alpha  occ. eigenvalues --  -11.27002 -11.26339 -11.26326  -1.59757  -1.58896
 Alpha  occ. eigenvalues --   -1.39311  -1.38431  -1.19569  -1.18814  -1.08909
 Alpha  occ. eigenvalues --   -1.08154  -1.05005  -1.04271  -0.95697  -0.94920
 Alpha  occ. eigenvalues --   -0.86388  -0.85651  -0.82524  -0.81744  -0.77541
 Alpha  occ. eigenvalues --   -0.76719  -0.71942  -0.71182  -0.71000  -0.70660
 Alpha  occ. eigenvalues --   -0.70233  -0.69918  -0.65208  -0.64996  -0.64457
 Alpha  occ. eigenvalues --   -0.64287  -0.62344  -0.61599  -0.55480  -0.54783
 Alpha  occ. eigenvalues --   -0.53329  -0.53090  -0.52588  -0.52369  -0.48709
 Alpha  occ. eigenvalues --   -0.48696  -0.47893  -0.47804  -0.44635  -0.43755
 Alpha  occ. eigenvalues --   -0.37563  -0.36832  -0.36629  -0.35895
 Alpha virt. eigenvalues --    0.04966   0.05811   0.11004   0.11750   0.16391
 Alpha virt. eigenvalues --    0.17227   0.21117   0.21841   0.26954   0.27510
 Alpha virt. eigenvalues --    0.28114   0.28783   0.30621   0.31394   0.32195

 Mulliken charges:
               1
     1  C   -0.171918
     2  C   -0.219306
     3  C   -0.176652
     4  C    0.158292
     5  C   -0.170827
     6  C   -0.218373
     7  H    0.225452
     8  H    0.222580
     9  H    0.274447
    10  H    0.277711
    11  H    0.224222
    12  N    0.486620
    13  O   -0.452562
    14  O   -0.455769
    15  C   -0.171848
    16  C   -0.219091
    17  C   -0.177634
    18  C    0.158825
    19  C   -0.171139
    20  C   -0.218974
    21  H    0.221820
    22  H    0.218158
    23  H    0.284823
    24  H    0.274978
    25  H    0.221080
    26  N    0.486214
    27  O   -0.465869
    28  O   -0.445262
 Sum of Mulliken charges =  -0.00000

 Dipole moment (field-independent basis, Debye):
    X=             -3.7734    Y=              8.9058    Z=              0.3799  Tot=              9.6797
 Quadrupole moment (field-independent basis, Debye-Ang):
   XX=            -86.9886   YY=           -109.4305   ZZ=            -99.3010
   XY=              5.7290   XZ=              0.6178   YZ=             -0.8887

 Normal termination of Gaussian 16 at Thu May  6 05:08:32 2021.
