 Gaussian 16, Revision A.03,
 Gaussian 16:  EM64L-G16RevA.03 25-Dec-2016

 -------------
 #p 6-31g* mp2
 -------------

 ------------------------------------------------------
 Input file generated by CHIRIPA (05-May-2021 14:57:21)
 ------------------------------------------------------
 Symbolic Z-matrix:
 Charge =  0 Multiplicity = 1

                         Standard orientation:
 ---------------------------------------------------------------------
 Center     Atomic      Atomic             Coordinates (Angstroms)
 Number     Number       Type             X           Y           Z
 ---------------------------------------------------------------------
      1          6           0       -4.687862    1.339790   -0.606855
      2          6           0       -4.023099    1.740933    0.556629
      3          6           0       -3.031181    0.933893    1.121724
      4          6           0       -2.727916   -0.273420    0.494257
      5          6           0       -3.372394   -0.700655   -0.665660
      6          6           0       -4.360964    0.122423   -1.213217
      7          1           0       -5.457108    1.972948   -1.039023
      8          1           0       -4.274898    2.685840    1.029696
      9          1           0       -2.500802    1.220120    2.021830
     10          1           0       -3.099529   -1.648025   -1.114496
     11          1           0       -4.875578   -0.191660   -2.116860
     12          7           0       -1.679588   -1.136287    1.083216
     13          8           0       -1.430867   -2.195340    0.511217
     14          8           0       -1.126481   -0.737210    2.105687
     15          6           0        5.049671    0.834245    0.722433
     16          6           0        4.130075    1.801127    0.302903
     17          6           0        2.936154    1.423099   -0.318542
     18          6           0        2.692937    0.063242   -0.505431
     19          6           0        3.589334   -0.923790   -0.098579
     20          6           0        4.776847   -0.522735    0.520709
     21          1           0        5.974649    1.136851    1.204348
     22          1           0        4.339309    2.855702    0.458262
     23          1           0        2.206745    2.150709   -0.653153
     24          1           0        3.352882   -1.967380   -0.267183
     25          1           0        5.489184   -1.275820    0.845491
     26          7           0        1.432378   -0.349148   -1.162185
     27          8           0        1.241641   -1.553652   -1.315238
     28          8           0        0.658959    0.539934   -1.511461
 ---------------------------------------------------------------------

 SCF Done:  E(RHF) =  -868.337724456     A.U. after   16 cycles
 E2 =    -0.2600510152D+01 EUMP2 =    -0.87093823460776D+03

 The electronic state is 1-A.
 Alpha  occ. eigenvalues --  -20.60236 -20.60093 -20.59809 -20.59655 -15.85191
 Alpha  occ. eigenvalues --  -15.84762 -11.30575 -11.30133 -11.27199 -11.27118
 Alpha  occ. eigenvalues --  -11.26944 -11.26789 -11.26672 -11.26549 -11.26227
 Alpha  occ. eigenvalues --  -11.26172 -11.25832 -11.25752  -1.59233  -1.58798
 Alpha  occ. eigenvalues --   -1.38782  -1.38348  -1.18758  -1.18323  -1.08160
 Alpha  occ. eigenvalues --   -1.07736  -1.04176  -1.03753  -0.94993  -0.94570
 Alpha  occ. eigenvalues --   -0.85577  -0.85159  -0.81832  -0.81414  -0.76867
 Alpha  occ. eigenvalues --   -0.76445  -0.71439  -0.71005  -0.70735  -0.69897
 Alpha  occ. eigenvalues --   -0.69884  -0.69490  -0.64426  -0.64201  -0.64007
 Alpha  occ. eigenvalues --   -0.63799  -0.61531  -0.61116  -0.54705  -0.54307
 Alpha  occ. eigenvalues --   -0.52489  -0.52285  -0.52049  -0.51878  -0.48217
 Alpha  occ. eigenvalues --   -0.48185  -0.47780  -0.47753  -0.44340  -0.43552
 Alpha  occ. eigenvalues --   -0.36741  -0.36299  -0.35771  -0.35337
 Alpha virt. eigenvalues --    0.05681   0.06131   0.11883   0.12316   0.17108
 Alpha virt. eigenvalues --    0.17637   0.21939   0.22291   0.27835   0.28180
 Alpha virt. eigenvalues --    0.28848   0.29211   0.31453   0.31791   0.33108

 Mulliken charges:
               1
     1  C   -0.170740
     2  C   -0.218836
     3  C   -0.170722
     4  C    0.165367
     5  C   -0.162565
     6  C   -0.218423
     7  H    0.221574
     8  H    0.218367
     9  H    0.270697
    10  H    0.278657
    11  H    0.221026
    12  N    0.486428
    13  O   -0.449016
    14  O   -0.472223
    15  C   -0.170713
    16  C   -0.218522
    17  C   -0.170453
    18  C    0.161825
    19  C   -0.167260
    20  C   -0.218453
    21  H    0.223535
    22  H    0.220451
    23  H    0.272164
    24  H    0.278404
    25  H    0.222604
    26  N    0.486911
    27  O   -0.448128
    28  O   -0.471952
 Sum of Mulliken charges =  -0.00000

 Dipole moment (field-independent basis, Debye):
    X=              0.8534    Y=              4.1164    Z=              0.0864  Tot=              4.2048
 Quadrupole moment (field-independent basis, Debye-Ang):
   XX=            -62.5933   YY=            -99.7755   ZZ=           -108.1776
   XY=             -4.0530   XZ=              9.2381   YZ=              4.0433

 Normal termination of Gaussian 16 at Thu May  6 16:07:43 2021.
