 Gaussian 16, Revision A.03,
 Gaussian 16:  EM64L-G16RevA.03 25-Dec-2016

 -------------
 #p 6-31g* mp2
 -------------

 ------------------------------------------------------
 Input file generated by CHIRIPA (05-May-2021 14:51:11)
 ------------------------------------------------------
 Symbolic Z-matrix:
 Charge =  0 Multiplicity = 1

                         Standard orientation:
 ---------------------------------------------------------------------
 Center     Atomic      Atomic             Coordinates (Angstroms)
 Number     Number       Type             X           Y           Z
 ---------------------------------------------------------------------
      1          6           0       -3.810059   -0.237894   -0.250566
      2          6           0       -5.310906   -0.460173   -0.440397
      3          6           0       -5.662819   -1.924348   -0.705240
      4          1           0       -3.277867   -0.588309   -1.145510
      5          1           0       -3.457525   -0.857708    0.585463
      6          1           0       -5.660771    0.160924   -1.274933
      7          1           0       -5.839603   -0.109012    0.455025
      8          1           0       -5.341339   -2.554976    0.129961
      9          1           0       -5.161491   -2.283507   -1.609826
     10          1           0       -6.740647   -2.060532   -0.837908
     11          6           0       -3.442511    1.220901    0.015053
     12          6           0       -1.941665    1.443181    0.204885
     13          6           0       -1.589751    2.907356    0.469728
     14          1           0       -3.795046    1.840716   -0.820975
     15          1           0       -3.974703    1.571316    0.909998
     16          1           0       -1.412967    1.092019   -0.690537
     17          1           0       -1.591800    0.822084    1.039421
     18          1           0       -2.091080    3.266515    1.374314
     19          1           0       -1.911231    3.537984   -0.365473
     20          1           0       -0.511923    3.043539    0.602396
     21          6           0        4.379434   -0.605085    0.060318
     22          6           0        5.096415    0.478818   -0.745334
     23          6           0        6.602536    0.237666   -0.851365
     24          1           0        4.816181   -0.653891    1.067202
     25          1           0        4.563220   -1.582060   -0.407802
     26          1           0        4.910190    1.453624   -0.276624
     27          1           0        4.657782    0.525180   -1.750356
     28          1           0        6.805753   -0.721271   -1.338955
     29          1           0        7.059596    0.212447    0.143149
     30          1           0        7.095217    1.024291   -1.431318
     31          6           0        2.873137   -0.377923    0.175194
     32          6           0        2.156155   -1.461826    0.980846
     33          6           0        0.650035   -1.220673    1.086877
     34          1           0        2.689350    0.599053    0.643314
     35          1           0        2.436390   -0.329116   -0.831690
     36          1           0        2.594789   -1.508189    1.985868
     37          1           0        2.342380   -2.436632    0.512136
     38          1           0        0.192975   -1.195455    0.092363
     39          1           0        0.446817   -0.261737    1.574467
     40          1           0        0.157353   -2.007299    1.666830
 ---------------------------------------------------------------------

 SCF Done:  E(RHF) =  -470.732644277     A.U. after   11 cycles
 E2 =    -0.1583050845D+01 EUMP2 =    -0.47231569512265D+03

 The electronic state is 1-A.
 Alpha  occ. eigenvalues --  -11.21600 -11.21572 -11.21563 -11.21453 -11.21400
 Alpha  occ. eigenvalues --  -11.21341 -11.21341 -11.21277 -11.21070 -11.21043
 Alpha  occ. eigenvalues --  -11.21019 -11.21000  -1.08425  -1.08362  -1.03539
 Alpha  occ. eigenvalues --   -1.03448  -0.95978  -0.95917  -0.87021  -0.86913
 Alpha  occ. eigenvalues --   -0.79719  -0.79419  -0.78288  -0.78105  -0.65070
 Alpha  occ. eigenvalues --   -0.64985  -0.60986  -0.60808  -0.59378  -0.59273
 Alpha  occ. eigenvalues --   -0.57674  -0.57440  -0.55290  -0.55181  -0.52693
 Alpha  occ. eigenvalues --   -0.52623  -0.52460  -0.52283  -0.49983  -0.49807
 Alpha  occ. eigenvalues --   -0.48182  -0.47596  -0.46736  -0.46434  -0.45918
 Alpha  occ. eigenvalues --   -0.45737  -0.45611  -0.45424  -0.43771  -0.43720
 Alpha virt. eigenvalues --    0.21996   0.23036   0.23682   0.24762   0.25680
 Alpha virt. eigenvalues --    0.26095   0.26864   0.27486   0.28060   0.29350
 Alpha virt. eigenvalues --    0.30267   0.31394   0.31622   0.31893   0.32107

 Mulliken charges:
               1
     1  C   -0.298444
     2  C   -0.299544
     3  C   -0.475627
     4  H    0.148957
     5  H    0.150317
     6  H    0.151784
     7  H    0.151847
     8  H    0.155174
     9  H    0.155002
    10  H    0.160087
    11  C   -0.297956
    12  C   -0.303574
    13  C   -0.476205
    14  H    0.148828
    15  H    0.149083
    16  H    0.151552
    17  H    0.159447
    18  H    0.154632
    19  H    0.154966
    20  H    0.159575
    21  C   -0.298234
    22  C   -0.299624
    23  C   -0.475700
    24  H    0.149643
    25  H    0.149538
    26  H    0.151885
    27  H    0.151881
    28  H    0.155175
    29  H    0.155183
    30  H    0.160245
    31  C   -0.297967
    32  C   -0.300288
    33  C   -0.477465
    34  H    0.149141
    35  H    0.149418
    36  H    0.151537
    37  H    0.151651
    38  H    0.157897
    39  H    0.157108
    40  H    0.159076
 Sum of Mulliken charges =  -0.00000

 Dipole moment (field-independent basis, Debye):
    X=              0.0083    Y=             -0.0152    Z=              0.0111  Tot=              0.0206
 Quadrupole moment (field-independent basis, Debye-Ang):
   XX=            -86.3354   YY=            -85.6346   ZZ=            -83.0830
   XY=             -0.2248   XZ=              0.0670   YZ=              0.1191

 Normal termination of Gaussian 16 at Thu May  6 00:41:16 2021.
