 Gaussian 16, Revision A.03,
 Gaussian 16:  EM64L-G16RevA.03 25-Dec-2016

 -------------
 #p 6-31g* mp2
 -------------

 ------------------------------------------------------
 Input file generated by CHIRIPA (05-May-2021 14:55:22)
 ------------------------------------------------------
 Symbolic Z-matrix:
 Charge =  0 Multiplicity = 1

                         Standard orientation:
 ---------------------------------------------------------------------
 Center     Atomic      Atomic             Coordinates (Angstroms)
 Number     Number       Type             X           Y           Z
 ---------------------------------------------------------------------
      1          6           0        4.376700    0.824815   -1.482757
      2          6           0        3.010714    1.060314   -1.670227
      3          6           0        2.069628    0.520920   -0.788207
      4          6           0        2.531686   -0.252750    0.275385
      5          6           0        3.885911   -0.505356    0.488816
      6          6           0        4.809176    0.044108   -0.405733
      7          1           0        5.100837    1.247741   -2.172798
      8          1           0        2.671965    1.666236   -2.505782
      9          1           0        1.006181    0.687376   -0.909823
     10          1           0        4.193216   -1.113431    1.330972
     11          1           0        5.869395   -0.140446   -0.257677
     12          7           0        1.544833   -0.829113    1.215772
     13          8           0        1.977553   -1.507287    2.145003
     14          8           0        0.357304   -0.591779    1.005810
     15          6           0       -3.416004   -0.550709   -0.028034
     16          6           0       -3.874572   -1.386310   -1.223638
     17          6           0       -3.803342   -2.890011   -0.956047
     18          1           0       -2.385931   -0.829784    0.232753
     19          1           0       -4.037274   -0.798784    0.843675
     20          1           0       -3.253522   -1.135726   -2.093190
     21          1           0       -4.903606   -1.105077   -1.481730
     22          1           0       -4.437010   -3.160323   -0.105166
     23          1           0       -2.777551   -3.191146   -0.720101
     24          1           0       -4.135629   -3.468382   -1.823764
     25          6           0       -3.481482    0.954569   -0.280184
     26          6           0       -3.022916    1.790172    0.915420
     27          6           0       -3.094145    3.293872    0.647829
     28          1           0       -2.860213    1.202644   -1.151893
     29          1           0       -4.511556    1.233645   -0.540972
     30          1           0       -1.993881    1.508939    1.173512
     31          1           0       -3.643965    1.539587    1.784972
     32          1           0       -4.119937    3.595007    0.411882
     33          1           0       -2.460477    3.564184   -0.203051
     34          1           0       -2.761859    3.872244    1.515546
 ---------------------------------------------------------------------

 SCF Done:  E(RHF) =  -669.536321532     A.U. after   15 cycles
 E2 =    -0.2091526208D+01 EUMP2 =    -0.67162784773958D+03

 The electronic state is 1-A.
 Alpha  occ. eigenvalues --  -20.61050 -20.61025 -15.86075 -11.31354 -11.27917
 Alpha  occ. eigenvalues --  -11.27909 -11.27643 -11.26912 -11.26903 -11.20832
 Alpha  occ. eigenvalues --  -11.20729 -11.20619 -11.20546 -11.20316 -11.20231
 Alpha  occ. eigenvalues --   -1.60097  -1.39656  -1.19519  -1.08930  -1.07568
 Alpha  occ. eigenvalues --   -1.04911  -1.02769  -0.95780  -0.95228  -0.86313
 Alpha  occ. eigenvalues --   -0.86247  -0.82619  -0.78814  -0.77698  -0.77324
 Alpha  occ. eigenvalues --   -0.72303  -0.71406  -0.70629  -0.65183  -0.64913
 Alpha  occ. eigenvalues --   -0.64185  -0.62259  -0.60176  -0.58597  -0.56829
 Alpha  occ. eigenvalues --   -0.55415  -0.54524  -0.53243  -0.53002  -0.51959
 Alpha  occ. eigenvalues --   -0.51650  -0.49188  -0.49057  -0.49033  -0.47145
 Alpha  occ. eigenvalues --   -0.45867  -0.45037  -0.44935  -0.44719  -0.42986
 Alpha  occ. eigenvalues --   -0.37495  -0.36510
 Alpha virt. eigenvalues --    0.04828   0.11145   0.16317   0.20860   0.23189
 Alpha virt. eigenvalues --    0.24962   0.26626   0.27407   0.28112   0.28492
 Alpha virt. eigenvalues --    0.29147   0.31117   0.31920   0.32375   0.32623

 Mulliken charges:
               1
     1  C   -0.170467
     2  C   -0.218473
     3  C   -0.170598
     4  C    0.157400
     5  C   -0.170562
     6  C   -0.218553
     7  H    0.226297
     8  H    0.224195
     9  H    0.275351
    10  H    0.276000
    11  H    0.224062
    12  N    0.496851
    13  O   -0.457720
    14  O   -0.469550
    15  C   -0.311163
    16  C   -0.297795
    17  C   -0.475617
    18  H    0.178564
    19  H    0.147656
    20  H    0.146012
    21  H    0.147880
    22  H    0.155043
    23  H    0.159454
    24  H    0.155580
    25  C   -0.294773
    26  C   -0.305729
    27  C   -0.474473
    28  H    0.140224
    29  H    0.145400
    30  H    0.167347
    31  H    0.151756
    32  H    0.153093
    33  H    0.148418
    34  H    0.158891
 Sum of Mulliken charges =  -0.00000

 Dipole moment (field-independent basis, Debye):
    X=              3.7990    Y=              1.9040    Z=             -3.1413  Tot=              5.2844
 Quadrupole moment (field-independent basis, Debye-Ang):
   XX=            -74.4978   YY=            -97.4064   ZZ=            -95.7498
   XY=              2.7880   XZ=             -6.2714   YZ=             -0.0764

 Normal termination of Gaussian 16 at Thu May  6 15:54:28 2021.
