 Gaussian 16, Revision A.03,
 Gaussian 16:  EM64L-G16RevA.03 25-Dec-2016

 -------------
 #p 6-31g* mp2
 -------------

 ------------------------------------------------------
 Input file generated by CHIRIPA (05-May-2021 14:51:09)
 ------------------------------------------------------
 Symbolic Z-matrix:
 Charge =  0 Multiplicity = 1

                         Standard orientation:
 ---------------------------------------------------------------------
 Center     Atomic      Atomic             Coordinates (Angstroms)
 Number     Number       Type             X           Y           Z
 ---------------------------------------------------------------------
      1          6           0       -4.136274   -0.463346   -0.195291
      2          6           0       -5.640629   -0.729603   -0.258581
      3          6           0       -5.976634   -2.221066   -0.279392
      4          1           0       -3.649668   -0.938281   -1.058191
      5          1           0       -3.722976   -0.945804    0.701267
      6          1           0       -6.051203   -0.245621   -1.154018
      7          1           0       -6.123735   -0.253817    0.604467
      8          1           0       -5.594154   -2.714708    0.619845
      9          1           0       -5.521210   -2.706465   -1.148632
     10          1           0       -7.057260   -2.388550   -0.324745
     11          6           0       -3.784507    1.023102   -0.173853
     12          6           0       -2.280151    1.289358   -0.110563
     13          6           0       -1.944147    2.780821   -0.089752
     14          1           0       -4.197804    1.505559   -1.070411
     15          1           0       -4.271112    1.498036    0.689047
     16          1           0       -1.797046    0.813573   -0.973611
     17          1           0       -1.869577    0.805377    0.784874
     18          1           0       -2.399570    3.266221    0.779488
     19          1           0       -2.326626    3.274463   -0.988989
     20          1           0       -0.863521    2.948305   -0.044399
     21          6           0        4.693713   -0.474100    0.273719
     22          6           0        5.569317   -0.102232   -0.923368
     23          6           0        7.033702   -0.497180   -0.730020
     24          1           0        5.090285    0.012648    1.175246
     25          1           0        4.762570   -1.556951    0.447178
     26          1           0        5.497743    0.979390   -1.095374
     27          1           0        5.170501   -0.589769   -1.822184
     28          1           0        7.124744   -1.577935   -0.580757
     29          1           0        7.453844    0.000139    0.150182
     30          1           0        7.641608   -0.222117   -1.597575
     31          6           0        3.227068   -0.085655    0.095425
     32          6           0        2.351464   -0.457523    1.292512
     33          6           0        0.887077   -0.062576    1.099164
     34          1           0        3.158211    0.997196   -0.078034
     35          1           0        2.830495   -0.572403   -0.806102
     36          1           0        2.750279    0.030013    2.191328
     37          1           0        2.423036   -1.539146    1.464518
     38          1           0        0.466936   -0.559895    0.218961
     39          1           0        0.796037    1.018180    0.949902
     40          1           0        0.279172   -0.337638    1.966719
 ---------------------------------------------------------------------

 SCF Done:  E(RHF) =  -470.732600394     A.U. after   11 cycles
 E2 =    -0.1583180228D+01 EUMP2 =    -0.47231578062232D+03

 The electronic state is 1-A.
 Alpha  occ. eigenvalues --  -11.21600 -11.21567 -11.21563 -11.21425 -11.21401
 Alpha  occ. eigenvalues --  -11.21342 -11.21338 -11.21265 -11.21070 -11.21046
 Alpha  occ. eigenvalues --  -11.21029 -11.21005  -1.08428  -1.08353  -1.03555
 Alpha  occ. eigenvalues --   -1.03427  -0.96014  -0.95883  -0.87015  -0.86924
 Alpha  occ. eigenvalues --   -0.79737  -0.79396  -0.78279  -0.78102  -0.65057
 Alpha  occ. eigenvalues --   -0.64988  -0.60948  -0.60840  -0.59354  -0.59305
 Alpha  occ. eigenvalues --   -0.57723  -0.57400  -0.55284  -0.55185  -0.52721
 Alpha  occ. eigenvalues --   -0.52630  -0.52380  -0.52308  -0.49915  -0.49853
 Alpha  occ. eigenvalues --   -0.48023  -0.47711  -0.46640  -0.46521  -0.45875
 Alpha  occ. eigenvalues --   -0.45715  -0.45633  -0.45554  -0.43771  -0.43680
 Alpha virt. eigenvalues --    0.21888   0.23042   0.23491   0.24887   0.26131
 Alpha virt. eigenvalues --    0.26353   0.26546   0.27389   0.27796   0.29226
 Alpha virt. eigenvalues --    0.30411   0.30479   0.31305   0.32052   0.32514

 Mulliken charges:
               1
     1  C   -0.298071
     2  C   -0.299520
     3  C   -0.475643
     4  H    0.149151
     5  H    0.149320
     6  H    0.151854
     7  H    0.151840
     8  H    0.155068
     9  H    0.155020
    10  H    0.160115
    11  C   -0.297946
    12  C   -0.302979
    13  C   -0.477699
    14  H    0.148752
    15  H    0.148999
    16  H    0.151245
    17  H    0.160842
    18  H    0.154702
    19  H    0.154821
    20  H    0.160472
    21  C   -0.298245
    22  C   -0.299613
    23  C   -0.475699
    24  H    0.149645
    25  H    0.149540
    26  H    0.151906
    27  H    0.151892
    28  H    0.155177
    29  H    0.155181
    30  H    0.160241
    31  C   -0.298262
    32  C   -0.301207
    33  C   -0.477113
    34  H    0.149178
    35  H    0.149512
    36  H    0.151537
    37  H    0.151664
    38  H    0.157746
    39  H    0.157998
    40  H    0.158578
 Sum of Mulliken charges =  -0.00000

 Dipole moment (field-independent basis, Debye):
    X=              0.0162    Y=             -0.0099    Z=              0.0107  Tot=              0.0217
 Quadrupole moment (field-independent basis, Debye-Ang):
   XX=            -86.3826   YY=            -85.1676   ZZ=            -83.5728
   XY=              0.0401   XZ=             -0.0254   YZ=              0.3956

 Normal termination of Gaussian 16 at Thu May  6 03:44:42 2021.
