 Gaussian 16, Revision A.03,
 Gaussian 16:  EM64L-G16RevA.03 25-Dec-2016

 -------------
 #p 6-31g* mp2
 -------------

 ------------------------------------------------------
 Input file generated by CHIRIPA (05-May-2021 14:57:21)
 ------------------------------------------------------
 Symbolic Z-matrix:
 Charge =  0 Multiplicity = 1

                         Standard orientation:
 ---------------------------------------------------------------------
 Center     Atomic      Atomic             Coordinates (Angstroms)
 Number     Number       Type             X           Y           Z
 ---------------------------------------------------------------------
      1          6           0       -6.172990   -0.781017   -0.004949
      2          6           0       -5.224163   -1.548003   -0.689040
      3          6           0       -3.887028   -1.143036   -0.740242
      4          6           0       -3.531964    0.039631   -0.093313
      5          6           0       -4.453984    0.825469    0.596346
      6          6           0       -5.785555    0.401187    0.634433
      7          1           0       -7.209547   -1.103107    0.029732
      8          1           0       -5.522187   -2.466563   -1.186508
      9          1           0       -3.131901   -1.717690   -1.262711
     10          1           0       -4.126739    1.736449    1.082601
     11          1           0       -6.520270    0.998843    1.166455
     12          7           0       -2.119344    0.478576   -0.140576
     13          8           0       -1.831994    1.524463    0.437513
     14          8           0       -1.326231   -0.231578   -0.754815
     15          6           0        2.778946    2.341450   -0.167026
     16          6           0        2.154317    1.399945    0.657552
     17          6           0        2.691654    0.117725    0.804961
     18          6           0        3.860087   -0.190489    0.109938
     19          6           0        4.505728    0.725633   -0.719012
     20          6           0        3.950592    2.001888   -0.851469
     21          1           0        2.354616    3.335193   -0.275729
     22          1           0        1.244300    1.660869    1.190312
     23          1           0        2.228654   -0.630502    1.436789
     24          1           0        5.411813    0.436195   -1.237331
     25          1           0        4.437843    2.731046   -1.492532
     26          7           0        4.438364   -1.544759    0.258079
     27          8           0        5.468655   -1.791529   -0.365011
     28          8           0        3.850375   -2.333825    0.994478
 ---------------------------------------------------------------------

 SCF Done:  E(RHF) =  -868.340187139     A.U. after   16 cycles
 E2 =    -0.2598571949D+01 EUMP2 =    -0.87093875908841D+03

 The electronic state is 1-A.
 Alpha  occ. eigenvalues --  -20.61597 -20.61562 -20.59770 -20.59761 -15.86593
 Alpha  occ. eigenvalues --  -15.84808 -11.31701 -11.29911 -11.28256 -11.28214
 Alpha  occ. eigenvalues --  -11.27933 -11.27204 -11.27173 -11.26488 -11.26344
 Alpha  occ. eigenvalues --  -11.26089 -11.25498 -11.25190  -1.60641  -1.58847
 Alpha  occ. eigenvalues --   -1.40198  -1.38408  -1.19849  -1.18032  -1.09294
 Alpha  occ. eigenvalues --   -1.07479  -1.05211  -1.03379  -0.96171  -0.94368
 Alpha  occ. eigenvalues --   -0.86621  -0.84794  -0.83010  -0.81202  -0.78086
 Alpha  occ. eigenvalues --   -0.76283  -0.72822  -0.71941  -0.71040  -0.70952
 Alpha  occ. eigenvalues --   -0.70161  -0.69163  -0.65504  -0.65211  -0.63683
 Alpha  occ. eigenvalues --   -0.63363  -0.62559  -0.60735  -0.55722  -0.53910
 Alpha  occ. eigenvalues --   -0.53556  -0.53298  -0.51739  -0.51477  -0.49586
 Alpha  occ. eigenvalues --   -0.49538  -0.47806  -0.47765  -0.45658  -0.43873
 Alpha  occ. eigenvalues --   -0.37815  -0.36802  -0.36002  -0.34942
 Alpha virt. eigenvalues --    0.04420   0.06216   0.10856   0.12698   0.15966
 Alpha virt. eigenvalues --    0.17792   0.21027   0.22826   0.26957   0.27887
 Alpha virt. eigenvalues --    0.28819   0.29570   0.30618   0.32082   0.32433

 Mulliken charges:
               1
     1  C   -0.169803
     2  C   -0.218556
     3  C   -0.170221
     4  C    0.157602
     5  C   -0.170807
     6  C   -0.218547
     7  H    0.227595
     8  H    0.225965
     9  H    0.277923
    10  H    0.274320
    11  H    0.224626
    12  N    0.488777
    13  O   -0.470013
    14  O   -0.455786
    15  C   -0.172149
    16  C   -0.212050
    17  C   -0.168789
    18  C    0.157476
    19  C   -0.173724
    20  C   -0.218803
    21  H    0.224007
    22  H    0.238873
    23  H    0.272889
    24  H    0.270628
    25  H    0.218070
    26  N    0.488298
    27  O   -0.464769
    28  O   -0.463031
 Sum of Mulliken charges =  -0.00000

 Dipole moment (field-independent basis, Debye):
    X=             -7.5927    Y=              3.1967    Z=             -0.3520  Tot=              8.2457
 Quadrupole moment (field-independent basis, Debye-Ang):
   XX=            -84.1495   YY=           -104.2844   ZZ=           -102.7244
   XY=             24.6913   XZ=             -5.5033   YZ=              2.6516

 Normal termination of Gaussian 16 at Thu May  6 14:28:33 2021.
