 Gaussian 16, Revision A.03,
 Gaussian 16:  EM64L-G16RevA.03 25-Dec-2016

 -------------
 #p 6-31g* mp2
 -------------

 ------------------------------------------------------
 Input file generated by CHIRIPA (05-May-2021 14:55:23)
 ------------------------------------------------------
 Symbolic Z-matrix:
 Charge =  0 Multiplicity = 1

                         Standard orientation:
 ---------------------------------------------------------------------
 Center     Atomic      Atomic             Coordinates (Angstroms)
 Number     Number       Type             X           Y           Z
 ---------------------------------------------------------------------
      1          6           0       -1.553371    0.748969   -0.096911
      2          6           0       -2.566790    1.684455   -0.330082
      3          6           0       -3.907954    1.289923   -0.343163
      4          6           0       -4.201140   -0.054243   -0.118334
      5          6           0       -3.213981   -1.010012    0.116854
      6          6           0       -1.879626   -0.592913    0.125421
      7          1           0       -0.514167    1.064216   -0.088503
      8          1           0       -2.316364    2.727246   -0.503055
      9          1           0       -4.712393    1.993215   -0.521141
     10          1           0       -3.494677   -2.042484    0.286052
     11          1           0       -1.094676   -1.321618    0.306771
     12          7           0       -5.617366   -0.483862   -0.129793
     13          8           0       -5.849441   -1.674012    0.071009
     14          8           0       -6.468513    0.377688   -0.339358
     15          6           0        5.788494    0.241971    0.047286
     16          6           0        6.731286   -0.784256   -0.581988
     17          6           0        8.147579   -0.242960   -0.779232
     18          1           0        5.755070    1.137674   -0.587965
     19          1           0        6.198384    0.560699    1.015685
     20          1           0        6.319038   -1.101984   -1.548278
     21          1           0        6.762320   -1.677696    0.054737
     22          1           0        8.582521    0.056637    0.179761
     23          1           0        8.136721    0.635621   -1.432362
     24          1           0        8.804797   -0.992925   -1.230318
     25          6           0        4.368892   -0.284373    0.250815
     26          6           0        3.426100    0.741855    0.880088
     27          6           0        2.009807    0.200560    1.077333
     28          1           0        3.959002   -0.603100   -0.717585
     29          1           0        4.402316   -1.180076    0.886066
     30          1           0        3.395066    1.635295    0.243364
     31          1           0        3.838348    1.059583    1.846378
     32          1           0        2.020665   -0.678021    1.730463
     33          1           0        1.574865   -0.099038    0.118340
     34          1           0        1.352590    0.950525    1.528418
 ---------------------------------------------------------------------

 SCF Done:  E(RHF) =  -669.535047303     A.U. after   15 cycles
 E2 =    -0.2091452522D+01 EUMP2 =    -0.67162649982496D+03

 The electronic state is 1-A.
 Alpha  occ. eigenvalues --  -20.60677 -20.60672 -15.85730 -11.31067 -11.27639
 Alpha  occ. eigenvalues --  -11.27634 -11.27263 -11.26628 -11.26608 -11.22695
 Alpha  occ. eigenvalues --  -11.22545 -11.22251 -11.22167 -11.22053 -11.21538
 Alpha  occ. eigenvalues --   -1.59754  -1.39308  -1.19232  -1.09260  -1.08623
 Alpha  occ. eigenvalues --   -1.04636  -1.04411  -0.96901  -0.95463  -0.87930
 Alpha  occ. eigenvalues --   -0.86025  -0.82308  -0.80496  -0.79013  -0.77361
 Alpha  occ. eigenvalues --   -0.71948  -0.71077  -0.70357  -0.65887  -0.64879
 Alpha  occ. eigenvalues --   -0.64645  -0.61997  -0.61799  -0.60309  -0.58461
 Alpha  occ. eigenvalues --   -0.56287  -0.55095  -0.53506  -0.53319  -0.52949
 Alpha  occ. eigenvalues --   -0.52712  -0.50801  -0.48802  -0.48705  -0.48696
 Alpha  occ. eigenvalues --   -0.47490  -0.46569  -0.46455  -0.44720  -0.44632
 Alpha  occ. eigenvalues --   -0.37193  -0.36247
 Alpha virt. eigenvalues --    0.05161   0.11392   0.16623   0.20368   0.22314
 Alpha virt. eigenvalues --    0.23760   0.25610   0.25961   0.26783   0.27592
 Alpha virt. eigenvalues --    0.29521   0.30230   0.30547   0.31431   0.31596

 Mulliken charges:
               1
     1  C   -0.175176
     2  C   -0.220010
     3  C   -0.170879
     4  C    0.158079
     5  C   -0.171038
     6  C   -0.222347
     7  H    0.234300
     8  H    0.222815
     9  H    0.274982
    10  H    0.275065
    11  H    0.224822
    12  N    0.488071
    13  O   -0.460827
    14  O   -0.460827
    15  C   -0.298978
    16  C   -0.300270
    17  C   -0.476147
    18  H    0.150366
    19  H    0.151095
    20  H    0.152474
    21  H    0.152876
    22  H    0.156008
    23  H    0.155721
    24  H    0.161983
    25  C   -0.299577
    26  C   -0.299917
    27  C   -0.485651
    28  H    0.149860
    29  H    0.151439
    30  H    0.152610
    31  H    0.156906
    32  H    0.161319
    33  H    0.149686
    34  H    0.161168
 Sum of Mulliken charges =  -0.00000

 Dipole moment (field-independent basis, Debye):
    X=              5.3293    Y=              1.5034    Z=              0.0924  Tot=              5.5380
 Quadrupole moment (field-independent basis, Debye-Ang):
   XX=           -137.0962   YY=            -90.5260   ZZ=            -94.5346
   XY=             -8.5554   XZ=              0.1215   YZ=             -1.4936

 Normal termination of Gaussian 16 at Thu May  6 15:57:29 2021.
