 Gaussian 16, Revision A.03,
 Gaussian 16:  EM64L-G16RevA.03 25-Dec-2016

 -------------
 #p 6-31g* mp2
 -------------

 ------------------------------------------------------
 Input file generated by CHIRIPA (05-May-2021 14:51:11)
 ------------------------------------------------------
 Symbolic Z-matrix:
 Charge =  0 Multiplicity = 1

                         Standard orientation:
 ---------------------------------------------------------------------
 Center     Atomic      Atomic             Coordinates (Angstroms)
 Number     Number       Type             X           Y           Z
 ---------------------------------------------------------------------
      1          6           0        1.795883    1.147262    0.065436
      2          6           0        1.550111    2.651707   -0.053839
      3          6           0        0.075184    3.023835    0.100779
      4          1           0        1.202328    0.623671   -0.696462
      5          1           0        1.429251    0.799109    1.041021
      6          1           0        1.918353    2.997168   -1.028349
      7          1           0        2.144467    3.171792    0.708308
      8          1           0       -0.301633    2.706878    1.078607
      9          1           0       -0.529032    2.531261   -0.667917
     10          1           0       -0.077783    4.103926    0.012090
     11          6           0        3.265645    0.759568   -0.086944
     12          6           0        3.511417   -0.744877    0.032331
     13          6           0        4.986343   -1.117005   -0.122287
     14          1           0        3.632276    1.107721   -1.062529
     15          1           0        3.859200    1.283159    0.674955
     16          1           0        2.917060   -1.264962   -0.729816
     17          1           0        3.143174   -1.090338    1.006842
     18          1           0        5.590560   -0.624431    0.646410
     19          1           0        5.363161   -0.800048   -1.100115
     20          1           0        5.139310   -2.197095   -0.033598
     21          6           0       -1.799128   -1.098692    0.175178
     22          6           0       -1.379251   -2.533829   -0.144308
     23          6           0        0.087102   -2.809099    0.190099
     24          1           0       -1.157495   -0.402892   -0.382599
     25          1           0       -1.621872   -0.900934    1.241418
     26          1           0       -1.558539   -2.729264   -1.209333
     27          1           0       -2.022084   -3.226297    0.414146
     28          1           0        0.277361   -2.641532    1.255145
     29          1           0        0.743540   -2.141675   -0.377558
     30          1           0        0.365922   -3.840755   -0.046135
     31          6           0       -3.262400   -0.808138   -0.153670
     32          6           0       -3.682276    0.626999    0.165816
     33          6           0       -5.148629    0.902269   -0.168591
     34          1           0       -3.439655   -1.005896   -1.219910
     35          1           0       -3.904032   -1.503938    0.404107
     36          1           0       -3.039444    1.319467   -0.392639
     37          1           0       -3.502989    0.822434    1.230841
     38          1           0       -5.805068    0.234845    0.399066
     39          1           0       -5.338889    0.734702   -1.233638
     40          1           0       -5.427449    1.933925    0.067643
 ---------------------------------------------------------------------

 SCF Done:  E(RHF) =  -470.732250015     A.U. after   11 cycles
 E2 =    -0.1585054414D+01 EUMP2 =    -0.47231730442954D+03

 The electronic state is 1-A.
 Alpha  occ. eigenvalues --  -11.21610 -11.21556 -11.21526 -11.21520 -11.21399
 Alpha  occ. eigenvalues --  -11.21340 -11.21326 -11.21257 -11.21074 -11.21043
 Alpha  occ. eigenvalues --  -11.21019 -11.20929  -1.08452  -1.08337  -1.03532
 Alpha  occ. eigenvalues --   -1.03446  -0.95974  -0.95903  -0.87025  -0.86889
 Alpha  occ. eigenvalues --   -0.79674  -0.79465  -0.78447  -0.77952  -0.65176
 Alpha  occ. eigenvalues --   -0.64893  -0.60984  -0.60810  -0.59365  -0.59278
 Alpha  occ. eigenvalues --   -0.57579  -0.57504  -0.55277  -0.55193  -0.52692
 Alpha  occ. eigenvalues --   -0.52597  -0.52509  -0.52211  -0.50010  -0.49786
 Alpha  occ. eigenvalues --   -0.48108  -0.47697  -0.46762  -0.46639  -0.46158
 Alpha  occ. eigenvalues --   -0.45824  -0.45524  -0.44892  -0.43773  -0.43705
 Alpha virt. eigenvalues --    0.20851   0.22490   0.23731   0.24034   0.24676
 Alpha virt. eigenvalues --    0.25881   0.26816   0.27654   0.29237   0.29506
 Alpha virt. eigenvalues --    0.30824   0.30912   0.31520   0.31849   0.31947

 Mulliken charges:
               1
     1  C   -0.301332
     2  C   -0.300090
     3  C   -0.477738
     4  H    0.151442
     5  H    0.151414
     6  H    0.151508
     7  H    0.152076
     8  H    0.156699
     9  H    0.156453
    10  H    0.160099
    11  C   -0.298265
    12  C   -0.302581
    13  C   -0.475337
    14  H    0.148938
    15  H    0.149575
    16  H    0.154471
    17  H    0.153908
    18  H    0.154934
    19  H    0.154753
    20  H    0.160544
    21  C   -0.302836
    22  C   -0.299719
    23  C   -0.480635
    24  H    0.155615
    25  H    0.148715
    26  H    0.150831
    27  H    0.151333
    28  H    0.154155
    29  H    0.162895
    30  H    0.158967
    31  C   -0.298121
    32  C   -0.302249
    33  C   -0.475638
    34  H    0.148757
    35  H    0.149343
    36  H    0.155495
    37  H    0.151618
    38  H    0.154950
    39  H    0.154799
    40  H    0.160254
 Sum of Mulliken charges =  -0.00000

 Dipole moment (field-independent basis, Debye):
    X=              0.0465    Y=              0.0291    Z=              0.0138  Tot=              0.0566
 Quadrupole moment (field-independent basis, Debye-Ang):
   XX=            -87.0134   YY=            -85.1303   ZZ=            -82.8777
   XY=              0.7861   XZ=             -0.2030   YZ=             -0.1173

 Normal termination of Gaussian 16 at Thu May  6 03:52:42 2021.
