 Gaussian 16, Revision A.03,
 Gaussian 16:  EM64L-G16RevA.03 25-Dec-2016

 -------------
 #p 6-31g* mp2
 -------------

 ------------------------------------------------------
 Input file generated by CHIRIPA (05-May-2021 14:51:09)
 ------------------------------------------------------
 Symbolic Z-matrix:
 Charge =  0 Multiplicity = 1

                         Standard orientation:
 ---------------------------------------------------------------------
 Center     Atomic      Atomic             Coordinates (Angstroms)
 Number     Number       Type             X           Y           Z
 ---------------------------------------------------------------------
      1          6           0       -3.614615    0.833533    0.408814
      2          6           0       -4.039142    1.721397   -0.761425
      3          6           0       -4.384639    3.146219   -0.327477
      4          1           0       -4.423130    0.806098    1.152114
      5          1           0       -2.746662    1.286532    0.907657
      6          1           0       -4.905180    1.266149   -1.258760
      7          1           0       -3.229598    1.746568   -1.502114
      8          1           0       -3.522533    3.623318    0.149756
      9          1           0       -5.207636    3.140169    0.394493
     10          1           0       -4.685427    3.763634   -1.179641
     11          6           0       -3.266036   -0.593907   -0.009082
     12          6           0       -2.841509   -1.481771    1.161156
     13          6           0       -2.496012   -2.906593    0.727209
     14          1           0       -4.133988   -1.046906   -0.507926
     15          1           0       -2.457520   -0.566472   -0.752382
     16          1           0       -3.651053   -1.506942    1.901846
     17          1           0       -1.975471   -1.026523    1.658491
     18          1           0       -1.673015   -2.900543    0.005239
     19          1           0       -3.358118   -3.383692    0.249976
     20          1           0       -2.195223   -3.524008    1.579373
     21          6           0        4.138942    0.056736    0.053506
     22          6           0        4.348556    1.557507    0.257791
     23          6           0        5.750981    1.894890    0.764909
     24          1           0        4.322630   -0.465228    1.002589
     25          1           0        4.887283   -0.317319   -0.658860
     26          1           0        3.599166    1.928884    0.968503
     27          1           0        4.164161    2.075977   -0.691842
     28          1           0        6.510312    1.551758    0.054782
     29          1           0        5.942107    1.403829    1.724560
     30          1           0        5.879045    2.972905    0.903991
     31          6           0        2.741709   -0.296362   -0.453237
     32          6           0        2.532095   -1.797133   -0.657522
     33          6           0        1.129669   -2.134516   -1.164641
     34          1           0        1.993367    0.077693    0.259128
     35          1           0        2.558021    0.225602   -1.402320
     36          1           0        2.716490   -2.315603    0.292110
     37          1           0        3.281484   -2.168510   -1.368234
     38          1           0        0.938544   -1.643455   -2.124293
     39          1           0        0.370339   -1.791385   -0.454514
     40          1           0        1.001607   -3.212531   -1.303722
 ---------------------------------------------------------------------

 SCF Done:  E(RHF) =  -470.733128337     A.U. after   11 cycles
 E2 =    -0.1582737422D+01 EUMP2 =    -0.47231586575896D+03

 The electronic state is 1-A.
 Alpha  occ. eigenvalues --  -11.21658 -11.21637 -11.21579 -11.21577 -11.21456
 Alpha  occ. eigenvalues --  -11.21394 -11.21375 -11.21314 -11.21141 -11.21098
 Alpha  occ. eigenvalues --  -11.21054 -11.20954  -1.08481  -1.08400  -1.03589
 Alpha  occ. eigenvalues --   -1.03489  -0.96052  -0.95925  -0.87079  -0.86934
 Alpha  occ. eigenvalues --   -0.79675  -0.79533  -0.78296  -0.78208  -0.65149
 Alpha  occ. eigenvalues --   -0.65007  -0.61123  -0.60781  -0.59401  -0.59310
 Alpha  occ. eigenvalues --   -0.57643  -0.57551  -0.55504  -0.55068  -0.52752
 Alpha  occ. eigenvalues --   -0.52633  -0.52475  -0.52326  -0.50123  -0.49728
 Alpha  occ. eigenvalues --   -0.48018  -0.47824  -0.46750  -0.46499  -0.45875
 Alpha  occ. eigenvalues --   -0.45778  -0.45713  -0.45607  -0.43829  -0.43751
 Alpha virt. eigenvalues --    0.21008   0.23055   0.23729   0.24877   0.26205
 Alpha virt. eigenvalues --    0.26602   0.27136   0.27647   0.27964   0.28988
 Alpha virt. eigenvalues --    0.30789   0.31099   0.31662   0.31759   0.32222

 Mulliken charges:
               1
     1  C   -0.298106
     2  C   -0.299659
     3  C   -0.475691
     4  H    0.149546
     5  H    0.149181
     6  H    0.151903
     7  H    0.152123
     8  H    0.155137
     9  H    0.155106
    10  H    0.160187
    11  C   -0.299860
    12  C   -0.299646
    13  C   -0.482349
    14  H    0.149637
    15  H    0.151194
    16  H    0.151990
    17  H    0.150494
    18  H    0.163371
    19  H    0.154801
    20  H    0.159421
    21  C   -0.298352
    22  C   -0.299683
    23  C   -0.475740
    24  H    0.149826
    25  H    0.149721
    26  H    0.151850
    27  H    0.151968
    28  H    0.155268
    29  H    0.155266
    30  H    0.160365
    31  C   -0.298557
    32  C   -0.299697
    33  C   -0.481189
    34  H    0.149196
    35  H    0.149650
    36  H    0.152461
    37  H    0.152260
    38  H    0.155350
    39  H    0.159978
    40  H    0.161278
 Sum of Mulliken charges =  -0.00000

 Dipole moment (field-independent basis, Debye):
    X=              0.0392    Y=             -0.0093    Z=             -0.0254  Tot=              0.0477
 Quadrupole moment (field-independent basis, Debye-Ang):
   XX=            -84.7593   YY=            -86.0157   ZZ=            -84.0078
   XY=              0.1655   XZ=             -0.7207   YZ=             -0.3872

 Normal termination of Gaussian 16 at Wed May  5 19:45:22 2021.
