 Gaussian 16, Revision A.03,
 Gaussian 16:  EM64L-G16RevA.03 25-Dec-2016

 -------------
 #p 6-31g* mp2
 -------------

 ------------------------------------------------------
 Input file generated by CHIRIPA (05-May-2021 14:53:11)
 ------------------------------------------------------
 Symbolic Z-matrix:
 Charge =  0 Multiplicity = 1

                         Standard orientation:
 ---------------------------------------------------------------------
 Center     Atomic      Atomic             Coordinates (Angstroms)
 Number     Number       Type             X           Y           Z
 ---------------------------------------------------------------------
      1          6           0       -3.217397   -0.326695    0.326284
      2          6           0       -2.673202   -1.704102    0.706527
      3          6           0       -1.166260   -1.693608    0.965002
      4          1           0       -2.692811    0.033316   -0.569342
      5          1           0       -2.987373    0.385584    1.130735
      6          1           0       -2.905399   -2.413880   -0.097784
      7          1           0       -3.199279   -2.060960    1.601240
      8          1           0       -0.920261   -1.007317    1.781759
      9          1           0       -0.624711   -1.362242    0.073081
     10          1           0       -0.798350   -2.688325    1.235261
     11          6           0       -4.722491   -0.321023    0.064770
     12          6           0       -5.266686    1.056384   -0.315473
     13          6           0       -6.773628    1.045889   -0.573948
     14          1           0       -4.952516   -1.033302   -0.739681
     15          1           0       -5.247078   -0.681035    0.960396
     16          1           0       -4.740609    1.413242   -1.210186
     17          1           0       -5.034489    1.766161    0.488838
     18          1           0       -7.315177    0.714524    0.317973
     19          1           0       -7.019627    0.359599   -1.390705
     20          1           0       -7.141538    2.040607   -0.844207
     21          6           0        3.328163   -2.221337   -0.591094
     22          6           0        4.422053   -1.491921   -0.113729
     23          6           0        4.307936   -0.120494    0.132673
     24          6           0        3.079608    0.492226   -0.110379
     25          6           0        1.971470   -0.207214   -0.585882
     26          6           0        2.108512   -1.577789   -0.825233
     27          1           0        3.425716   -3.286363   -0.779766
     28          1           0        5.370467   -1.989075    0.069011
     29          1           0        5.138670    0.468280    0.502326
     30          1           0        1.038870    0.316112   -0.758524
     31          1           0        1.257294   -2.141739   -1.195951
     32          7           0        2.946662    1.943644    0.146745
     33          8           0        1.853675    2.460032   -0.075424
     34          8           0        3.937963    2.537393    0.565576
 ---------------------------------------------------------------------

 SCF Done:  E(RHF) =  -669.534147413     A.U. after   15 cycles
 E2 =    -0.2092290508D+01 EUMP2 =    -0.67162643792099D+03

 The electronic state is 1-A.
 Alpha  occ. eigenvalues --  -20.60724 -20.60719 -15.85777 -11.31130 -11.27696
 Alpha  occ. eigenvalues --  -11.27684 -11.27435 -11.26717 -11.26682 -11.22006
 Alpha  occ. eigenvalues --  -11.21672 -11.21644 -11.21628 -11.21521 -11.21094
 Alpha  occ. eigenvalues --   -1.59800  -1.39353  -1.19305  -1.08704  -1.08659
 Alpha  occ. eigenvalues --   -1.04725  -1.03788  -0.96262  -0.95538  -0.87290
 Alpha  occ. eigenvalues --   -0.86105  -0.82388  -0.79866  -0.78445  -0.77419
 Alpha  occ. eigenvalues --   -0.71997  -0.71123  -0.70423  -0.65318  -0.64960
 Alpha  occ. eigenvalues --   -0.64724  -0.62181  -0.61126  -0.59632  -0.57843
 Alpha  occ. eigenvalues --   -0.55587  -0.55185  -0.53198  -0.52939  -0.52753
 Alpha  occ. eigenvalues --   -0.52579  -0.50190  -0.48753  -0.48751  -0.48163
 Alpha  occ. eigenvalues --   -0.46883  -0.45992  -0.45895  -0.44761  -0.44030
 Alpha  occ. eigenvalues --   -0.37286  -0.36250
 Alpha virt. eigenvalues --    0.05099   0.11339   0.16529   0.20341   0.22856
 Alpha virt. eigenvalues --    0.24019   0.25833   0.26846   0.27269   0.28177
 Alpha virt. eigenvalues --    0.29387   0.30261   0.31410   0.31712   0.31778

 Mulliken charges:
               1
     1  C   -0.298770
     2  C   -0.300345
     3  C   -0.475840
     4  H    0.147400
     5  H    0.154535
     6  H    0.149600
     7  H    0.154411
     8  H    0.162887
     9  H    0.144152
    10  H    0.158689
    11  C   -0.298500
    12  C   -0.300162
    13  C   -0.475947
    14  H    0.148379
    15  H    0.150236
    16  H    0.152991
    17  H    0.154474
    18  H    0.155141
    19  H    0.154429
    20  H    0.161615
    21  C   -0.172135
    22  C   -0.218648
    23  C   -0.171401
    24  C    0.156980
    25  C   -0.169050
    26  C   -0.215856
    27  H    0.225280
    28  H    0.223135
    29  H    0.275301
    30  H    0.275586
    31  H    0.224438
    32  N    0.488307
    33  O   -0.460643
    34  O   -0.460668
 Sum of Mulliken charges =  -0.00000

 Dipole moment (field-independent basis, Debye):
    X=              0.3781    Y=             -5.0743    Z=             -0.8244  Tot=              5.1547
 Quadrupole moment (field-independent basis, Debye-Ang):
   XX=            -88.2425   YY=           -100.5296   ZZ=            -93.9068
   XY=            -15.6144   XZ=             -1.7930   YZ=              0.4077

 Normal termination of Gaussian 16 at Thu May  6 00:53:58 2021.
