 Gaussian 16, Revision A.03,
 Gaussian 16:  EM64L-G16RevA.03 25-Dec-2016

 -------------
 #p 6-31g* mp2
 -------------

 ------------------------------------------------------
 Input file generated by CHIRIPA (05-May-2021 14:57:24)
 ------------------------------------------------------
 Symbolic Z-matrix:
 Charge =  0 Multiplicity = 1

                         Standard orientation:
 ---------------------------------------------------------------------
 Center     Atomic      Atomic             Coordinates (Angstroms)
 Number     Number       Type             X           Y           Z
 ---------------------------------------------------------------------
      1          6           0       -5.554769    0.763988   -1.461911
      2          6           0       -5.724811    0.836865   -0.075443
      3          6           0       -4.730163    0.367291    0.787531
      4          6           0       -3.572936   -0.171489    0.227323
      5          6           0       -3.374037   -0.257914   -1.149725
      6          6           0       -4.381992    0.217794   -1.993690
      7          1           0       -6.332604    1.131146   -2.124907
      8          1           0       -6.634565    1.260546    0.340354
      9          1           0       -4.835790    0.411520    1.864705
     10          1           0       -2.456195   -0.685529   -1.534600
     11          1           0       -4.247208    0.159918   -3.070040
     12          7           0       -2.512903   -0.671853    1.130853
     13          8           0       -1.502634   -1.142071    0.612309
     14          8           0       -2.712390   -0.584345    2.340474
     15          6           0        3.482704   -2.396569   -0.421283
     16          6           0        4.681139   -1.765553   -0.770701
     17          6           0        4.839084   -0.388903   -0.585125
     18          6           0        3.773256    0.329322   -0.045263
     19          6           0        2.566929   -0.270575    0.312774
     20          6           0        2.431277   -1.648385    0.118388
     21          1           0        3.368667   -3.466434   -0.568864
     22          1           0        5.499380   -2.344086   -1.190017
     23          1           0        5.756023    0.125021   -0.846897
     24          1           0        1.769067    0.332653    0.728649
     25          1           0        1.499420   -2.135777    0.390667
     26          7           0        3.928665    1.787333    0.155861
     27          8           0        2.974639    2.397702    0.633272
     28          8           0        5.001558    2.292145   -0.167717
 ---------------------------------------------------------------------

 SCF Done:  E(RHF) =  -868.340357316     A.U. after   16 cycles
 E2 =    -0.2598266262D+01 EUMP2 =    -0.87093862357878D+03

 The electronic state is 1-A.
 Alpha  occ. eigenvalues --  -20.61511 -20.61448 -20.60087 -20.60075 -15.86515
 Alpha  occ. eigenvalues --  -15.85126 -11.31600 -11.30315 -11.28151 -11.28121
 Alpha  occ. eigenvalues --  -11.27829 -11.27095 -11.27079 -11.26922 -11.26715
 Alpha  occ. eigenvalues --  -11.26577 -11.25942 -11.25629  -1.60537  -1.59163
 Alpha  occ. eigenvalues --   -1.40102  -1.38719  -1.19745  -1.18464  -1.09192
 Alpha  occ. eigenvalues --   -1.07905  -1.05110  -1.03802  -0.96075  -0.94767
 Alpha  occ. eigenvalues --   -0.86521  -0.85224  -0.82925  -0.81574  -0.77998
 Alpha  occ. eigenvalues --   -0.76637  -0.72757  -0.71833  -0.71350  -0.70855
 Alpha  occ. eigenvalues --   -0.70484  -0.69586  -0.65408  -0.65112  -0.64101
 Alpha  occ. eigenvalues --   -0.63772  -0.62463  -0.61117  -0.55621  -0.54360
 Alpha  occ. eigenvalues --   -0.53448  -0.53201  -0.52198  -0.51856  -0.49517
 Alpha  occ. eigenvalues --   -0.49464  -0.48113  -0.48090  -0.45568  -0.44163
 Alpha  occ. eigenvalues --   -0.37706  -0.36697  -0.36481  -0.35410
 Alpha virt. eigenvalues --    0.04518   0.05838   0.10962   0.12224   0.16064
 Alpha virt. eigenvalues --    0.17370   0.21088   0.22426   0.27039   0.27760
 Alpha virt. eigenvalues --    0.28572   0.29193   0.30721   0.31858   0.32306

 Mulliken charges:
               1
     1  C   -0.169652
     2  C   -0.218406
     3  C   -0.169793
     4  C    0.158105
     5  C   -0.169953
     6  C   -0.218205
     7  H    0.227464
     8  H    0.225265
     9  H    0.276704
    10  H    0.273769
    11  H    0.224844
    12  N    0.492545
    13  O   -0.475201
    14  O   -0.455143
    15  C   -0.172647
    16  C   -0.218977
    17  C   -0.173311
    18  C    0.157707
    19  C   -0.173594
    20  C   -0.225179
    21  H    0.223012
    22  H    0.219460
    23  H    0.272065
    24  H    0.281848
    25  H    0.244149
    26  N    0.487966
    27  O   -0.460840
    28  O   -0.464003
 Sum of Mulliken charges =  -0.00000

 Dipole moment (field-independent basis, Debye):
    X=             -4.8326    Y=             -3.3744    Z=             -3.8053  Tot=              7.0158
 Quadrupole moment (field-independent basis, Debye-Ang):
   XX=            -77.3703   YY=           -110.1149   ZZ=           -103.1367
   XY=            -26.8749   XZ=              3.8403   YZ=              2.0889

 Normal termination of Gaussian 16 at Fri May  7 00:21:12 2021.
