 Gaussian 16, Revision A.03,
 Gaussian 16:  EM64L-G16RevA.03 25-Dec-2016

 -------------
 #p 6-31g* mp2
 -------------

 ------------------------------------------------------
 Input file generated by CHIRIPA (05-May-2021 14:53:14)
 ------------------------------------------------------
 Symbolic Z-matrix:
 Charge =  0 Multiplicity = 1

                         Standard orientation:
 ---------------------------------------------------------------------
 Center     Atomic      Atomic             Coordinates (Angstroms)
 Number     Number       Type             X           Y           Z
 ---------------------------------------------------------------------
      1          6           0        3.727195    0.012499    0.199924
      2          6           0        4.900381   -0.047123   -0.778883
      3          6           0        5.732274   -1.321046   -0.627659
      4          1           0        4.110950   -0.056768    1.226997
      5          1           0        3.085401   -0.866047    0.046134
      6          1           0        5.539023    0.831988   -0.624233
      7          1           0        4.513804    0.022487   -1.803739
      8          1           0        5.114339   -2.207700   -0.802591
      9          1           0        6.145383   -1.393599    0.383617
     10          1           0        6.565548   -1.342943   -1.336908
     11          6           0        2.886116    1.280176    0.060971
     12          6           0        1.712929    1.339798    1.039778
     13          6           0        0.881037    2.613721    0.888554
     14          1           0        3.527910    2.158723    0.214761
     15          1           0        2.502360    1.349443   -0.966102
     16          1           0        2.099507    1.270189    2.064634
     17          1           0        1.074288    0.460687    0.885128
     18          1           0        0.467928    2.686275   -0.122722
     19          1           0        1.498972    3.500376    1.063486
     20          1           0        0.047762    2.635618    1.597803
     21          6           0       -0.528675   -1.802071    0.577660
     22          6           0       -0.576301   -1.168871   -0.668659
     23          6           0       -1.709575   -0.447448   -1.055681
     24          6           0       -2.781960   -0.379551   -0.167611
     25          6           0       -2.764756   -0.999522    1.080840
     26          6           0       -1.621129   -1.715529    1.446899
     27          1           0        0.355701   -2.360386    0.870166
     28          1           0        0.270629   -1.234386   -1.345758
     29          1           0       -1.773133    0.052374   -2.014617
     30          1           0       -3.624662   -0.916353    1.734341
     31          1           0       -1.586939   -2.206272    2.415427
     32          7           0       -3.987187    0.381320   -0.566238
     33          8           0       -4.918752    0.426058    0.234277
     34          8           0       -3.977458    0.918547   -1.671647
 ---------------------------------------------------------------------

 SCF Done:  E(RHF) =  -669.534301994     A.U. after   15 cycles
 E2 =    -0.2093961304D+01 EUMP2 =    -0.67162826329869D+03

 The electronic state is 1-A.
 Alpha  occ. eigenvalues --  -20.60825 -20.60819 -15.85880 -11.31283 -11.27857
 Alpha  occ. eigenvalues --  -11.27853 -11.27586 -11.26874 -11.26864 -11.22255
 Alpha  occ. eigenvalues --  -11.22152 -11.21917 -11.21793 -11.21700 -11.21261
 Alpha  occ. eigenvalues --   -1.59899  -1.39452  -1.19471  -1.09028  -1.08844
 Alpha  occ. eigenvalues --   -1.04877  -1.03998  -0.96469  -0.95685  -0.87478
 Alpha  occ. eigenvalues --   -0.86274  -0.82510  -0.80087  -0.78832  -0.77548
 Alpha  occ. eigenvalues --   -0.72098  -0.71222  -0.70571  -0.65714  -0.65113
 Alpha  occ. eigenvalues --   -0.64841  -0.62214  -0.61435  -0.59846  -0.58081
 Alpha  occ. eigenvalues --   -0.55794  -0.55368  -0.53285  -0.53073  -0.52961
 Alpha  occ. eigenvalues --   -0.52866  -0.50416  -0.48860  -0.48850  -0.48390
 Alpha  occ. eigenvalues --   -0.47141  -0.46357  -0.46306  -0.44850  -0.44288
 Alpha  occ. eigenvalues --   -0.37321  -0.36443
 Alpha virt. eigenvalues --    0.04955   0.11091   0.16381   0.19426   0.22922
 Alpha virt. eigenvalues --    0.23865   0.25334   0.26246   0.27199   0.27943
 Alpha virt. eigenvalues --    0.29871   0.30759   0.31046   0.31618   0.31698

 Mulliken charges:
               1
     1  C   -0.296882
     2  C   -0.299779
     3  C   -0.475588
     4  H    0.151809
     5  H    0.136607
     6  H    0.155435
     7  H    0.151171
     8  H    0.151884
     9  H    0.156343
    10  H    0.162868
    11  C   -0.298099
    12  C   -0.309936
    13  C   -0.474554
    14  H    0.152622
    15  H    0.146215
    16  H    0.149429
    17  H    0.161221
    18  H    0.155021
    19  H    0.155605
    20  H    0.162260
    21  C   -0.173212
    22  C   -0.219441
    23  C   -0.170029
    24  C    0.159195
    25  C   -0.170935
    26  C   -0.217108
    27  H    0.228171
    28  H    0.225473
    29  H    0.275942
    30  H    0.276128
    31  H    0.224304
    32  N    0.488087
    33  O   -0.460132
    34  O   -0.460095
 Sum of Mulliken charges =  -0.00000

 Dipole moment (field-independent basis, Debye):
    X=              4.2040    Y=             -2.6625    Z=              1.4297  Tot=              5.1775
 Quadrupole moment (field-independent basis, Debye-Ang):
   XX=           -117.8543   YY=            -93.6739   ZZ=            -91.1198
   XY=              7.4561   XZ=             -6.4663   YZ=             -0.9998

 Normal termination of Gaussian 16 at Thu May  6 20:23:02 2021.
