 Gaussian 16, Revision A.03,
 Gaussian 16:  EM64L-G16RevA.03 25-Dec-2016

 -------------
 #p 6-31g* mp2
 -------------

 ------------------------------------------------------
 Input file generated by CHIRIPA (05-May-2021 14:53:11)
 ------------------------------------------------------
 Symbolic Z-matrix:
 Charge =  0 Multiplicity = 1

                         Standard orientation:
 ---------------------------------------------------------------------
 Center     Atomic      Atomic             Coordinates (Angstroms)
 Number     Number       Type             X           Y           Z
 ---------------------------------------------------------------------
      1          6           0       -4.708006   -0.282261   -0.361221
      2          6           0       -6.135827   -0.190562    0.178136
      3          6           0       -6.977463   -1.420080   -0.164979
      4          1           0       -4.742358   -0.412209   -1.451578
      5          1           0       -4.226826   -1.182357    0.045827
      6          1           0       -6.613710    0.709835   -0.228716
      7          1           0       -6.098068   -0.060625    1.267313
      8          1           0       -6.526300   -2.325069    0.254601
      9          1           0       -7.044871   -1.550232   -1.249929
     10          1           0       -7.994432   -1.333454    0.230156
     11          6           0       -3.854258    0.939483   -0.026283
     12          6           0       -2.426438    0.847784   -0.565640
     13          6           0       -1.584801    2.077302   -0.222525
     14          1           0       -4.335438    1.839579   -0.433331
     15          1           0       -3.819906    1.069431    1.064074
     16          1           0       -2.464196    0.717847   -1.654817
     17          1           0       -1.948554   -0.052613   -0.158787
     18          1           0       -1.517393    2.207453    0.862426
     19          1           0       -2.035965    2.982291   -0.642104
     20          1           0       -0.567833    1.990676   -0.617659
     21          6           0        0.964536   -0.549600    0.935767
     22          6           0        1.561855    0.714777    0.968687
     23          6           0        2.880008    0.888777    0.536547
     24          6           0        3.574734   -0.228414    0.075536
     25          6           0        3.007283   -1.500915    0.030495
     26          6           0        1.687882   -1.651468    0.467601
     27          1           0       -0.059921   -0.675659    1.273393
     28          1           0        1.002496    1.572294    1.331768
     29          1           0        3.366848    1.856345    0.551231
     30          1           0        3.590179   -2.336852   -0.336738
     31          1           0        1.226556   -2.634580    0.440902
     32          7           0        4.970864   -0.056619   -0.384581
     33          8           0        5.561558   -1.056804   -0.786260
     34          8           0        5.448020    1.074966   -0.334827
 ---------------------------------------------------------------------

 SCF Done:  E(RHF) =  -669.534275789     A.U. after   15 cycles
 E2 =    -0.2092918454D+01 EUMP2 =    -0.67162719424289D+03

 The electronic state is 1-A.
 Alpha  occ. eigenvalues --  -20.60746 -20.60740 -15.85798 -11.31166 -11.27728
 Alpha  occ. eigenvalues --  -11.27710 -11.27446 -11.26752 -11.26678 -11.22609
 Alpha  occ. eigenvalues --  -11.22228 -11.22209 -11.22100 -11.22088 -11.21594
 Alpha  occ. eigenvalues --   -1.59821  -1.39374  -1.19336  -1.09243  -1.08728
 Alpha  occ. eigenvalues --   -1.04745  -1.04329  -0.96789  -0.95562  -0.87821
 Alpha  occ. eigenvalues --   -0.86121  -0.82403  -0.80410  -0.79025  -0.77443
 Alpha  occ. eigenvalues --   -0.72017  -0.71144  -0.70475  -0.65902  -0.64983
 Alpha  occ. eigenvalues --   -0.64764  -0.62159  -0.61680  -0.60132  -0.58378
 Alpha  occ. eigenvalues --   -0.56083  -0.55265  -0.53599  -0.53265  -0.52925
 Alpha  occ. eigenvalues --   -0.52719  -0.50715  -0.48789  -0.48772  -0.48692
 Alpha  occ. eigenvalues --   -0.47437  -0.46564  -0.46484  -0.44780  -0.44570
 Alpha  occ. eigenvalues --   -0.37282  -0.36315
 Alpha virt. eigenvalues --    0.05056   0.11243   0.16452   0.19659   0.22586
 Alpha virt. eigenvalues --    0.24031   0.25395   0.25731   0.26878   0.28239
 Alpha virt. eigenvalues --    0.28761   0.30096   0.30851   0.31333   0.32112

 Mulliken charges:
               1
     1  C   -0.298123
     2  C   -0.300141
     3  C   -0.476044
     4  H    0.152002
     5  H    0.146415
     6  H    0.153697
     7  H    0.151940
     8  H    0.154769
     9  H    0.156396
    10  H    0.162153
    11  C   -0.298830
    12  C   -0.300953
    13  C   -0.483838
    14  H    0.153137
    15  H    0.148030
    16  H    0.158175
    17  H    0.143486
    18  H    0.146508
    19  H    0.161394
    20  H    0.167704
    21  C   -0.170661
    22  C   -0.219769
    23  C   -0.173486
    24  C    0.158902
    25  C   -0.171120
    26  C   -0.219302
    27  H    0.227261
    28  H    0.228823
    29  H    0.275674
    30  H    0.275471
    31  H    0.223217
    32  N    0.488032
    33  O   -0.460507
    34  O   -0.460412
 Sum of Mulliken charges =  -0.00000

 Dipole moment (field-independent basis, Debye):
    X=             -5.0787    Y=             -0.5619    Z=              1.5292  Tot=              5.3336
 Quadrupole moment (field-independent basis, Debye-Ang):
   XX=           -130.4564   YY=            -90.1125   ZZ=            -94.3349
   XY=             -2.1385   XZ=              5.7994   YZ=              0.0931

 Normal termination of Gaussian 16 at Thu May  6 05:41:12 2021.
