 Gaussian 16, Revision A.03,
 Gaussian 16:  EM64L-G16RevA.03 25-Dec-2016

 -------------
 #p 6-31g* mp2
 -------------

 ------------------------------------------------------
 Input file generated by CHIRIPA (05-May-2021 14:51:12)
 ------------------------------------------------------
 Symbolic Z-matrix:
 Charge =  0 Multiplicity = 1

                         Standard orientation:
 ---------------------------------------------------------------------
 Center     Atomic      Atomic             Coordinates (Angstroms)
 Number     Number       Type             X           Y           Z
 ---------------------------------------------------------------------
      1          6           0        2.523258   -0.834329    0.697095
      2          6           0        1.410433   -1.870874    0.538416
      3          6           0        1.406909   -2.910719    1.659354
      4          1           0        3.493570   -1.348782    0.724991
      5          1           0        2.409127   -0.329544    1.666404
      6          1           0        1.525816   -2.372587   -0.430906
      7          1           0        0.442671   -1.353877    0.510702
      8          1           0        1.268624   -2.427980    2.632206
      9          1           0        2.357923   -3.452478    1.685248
     10          1           0        0.603463   -3.641880    1.526169
     11          6           0        2.539778    0.211972   -0.415878
     12          6           0        3.652603    1.248517   -0.257200
     13          6           0        3.656127    2.288363   -1.378138
     14          1           0        2.653909   -0.292812   -1.385188
     15          1           0        1.569466    0.726426   -0.443775
     16          1           0        4.620365    0.731521   -0.229485
     17          1           0        3.537220    1.750231    0.712123
     18          1           0        2.705113    2.830122   -1.404032
     19          1           0        3.794413    1.805624   -2.350990
     20          1           0        4.459573    3.019524   -1.244953
     21          6           0       -2.888545    0.970544    0.004996
     22          6           0       -2.027424    1.967966    0.780628
     23          6           0       -2.755518    3.282195    1.064311
     24          1           0       -3.204900    1.428022   -0.942411
     25          1           0       -3.805427    0.767121    0.575384
     26          1           0       -1.111800    2.168389    0.209595
     27          1           0       -1.712925    1.507991    1.726211
     28          1           0       -3.659909    3.101971    1.654393
     29          1           0       -3.055368    3.766119    0.129160
     30          1           0       -2.121665    3.980552    1.619639
     31          6           0       -2.174491   -0.348188   -0.286212
     32          6           0       -3.035612   -1.345610   -1.061844
     33          6           0       -2.307518   -2.659839   -1.345527
     34          1           0       -1.257610   -0.144764   -0.856600
     35          1           0       -1.858137   -0.805666    0.661194
     36          1           0       -3.350112   -0.885635   -2.007428
     37          1           0       -3.951237   -1.546032   -0.490813
     38          1           0       -2.007668   -3.143763   -0.410376
     39          1           0       -1.403128   -2.479613   -1.935610
     40          1           0       -2.941371   -3.358196   -1.900854
 ---------------------------------------------------------------------

 SCF Done:  E(RHF) =  -470.732538108     A.U. after   11 cycles
 E2 =    -0.1584602382D+01 EUMP2 =    -0.47231714048923D+03

 The electronic state is 1-A.
 Alpha  occ. eigenvalues --  -11.21699 -11.21643 -11.21581 -11.21464 -11.21403
 Alpha  occ. eigenvalues --  -11.21382 -11.21355 -11.21271 -11.21139 -11.21078
 Alpha  occ. eigenvalues --  -11.21071 -11.20999  -1.08518  -1.08351  -1.03597
 Alpha  occ. eigenvalues --   -1.03454  -0.96034  -0.95928  -0.87056  -0.86939
 Alpha  occ. eigenvalues --   -0.79730  -0.79492  -0.78515  -0.77985  -0.65133
 Alpha  occ. eigenvalues --   -0.65000  -0.60987  -0.60877  -0.59470  -0.59233
 Alpha  occ. eigenvalues --   -0.57666  -0.57517  -0.55325  -0.55215  -0.52730
 Alpha  occ. eigenvalues --   -0.52619  -0.52512  -0.52320  -0.49973  -0.49875
 Alpha  occ. eigenvalues --   -0.48154  -0.47735  -0.46765  -0.46667  -0.46307
 Alpha  occ. eigenvalues --   -0.45747  -0.45649  -0.44940  -0.43842  -0.43713
 Alpha virt. eigenvalues --    0.20726   0.22197   0.23580   0.24435   0.24980
 Alpha virt. eigenvalues --    0.26186   0.26659   0.27438   0.28812   0.30179
 Alpha virt. eigenvalues --    0.30619   0.30991   0.31299   0.31931   0.32256

 Mulliken charges:
               1
     1  C   -0.297310
     2  C   -0.310395
     3  C   -0.476230
     4  H    0.148964
     5  H    0.148892
     6  H    0.150735
     7  H    0.166133
     8  H    0.154110
     9  H    0.154922
    10  H    0.159686
    11  C   -0.301879
    12  C   -0.299466
    13  C   -0.475613
    14  H    0.148941
    15  H    0.152084
    16  H    0.152104
    17  H    0.152052
    18  H    0.154569
    19  H    0.155045
    20  H    0.160303
    21  C   -0.296926
    22  C   -0.301681
    23  C   -0.475660
    24  H    0.149893
    25  H    0.149764
    26  H    0.152496
    27  H    0.151674
    28  H    0.155581
    29  H    0.155517
    30  H    0.160428
    31  C   -0.305484
    32  C   -0.299215
    33  C   -0.477141
    34  H    0.154320
    35  H    0.151922
    36  H    0.152031
    37  H    0.151870
    38  H    0.156052
    39  H    0.156818
    40  H    0.160093
 Sum of Mulliken charges =  -0.00000

 Dipole moment (field-independent basis, Debye):
    X=             -0.0737    Y=              0.0181    Z=             -0.0183  Tot=              0.0781
 Quadrupole moment (field-independent basis, Debye-Ang):
   XX=            -84.4816   YY=            -86.0686   ZZ=            -84.3518
   XY=              0.0869   XZ=             -0.4655   YZ=              0.3857

 Normal termination of Gaussian 16 at Wed May  5 19:53:33 2021.
