 Gaussian 16, Revision A.03,
 Gaussian 16:  EM64L-G16RevA.03 25-Dec-2016

 -------------
 #p 6-31g* mp2
 -------------

 ------------------------------------------------------
 Input file generated by CHIRIPA (05-May-2021 14:57:22)
 ------------------------------------------------------
 Symbolic Z-matrix:
 Charge =  0 Multiplicity = 1

                         Standard orientation:
 ---------------------------------------------------------------------
 Center     Atomic      Atomic             Coordinates (Angstroms)
 Number     Number       Type             X           Y           Z
 ---------------------------------------------------------------------
      1          6           0       -1.677898    2.351770    0.790774
      2          6           0       -1.467669    1.176280    1.519162
      3          6           0       -2.103233   -0.012315    1.147884
      4          6           0       -2.946259    0.010675    0.037898
      5          6           0       -3.175961    1.165715   -0.708031
      6          6           0       -2.529871    2.342751   -0.318542
      7          1           0       -1.180088    3.270609    1.086264
      8          1           0       -0.806553    1.180327    2.381110
      9          1           0       -1.958345   -0.936571    1.693939
     10          1           0       -3.840662    1.130520   -1.562637
     11          1           0       -2.695010    3.254160   -0.886088
     12          7           0       -3.624674   -1.241520   -0.364797
     13          8           0       -4.362595   -1.194957   -1.346602
     14          8           0       -3.405649   -2.245841    0.309001
     15          6           0        3.098612    2.272548   -0.417374
     16          6           0        1.834960    1.729134   -0.163590
     17          6           0        1.676795    0.351144    0.011553
     18          6           0        2.808910   -0.457736   -0.073996
     19          6           0        4.081112    0.053628   -0.325589
     20          6           0        4.215686    1.434538   -0.497423
     21          1           0        3.212316    3.344138   -0.552145
     22          1           0        0.965656    2.377536   -0.100887
     23          1           0        0.710161   -0.096064    0.209137
     24          1           0        4.929017   -0.618116   -0.382446
     25          1           0        5.198275    1.853780   -0.694400
     26          7           0        2.653954   -1.918098    0.109668
     27          8           0        3.667102   -2.609290    0.029531
     28          8           0        1.522287   -2.343886    0.330284
 ---------------------------------------------------------------------

 SCF Done:  E(RHF) =  -868.335407728     A.U. after   16 cycles
 E2 =    -0.2604173216D+01 EUMP2 =    -0.87093958094453D+03

 The electronic state is 1-A.
 Alpha  occ. eigenvalues --  -20.60995 -20.60952 -20.60899 -20.60893 -15.86041
 Alpha  occ. eigenvalues --  -15.85950 -11.31807 -11.31378 -11.28388 -11.28324
 Alpha  occ. eigenvalues --  -11.28287 -11.27977 -11.27867 -11.27776 -11.27544
 Alpha  occ. eigenvalues --  -11.27509 -11.27015 -11.26970  -1.60043  -1.59971
 Alpha  occ. eigenvalues --   -1.39583  -1.39523  -1.20050  -1.19574  -1.09394
 Alpha  occ. eigenvalues --   -1.08970  -1.05496  -1.04969  -0.96141  -0.95786
 Alpha  occ. eigenvalues --   -0.86843  -0.86403  -0.82942  -0.82615  -0.77910
 Alpha  occ. eigenvalues --   -0.77636  -0.72254  -0.72164  -0.71372  -0.71300
 Alpha  occ. eigenvalues --   -0.71163  -0.70714  -0.65683  -0.65450  -0.65218
 Alpha  occ. eigenvalues --   -0.65004  -0.62772  -0.62389  -0.56035  -0.55569
 Alpha  occ. eigenvalues --   -0.53681  -0.53534  -0.53312  -0.53092  -0.49048
 Alpha  occ. eigenvalues --   -0.48979  -0.48927  -0.48919  -0.44913  -0.44899
 Alpha  occ. eigenvalues --   -0.38076  -0.37596  -0.37147  -0.36502
 Alpha virt. eigenvalues --    0.04529   0.04870   0.10499   0.11015   0.15816
 Alpha virt. eigenvalues --    0.16344   0.20112   0.21868   0.26297   0.26647
 Alpha virt. eigenvalues --    0.28338   0.28411   0.30302   0.31505   0.32130

 Mulliken charges:
               1
     1  C   -0.183279
     2  C   -0.226417
     3  C   -0.176291
     4  C    0.162516
     5  C   -0.169654
     6  C   -0.218139
     7  H    0.223954
     8  H    0.230385
     9  H    0.287642
    10  H    0.278983
    11  H    0.225199
    12  N    0.488051
    13  O   -0.459617
    14  O   -0.451783
    15  C   -0.171597
    16  C   -0.225491
    17  C   -0.179894
    18  C    0.158476
    19  C   -0.170034
    20  C   -0.218930
    21  H    0.223533
    22  H    0.220487
    23  H    0.282810
    24  H    0.276497
    25  H    0.223715
    26  N    0.487746
    27  O   -0.459245
    28  O   -0.459625
 Sum of Mulliken charges =  -0.00000

 Dipole moment (field-independent basis, Debye):
    X=              2.6025    Y=              9.2431    Z=              0.7862  Tot=              9.6346
 Quadrupole moment (field-independent basis, Debye-Ang):
   XX=           -109.8082   YY=           -109.5122   ZZ=           -102.6272
   XY=             -0.5122   XZ=             -4.9774   YZ=             -2.0625

 Normal termination of Gaussian 16 at Fri May  7 01:45:49 2021.
