 Gaussian 16, Revision A.03,
 Gaussian 16:  EM64L-G16RevA.03 25-Dec-2016

 -------------
 #p 6-31g* mp2
 -------------

 ------------------------------------------------------
 Input file generated by CHIRIPA (05-May-2021 14:51:12)
 ------------------------------------------------------
 Symbolic Z-matrix:
 Charge =  0 Multiplicity = 1

                         Standard orientation:
 ---------------------------------------------------------------------
 Center     Atomic      Atomic             Coordinates (Angstroms)
 Number     Number       Type             X           Y           Z
 ---------------------------------------------------------------------
      1          6           0       -3.977566    0.089175    0.048390
      2          6           0       -4.051360    1.360441   -0.798027
      3          6           0       -5.436589    1.587496   -1.404146
      4          1           0       -4.253481   -0.773874   -0.572869
      5          1           0       -4.725122    0.147882    0.851576
      6          1           0       -3.302943    1.299962   -1.598546
      7          1           0       -3.775052    2.220542   -0.174731
      8          1           0       -6.192209    1.673970   -0.616643
      9          1           0       -5.717418    0.748160   -2.048547
     10          1           0       -5.466871    2.501631   -2.005229
     11          6           0       -2.599023   -0.151510    0.661105
     12          6           0       -2.525229   -1.422776    1.507522
     13          6           0       -1.140000   -1.649831    2.113641
     14          1           0       -1.851467   -0.210216   -0.142081
     15          1           0       -2.323108    0.711539    1.282363
     16          1           0       -2.801537   -2.282876    0.884226
     17          1           0       -3.273646   -1.362297    2.308040
     18          1           0       -0.859171   -0.810495    2.758041
     19          1           0       -0.384380   -1.736305    1.326137
     20          1           0       -1.109718   -2.563966    2.714724
     21          6           0        3.160282    0.727816   -0.068871
     22          6           0        4.442436    1.494115    0.258012
     23          6           0        4.169931    2.886037    0.829053
     24          1           0        2.565500    1.309927   -0.786036
     25          1           0        2.552225    0.638858    0.842033
     26          1           0        5.048534    1.580398   -0.652931
     27          1           0        5.034325    0.910023    0.974336
     28          1           0        3.585726    2.816062    1.752314
     29          1           0        3.600016    3.490247    0.115802
     30          1           0        5.100222    3.416224    1.055595
     31          6           0        3.416307   -0.665482   -0.640623
     32          6           0        2.134153   -1.431781   -0.967507
     33          6           0        2.406658   -2.823702   -1.538549
     34          1           0        4.024364   -0.576523   -1.551528
     35          1           0        4.011089   -1.247592    0.076541
     36          1           0        1.542264   -0.847688   -1.683831
     37          1           0        1.528055   -1.518064   -0.056565
     38          1           0        2.976573   -3.427912   -0.825296
     39          1           0        2.990864   -2.753728   -2.461808
     40          1           0        1.476368   -3.353889   -1.765089
 ---------------------------------------------------------------------

 SCF Done:  E(RHF) =  -470.733387687     A.U. after   11 cycles
 E2 =    -0.1582674201D+01 EUMP2 =    -0.47231606188765D+03

 The electronic state is 1-A.
 Alpha  occ. eigenvalues --  -11.21621 -11.21599 -11.21593 -11.21591 -11.21402
 Alpha  occ. eigenvalues --  -11.21389 -11.21339 -11.21329 -11.21096 -11.21070
 Alpha  occ. eigenvalues --  -11.21065 -11.21060  -1.08436  -1.08416  -1.03549
 Alpha  occ. eigenvalues --   -1.03514  -0.95988  -0.95970  -0.87013  -0.86981
 Alpha  occ. eigenvalues --   -0.79655  -0.79542  -0.78278  -0.78195  -0.65102
 Alpha  occ. eigenvalues --   -0.65017  -0.61037  -0.60838  -0.59377  -0.59319
 Alpha  occ. eigenvalues --   -0.57628  -0.57555  -0.55323  -0.55214  -0.52683
 Alpha  occ. eigenvalues --   -0.52671  -0.52438  -0.52380  -0.50029  -0.49841
 Alpha  occ. eigenvalues --   -0.48059  -0.47806  -0.46778  -0.46475  -0.45896
 Alpha  occ. eigenvalues --   -0.45753  -0.45716  -0.45492  -0.43788  -0.43777
 Alpha virt. eigenvalues --    0.21448   0.23116   0.23635   0.24687   0.25786
 Alpha virt. eigenvalues --    0.26442   0.27091   0.27898   0.27980   0.29090
 Alpha virt. eigenvalues --    0.30286   0.31498   0.31760   0.31842   0.32066

 Mulliken charges:
               1
     1  C   -0.298326
     2  C   -0.299616
     3  C   -0.475700
     4  H    0.149574
     5  H    0.149466
     6  H    0.151880
     7  H    0.151991
     8  H    0.155175
     9  H    0.155143
    10  H    0.160200
    11  C   -0.298844
    12  C   -0.298959
    13  C   -0.484143
    14  H    0.150539
    15  H    0.149600
    16  H    0.151851
    17  H    0.151897
    18  H    0.154854
    19  H    0.162866
    20  H    0.160291
    21  C   -0.298674
    22  C   -0.299682
    23  C   -0.475700
    24  H    0.149594
    25  H    0.150317
    26  H    0.151840
    27  H    0.151985
    28  H    0.155249
    29  H    0.155177
    30  H    0.160188
    31  C   -0.297422
    32  C   -0.309437
    33  C   -0.475178
    34  H    0.149537
    35  H    0.149806
    36  H    0.151477
    37  H    0.160472
    38  H    0.155480
    39  H    0.155384
    40  H    0.159845
 Sum of Mulliken charges =  -0.00000

 Dipole moment (field-independent basis, Debye):
    X=              0.0117    Y=              0.0000    Z=              0.0012  Tot=              0.0118
 Quadrupole moment (field-independent basis, Debye-Ang):
   XX=            -85.6324   YY=            -85.5086   ZZ=            -83.6620
   XY=              0.1516   XZ=             -0.6766   YZ=             -0.1991

 Normal termination of Gaussian 16 at Wed May  5 16:47:37 2021.
