 Gaussian 16, Revision A.03,
 Gaussian 16:  EM64L-G16RevA.03 25-Dec-2016

 -------------
 #p 6-31g* mp2
 -------------

 ------------------------------------------------------
 Input file generated by CHIRIPA (05-May-2021 14:57:25)
 ------------------------------------------------------
 Symbolic Z-matrix:
 Charge =  0 Multiplicity = 1

                         Standard orientation:
 ---------------------------------------------------------------------
 Center     Atomic      Atomic             Coordinates (Angstroms)
 Number     Number       Type             X           Y           Z
 ---------------------------------------------------------------------
      1          6           0       -1.213646   -0.997396    0.777190
      2          6           0       -1.391581   -0.621167   -0.558217
      3          6           0       -2.620400   -0.118851   -0.996657
      4          6           0       -3.654415   -0.005643   -0.068601
      5          6           0       -3.508180   -0.372003    1.268442
      6          6           0       -2.270650   -0.871834    1.684658
      7          1           0       -0.255686   -1.386641    1.109149
      8          1           0       -0.572464   -0.717579   -1.265181
      9          1           0       -2.785546    0.179901   -2.024710
     10          1           0       -4.343335   -0.264305    1.949864
     11          1           0       -2.135335   -1.163234    2.722358
     12          7           0       -4.959922    0.524821   -0.520994
     13          8           0       -5.855170    0.614773    0.316308
     14          8           0       -5.063209    0.840602   -1.704316
     15          6           0        3.211476   -2.379710   -0.452506
     16          6           0        3.918684   -1.569156   -1.346587
     17          6           0        4.051273   -0.197792   -1.109249
     18          6           0        3.461271    0.332129    0.037212
     19          6           0        2.750480   -0.449276    0.946867
     20          6           0        2.630655   -1.818172    0.689354
     21          1           0        3.113435   -3.444060   -0.644712
     22          1           0        4.370804   -2.002520   -2.234184
     23          1           0        4.593315    0.452802   -1.784775
     24          1           0        2.310812    0.011522    1.823094
     25          1           0        2.080856   -2.445239    1.385453
     26          7           0        3.594881    1.782625    0.299150
     27          8           0        3.065780    2.225170    1.316422
     28          8           0        4.226176    2.449511   -0.517775
 ---------------------------------------------------------------------

 SCF Done:  E(RHF) =  -868.336670378     A.U. after   16 cycles
 E2 =    -0.2601082963D+01 EUMP2 =    -0.87093775334123D+03

 The electronic state is 1-A.
 Alpha  occ. eigenvalues --  -20.61548 -20.61543 -20.60830 -20.60825 -15.86615
 Alpha  occ. eigenvalues --  -15.85885 -11.32217 -11.31310 -11.28900 -11.28788
 Alpha  occ. eigenvalues --  -11.28606 -11.27975 -11.27883 -11.27869 -11.27802
 Alpha  occ. eigenvalues --  -11.27668 -11.26950 -11.26909  -1.60621  -1.59903
 Alpha  occ. eigenvalues --   -1.40167  -1.39455  -1.20441  -1.19490  -1.09771
 Alpha  occ. eigenvalues --   -1.08891  -1.05892  -1.04899  -0.96560  -0.95717
 Alpha  occ. eigenvalues --   -0.87250  -0.86302  -0.83412  -0.82539  -0.78413
 Alpha  occ. eigenvalues --   -0.77564  -0.72823  -0.72103  -0.71953  -0.71503
 Alpha  occ. eigenvalues --   -0.71225  -0.70673  -0.66077  -0.65876  -0.65150
 Alpha  occ. eigenvalues --   -0.64916  -0.63213  -0.62244  -0.56333  -0.55542
 Alpha  occ. eigenvalues --   -0.54127  -0.53938  -0.53222  -0.52995  -0.49602
 Alpha  occ. eigenvalues --   -0.49565  -0.48868  -0.48854  -0.45520  -0.44847
 Alpha  occ. eigenvalues --   -0.38416  -0.37615  -0.37369  -0.36492
 Alpha virt. eigenvalues --    0.04101   0.04967   0.10086   0.11166   0.15364
 Alpha virt. eigenvalues --    0.16423   0.19358   0.21859   0.25184   0.27107
 Alpha virt. eigenvalues --    0.27324   0.29022   0.29865   0.31496   0.32327

 Mulliken charges:
               1
     1  C   -0.171819
     2  C   -0.220472
     3  C   -0.170063
     4  C    0.159110
     5  C   -0.169916
     6  C   -0.218962
     7  H    0.219299
     8  H    0.224420
     9  H    0.276316
    10  H    0.276272
    11  H    0.222033
    12  N    0.488021
    13  O   -0.459871
    14  O   -0.459726
    15  C   -0.172008
    16  C   -0.219662
    17  C   -0.169682
    18  C    0.158367
    19  C   -0.171281
    20  C   -0.227934
    21  H    0.229456
    22  H    0.227801
    23  H    0.279693
    24  H    0.276952
    25  H    0.220525
    26  N    0.488119
    27  O   -0.457936
    28  O   -0.457051
 Sum of Mulliken charges =  -0.00000

 Dipole moment (field-independent basis, Debye):
    X=              4.3562    Y=             -6.8512    Z=              0.5180  Tot=              8.1354
 Quadrupole moment (field-independent basis, Debye-Ang):
   XX=           -139.4929   YY=           -109.4445   ZZ=            -97.4977
   XY=            -10.6499   XZ=            -14.2788   YZ=             -1.2054

 Normal termination of Gaussian 16 at Fri May  7 03:30:14 2021.
