 Gaussian 16, Revision A.03,
 Gaussian 16:  EM64L-G16RevA.03 25-Dec-2016

 -------------
 #p 6-31g* mp2
 -------------

 ------------------------------------------------------
 Input file generated by CHIRIPA (05-May-2021 14:51:09)
 ------------------------------------------------------
 Symbolic Z-matrix:
 Charge =  0 Multiplicity = 1

                         Standard orientation:
 ---------------------------------------------------------------------
 Center     Atomic      Atomic             Coordinates (Angstroms)
 Number     Number       Type             X           Y           Z
 ---------------------------------------------------------------------
      1          6           0       -3.491421    0.723350    0.032473
      2          6           0       -2.910227    2.132960   -0.082406
      3          6           0       -3.794032    3.192318    0.576717
      4          1           0       -4.489785    0.706783   -0.425720
      5          1           0       -3.630675    0.477094    1.094246
      6          1           0       -2.770818    2.375953   -1.143601
      7          1           0       -1.913051    2.146126    0.375943
      8          1           0       -3.923557    2.977247    1.642348
      9          1           0       -4.786197    3.208379    0.114170
     10          1           0       -3.359711    4.192523    0.482826
     11          6           0       -2.619230   -0.346720   -0.621715
     12          6           0       -3.200425   -1.756330   -0.506836
     13          6           0       -2.316620   -2.815688   -1.165960
     14          1           0       -2.479977   -0.100464   -1.683488
     15          1           0       -1.620867   -0.330153   -0.163522
     16          1           0       -4.197600   -1.769496   -0.965185
     17          1           0       -3.339834   -1.999323    0.554359
     18          1           0       -1.324454   -2.831749   -0.703412
     19          1           0       -2.187095   -2.600617   -2.231590
     20          1           0       -2.750941   -3.815893   -1.072068
     21          6           0        3.365768    0.484752    0.110128
     22          6           0        4.732840    0.357852   -0.562923
     23          6           0        5.341052    1.712854   -0.926018
     24          1           0        2.683670    1.026982   -0.558958
     25          1           0        3.466673    1.097213    1.016827
     26          1           0        4.629647   -0.255340   -1.467336
     27          1           0        5.411709   -0.184307    0.107762
     28          1           0        5.472803    2.328437   -0.030305
     29          1           0        4.686299    2.257000   -1.614353
     30          1           0        6.318033    1.598729   -1.405958
     31          6           0        2.744883   -0.861383    0.479115
     32          6           0        1.377811   -0.734482    1.152164
     33          6           0        0.769600   -2.089484    1.515260
     34          1           0        2.643978   -1.473843   -0.427585
     35          1           0        3.426982   -1.403612    1.148199
     36          1           0        0.698943   -0.192323    0.481480
     37          1           0        1.481004   -0.121290    2.056578
     38          1           0        1.424353   -2.633629    2.203594
     39          1           0        0.637848   -2.705067    0.619547
     40          1           0       -0.207382   -1.975359    1.995199
 ---------------------------------------------------------------------

 SCF Done:  E(RHF) =  -470.732690243     A.U. after   11 cycles
 E2 =    -0.1584024181D+01 EUMP2 =    -0.47231671442358D+03

 The electronic state is 1-A.
 Alpha  occ. eigenvalues --  -11.21673 -11.21620 -11.21596 -11.21569 -11.21444
 Alpha  occ. eigenvalues --  -11.21382 -11.21381 -11.21316 -11.21164 -11.21084
 Alpha  occ. eigenvalues --  -11.21064 -11.20988  -1.08486  -1.08402  -1.03603
 Alpha  occ. eigenvalues --   -1.03489  -0.96044  -0.95947  -0.87073  -0.86953
 Alpha  occ. eigenvalues --   -0.79657  -0.79567  -0.78328  -0.78194  -0.65254
 Alpha  occ. eigenvalues --   -0.64930  -0.61176  -0.60738  -0.59404  -0.59304
 Alpha  occ. eigenvalues --   -0.57700  -0.57530  -0.55469  -0.55130  -0.52730
 Alpha  occ. eigenvalues --   -0.52645  -0.52509  -0.52350  -0.50194  -0.49679
 Alpha  occ. eigenvalues --   -0.48036  -0.47838  -0.46718  -0.46553  -0.46028
 Alpha  occ. eigenvalues --   -0.45764  -0.45731  -0.45381  -0.43832  -0.43759
 Alpha virt. eigenvalues --    0.20285   0.23150   0.23645   0.24628   0.25825
 Alpha virt. eigenvalues --    0.26312   0.26805   0.27506   0.28474   0.29241
 Alpha virt. eigenvalues --    0.30513   0.31160   0.31674   0.32121   0.32423

 Mulliken charges:
               1
     1  C   -0.297506
     2  C   -0.300247
     3  C   -0.475651
     4  H    0.149681
     5  H    0.149227
     6  H    0.151689
     7  H    0.152210
     8  H    0.155208
     9  H    0.155195
    10  H    0.160236
    11  C   -0.308736
    12  C   -0.298143
    13  C   -0.482537
    14  H    0.148857
    15  H    0.159943
    16  H    0.151787
    17  H    0.151495
    18  H    0.162362
    19  H    0.154244
    20  H    0.160022
    21  C   -0.298618
    22  C   -0.299722
    23  C   -0.475761
    24  H    0.150154
    25  H    0.149503
    26  H    0.152116
    27  H    0.151961
    28  H    0.155177
    29  H    0.155315
    30  H    0.160338
    31  C   -0.297797
    32  C   -0.307044
    33  C   -0.480207
    34  H    0.150016
    35  H    0.149854
    36  H    0.157237
    37  H    0.152315
    38  H    0.156433
    39  H    0.158943
    40  H    0.160449
 Sum of Mulliken charges =  -0.00000

 Dipole moment (field-independent basis, Debye):
    X=              0.0469    Y=             -0.0038    Z=              0.0165  Tot=              0.0499
 Quadrupole moment (field-independent basis, Debye-Ang):
   XX=            -85.0030   YY=            -86.3676   ZZ=            -83.4710
   XY=             -0.1539   XZ=              1.2300   YZ=             -0.2199

 Normal termination of Gaussian 16 at Wed May  5 21:20:56 2021.
