 Gaussian 16, Revision A.03,
 Gaussian 16:  EM64L-G16RevA.03 25-Dec-2016

 -------------
 #p 6-31g* mp2
 -------------

 ------------------------------------------------------
 Input file generated by CHIRIPA (05-May-2021 14:51:13)
 ------------------------------------------------------
 Symbolic Z-matrix:
 Charge =  0 Multiplicity = 1

                         Standard orientation:
 ---------------------------------------------------------------------
 Center     Atomic      Atomic             Coordinates (Angstroms)
 Number     Number       Type             X           Y           Z
 ---------------------------------------------------------------------
      1          6           0       -2.662259    0.175591   -0.183730
      2          6           0       -3.932596    0.425776   -0.997141
      3          6           0       -4.006616    1.847201   -1.555590
      4          1           0       -2.615024    0.898481    0.642190
      5          1           0       -1.785539    0.367585   -0.817682
      6          1           0       -4.806661    0.232029   -0.362249
      7          1           0       -3.976908   -0.297917   -1.821107
      8          1           0       -3.153054    2.048563   -2.210942
      9          1           0       -3.987522    2.581520   -0.743795
     10          1           0       -4.922621    2.004243   -2.133633
     11          6           0       -2.573785   -1.241013    0.381188
     12          6           0       -1.303448   -1.491198    1.194599
     13          6           0       -1.229427   -2.912623    1.753048
     14          1           0       -3.450505   -1.433008    1.015140
     15          1           0       -2.621019   -1.963903   -0.444732
     16          1           0       -1.259135   -0.767505    2.018565
     17          1           0       -0.429382   -1.297452    0.559708
     18          1           0       -1.248522   -3.646943    0.941253
     19          1           0       -2.082989   -3.113985    2.408400
     20          1           0       -0.313422   -3.069665    2.331091
     21          6           0        2.583707   -0.221810   -0.212533
     22          6           0        3.523870   -0.712257   -1.314141
     23          6           0        3.443809   -2.223803   -1.530042
     24          1           0        2.825491   -0.740872    0.725050
     25          1           0        1.552588   -0.502498   -0.468273
     26          1           0        4.552749   -0.429514   -1.057075
     27          1           0        3.279946   -0.191827   -2.249164
     28          1           0        2.427792   -2.519564   -1.810817
     29          1           0        3.707825   -2.758602   -0.611954
     30          1           0        4.123975   -2.552826   -2.321861
     31          6           0        2.652337    1.287233    0.015075
     32          6           0        1.712173    1.777679    1.116683
     33          6           0        1.792234    3.289225    1.332584
     34          1           0        3.683456    1.567920    0.270815
     35          1           0        2.410553    1.806295   -0.922507
     36          1           0        1.956098    1.257250    2.051707
     37          1           0        0.683295    1.494937    0.859616
     38          1           0        1.528218    3.824024    0.414494
     39          1           0        2.808252    3.584986    1.613358
     40          1           0        1.112070    3.618249    2.124404
 ---------------------------------------------------------------------

 SCF Done:  E(RHF) =  -470.733209118     A.U. after   11 cycles
 E2 =    -0.1583715213D+01 EUMP2 =    -0.47231692433101D+03

 The electronic state is 1-A.
 Alpha  occ. eigenvalues --  -11.21641 -11.21620 -11.21540 -11.21539 -11.21445
 Alpha  occ. eigenvalues --  -11.21406 -11.21368 -11.21344 -11.21104 -11.21097
 Alpha  occ. eigenvalues --  -11.21042 -11.21038  -1.08470  -1.08411  -1.03534
 Alpha  occ. eigenvalues --   -1.03520  -0.95993  -0.95973  -0.87008  -0.86988
 Alpha  occ. eigenvalues --   -0.79614  -0.79580  -0.78425  -0.78083  -0.65183
 Alpha  occ. eigenvalues --   -0.64971  -0.60966  -0.60890  -0.59364  -0.59336
 Alpha  occ. eigenvalues --   -0.57640  -0.57543  -0.55292  -0.55256  -0.52697
 Alpha  occ. eigenvalues --   -0.52651  -0.52425  -0.52393  -0.49980  -0.49880
 Alpha  occ. eigenvalues --   -0.47963  -0.47911  -0.46777  -0.46603  -0.46211
 Alpha  occ. eigenvalues --   -0.45757  -0.45725  -0.45091  -0.43798  -0.43769
 Alpha virt. eigenvalues --    0.20672   0.23478   0.23729   0.24212   0.24873
 Alpha virt. eigenvalues --    0.26452   0.26845   0.27987   0.28010   0.29847
 Alpha virt. eigenvalues --    0.31162   0.31450   0.31787   0.31925   0.31991

 Mulliken charges:
               1
     1  C   -0.299734
     2  C   -0.299688
     3  C   -0.475731
     4  H    0.150332
     5  H    0.148872
     6  H    0.152323
     7  H    0.152025
     8  H    0.154914
     9  H    0.155376
    10  H    0.160446
    11  C   -0.297814
    12  C   -0.308709
    13  C   -0.475132
    14  H    0.149594
    15  H    0.149214
    16  H    0.152615
    17  H    0.160992
    18  H    0.154823
    19  H    0.154862
    20  H    0.160390
    21  C   -0.304568
    22  C   -0.298985
    23  C   -0.475631
    24  H    0.149756
    25  H    0.155074
    26  H    0.152159
    27  H    0.151661
    28  H    0.154467
    29  H    0.155427
    30  H    0.160412
    31  C   -0.297850
    32  C   -0.303470
    33  C   -0.475577
    34  H    0.149472
    35  H    0.149139
    36  H    0.151575
    37  H    0.157003
    38  H    0.155110
    39  H    0.154909
    40  H    0.159943
 Sum of Mulliken charges =  -0.00000

 Dipole moment (field-independent basis, Debye):
    X=             -0.0048    Y=             -0.0057    Z=              0.0057  Tot=              0.0093
 Quadrupole moment (field-independent basis, Debye-Ang):
   XX=            -84.0348   YY=            -86.8808   ZZ=            -83.8860
   XY=             -0.0616   XZ=              0.0366   YZ=              0.3320

 Normal termination of Gaussian 16 at Thu May  6 03:59:06 2021.
