 Gaussian 16, Revision A.03,
 Gaussian 16:  EM64L-G16RevA.03 25-Dec-2016

 -------------
 #p 6-31g* mp2
 -------------

 ------------------------------------------------------
 Input file generated by CHIRIPA (05-May-2021 14:51:08)
 ------------------------------------------------------
 Symbolic Z-matrix:
 Charge =  0 Multiplicity = 1

                         Standard orientation:
 ---------------------------------------------------------------------
 Center     Atomic      Atomic             Coordinates (Angstroms)
 Number     Number       Type             X           Y           Z
 ---------------------------------------------------------------------
      1          6           0       -3.726433    0.887406   -0.446274
      2          6           0       -2.903180    1.901328    0.348837
      3          6           0       -3.037133    3.325347   -0.191552
      4          1           0       -3.411136    0.913041   -1.498355
      5          1           0       -4.782844    1.189227   -0.429122
      6          1           0       -1.848830    1.596931    0.331351
      7          1           0       -3.220341    1.873140    1.399184
      8          1           0       -4.081160    3.653257   -0.158650
      9          1           0       -2.701857    3.375478   -1.232551
     10          1           0       -2.440487    4.033795    0.391522
     11          6           0       -3.602838   -0.540710    0.081871
     12          6           0       -4.426092   -1.554633   -0.713240
     13          6           0       -4.292139   -2.978652   -0.172851
     14          1           0       -2.546427   -0.842532    0.064719
     15          1           0       -3.918135   -0.566345    1.133952
     16          1           0       -4.108931   -1.526445   -1.763587
     17          1           0       -5.480441   -1.250235   -0.695754
     18          1           0       -4.627414   -3.028783    0.868148
     19          1           0       -3.248111   -3.306561   -0.205753
     20          1           0       -4.888785   -3.687100   -0.755925
     21          6           0        3.133425   -0.434515    0.664943
     22          6           0        1.733338    0.108819    0.377663
     23          6           0        0.681559   -0.422767    1.351814
     24          1           0        3.110483   -1.531927    0.619060
     25          1           0        3.417788   -0.170532    1.692972
     26          1           0        1.452261   -0.154917   -0.649982
     27          1           0        1.759657    1.205073    0.424045
     28          1           0        0.935129   -0.147239    2.380593
     29          1           0        0.625986   -1.514956    1.300463
     30          1           0       -0.311896   -0.021632    1.128211
     31          6           0        4.195846    0.087820   -0.300539
     32          6           0        5.595933   -0.455515   -0.013260
     33          6           0        6.647712    0.076072   -0.987410
     34          1           0        3.911484   -0.176164   -1.328569
     35          1           0        4.218788    1.185232   -0.254657
     36          1           0        5.569613   -1.551768   -0.059642
     37          1           0        5.877011   -0.191778    1.014386
     38          1           0        6.703286    1.168260   -0.936060
     39          1           0        6.394142   -0.199456   -2.016191
     40          1           0        7.641167   -0.325063   -0.763808
 ---------------------------------------------------------------------

 SCF Done:  E(RHF) =  -470.733051785     A.U. after   11 cycles
 E2 =    -0.1583013134D+01 EUMP2 =    -0.47231606491830D+03

 The electronic state is 1-A.
 Alpha  occ. eigenvalues --  -11.21628 -11.21612 -11.21608 -11.21593 -11.21420
 Alpha  occ. eigenvalues --  -11.21398 -11.21360 -11.21334 -11.21080 -11.21078
 Alpha  occ. eigenvalues --  -11.21058 -11.21040  -1.08454  -1.08425  -1.03552
 Alpha  occ. eigenvalues --   -1.03521  -0.95997  -0.95971  -0.87013  -0.86989
 Alpha  occ. eigenvalues --   -0.79623  -0.79585  -0.78264  -0.78243  -0.65090
 Alpha  occ. eigenvalues --   -0.65068  -0.60965  -0.60918  -0.59453  -0.59264
 Alpha  occ. eigenvalues --   -0.57615  -0.57582  -0.55302  -0.55235  -0.52799
 Alpha  occ. eigenvalues --   -0.52601  -0.52428  -0.52388  -0.49952  -0.49895
 Alpha  occ. eigenvalues --   -0.48007  -0.47852  -0.46649  -0.46615  -0.45806
 Alpha  occ. eigenvalues --   -0.45771  -0.45731  -0.45675  -0.43803  -0.43696
 Alpha virt. eigenvalues --    0.21265   0.23121   0.23760   0.24382   0.26182
 Alpha virt. eigenvalues --    0.26635   0.26965   0.27475   0.27860   0.29316
 Alpha virt. eigenvalues --    0.30559   0.31423   0.31659   0.31926   0.31946

 Mulliken charges:
               1
     1  C   -0.298041
     2  C   -0.306227
     3  C   -0.475176
     4  H    0.149363
     5  H    0.149621
     6  H    0.157932
     7  H    0.152042
     8  H    0.155268
     9  H    0.155233
    10  H    0.160230
    11  C   -0.302962
    12  C   -0.299461
    13  C   -0.475651
    14  H    0.154295
    15  H    0.149675
    16  H    0.151747
    17  H    0.151936
    18  H    0.155306
    19  H    0.155244
    20  H    0.160117
    21  C   -0.298187
    22  C   -0.299645
    23  C   -0.486535
    24  H    0.149723
    25  H    0.149741
    26  H    0.151179
    27  H    0.151967
    28  H    0.155516
    29  H    0.154843
    30  H    0.170855
    31  C   -0.298274
    32  C   -0.299674
    33  C   -0.475715
    34  H    0.149413
    35  H    0.149689
    36  H    0.151958
    37  H    0.151988
    38  H    0.155205
    39  H    0.155159
    40  H    0.160301
 Sum of Mulliken charges =  -0.00000

 Dipole moment (field-independent basis, Debye):
    X=             -0.0056    Y=              0.0054    Z=              0.0084  Tot=              0.0115
 Quadrupole moment (field-independent basis, Debye-Ang):
   XX=            -84.9000   YY=            -85.3932   ZZ=            -84.4673
   XY=             -0.2447   XZ=              0.1405   YZ=              1.0957

 Normal termination of Gaussian 16 at Wed May  5 15:04:55 2021.
