 Gaussian 16, Revision A.03,
 Gaussian 16:  EM64L-G16RevA.03 25-Dec-2016

 -------------
 #p 6-31g* mp2
 -------------

 ------------------------------------------------------
 Input file generated by CHIRIPA (05-May-2021 14:55:21)
 ------------------------------------------------------
 Symbolic Z-matrix:
 Charge =  0 Multiplicity = 1

                         Standard orientation:
 ---------------------------------------------------------------------
 Center     Atomic      Atomic             Coordinates (Angstroms)
 Number     Number       Type             X           Y           Z
 ---------------------------------------------------------------------
      1          6           0       -1.134813    2.110056    0.816620
      2          6           0       -1.513662    2.113399   -0.529851
      3          6           0       -2.430337    1.174284   -1.011845
      4          6           0       -2.950727    0.241973   -0.115587
      5          6           0       -2.593021    0.212984    1.231446
      6          6           0       -1.674749    1.161531    1.691428
      7          1           0       -0.422097    2.843246    1.182495
      8          1           0       -1.095964    2.848859   -1.211520
      9          1           0       -2.741056    1.154234   -2.049375
     10          1           0       -3.026518   -0.532562    1.886930
     11          1           0       -1.382357    1.156561    2.737625
     12          7           0       -3.922015   -0.757219   -0.614201
     13          8           0       -4.366029   -1.568115    0.195697
     14          8           0       -4.220904   -0.710569   -1.805472
     15          6           0        2.860048   -0.717047   -0.151892
     16          6           0        1.988647   -1.101587    1.044258
     17          6           0        0.567130   -1.492285    0.638748
     18          1           0        2.387813    0.117354   -0.688283
     19          1           0        2.897140   -1.560047   -0.855717
     20          1           0        1.954337   -0.258611    1.746276
     21          1           0        2.463108   -1.935044    1.577974
     22          1           0        0.582705   -2.348153   -0.043783
     23          1           0        0.071043   -0.662196    0.125475
     24          1           0       -0.038453   -1.763452    1.509149
     25          6           0        4.284009   -0.323981    0.237419
     26          6           0        5.155409    0.060560   -0.958731
     27          6           0        6.576926    0.451257   -0.553221
     28          1           0        4.246917    0.519020    0.941243
     29          1           0        4.756243   -1.158381    0.773810
     30          1           0        4.680948    0.894017   -1.492448
     31          1           0        5.189719   -0.782416   -1.660750
     32          1           0        7.073014   -0.378832   -0.039948
     33          1           0        6.561352    1.307126    0.129310
     34          1           0        7.182510    0.722424   -1.423622
 ---------------------------------------------------------------------

 SCF Done:  E(RHF) =  -669.534243795     A.U. after   15 cycles
 E2 =    -0.2093765185D+01 EUMP2 =    -0.67162800897970D+03

 The electronic state is 1-A.
 Alpha  occ. eigenvalues --  -20.60785 -20.60780 -15.85840 -11.31234 -11.27838
 Alpha  occ. eigenvalues --  -11.27773 -11.27565 -11.26872 -11.26788 -11.21915
 Alpha  occ. eigenvalues --  -11.21876 -11.21723 -11.21656 -11.21364 -11.21059
 Alpha  occ. eigenvalues --   -1.59858  -1.39411  -1.19435  -1.08818  -1.08719
 Alpha  occ. eigenvalues --   -1.04837  -1.03778  -0.96217  -0.95638  -0.87234
 Alpha  occ. eigenvalues --   -0.86223  -0.82468  -0.79856  -0.78545  -0.77510
 Alpha  occ. eigenvalues --   -0.72059  -0.71181  -0.70530  -0.65370  -0.65073
 Alpha  occ. eigenvalues --   -0.64829  -0.62176  -0.61223  -0.59602  -0.57840
 Alpha  occ. eigenvalues --   -0.55702  -0.55330  -0.53408  -0.52918  -0.52805
 Alpha  occ. eigenvalues --   -0.52445  -0.49995  -0.48820  -0.48811  -0.48141
 Alpha  occ. eigenvalues --   -0.46848  -0.46066  -0.46007  -0.44810  -0.44059
 Alpha  occ. eigenvalues --   -0.37419  -0.36370
 Alpha virt. eigenvalues --    0.05022   0.11163   0.16459   0.21084   0.22645
 Alpha virt. eigenvalues --    0.24122   0.26302   0.26709   0.27267   0.27951
 Alpha virt. eigenvalues --    0.28347   0.30846   0.31163   0.31492   0.31723

 Mulliken charges:
               1
     1  C   -0.172784
     2  C   -0.218956
     3  C   -0.172418
     4  C    0.160018
     5  C   -0.168420
     6  C   -0.214995
     7  H    0.225782
     8  H    0.223923
     9  H    0.276173
    10  H    0.275552
    11  H    0.223626
    12  N    0.488288
    13  O   -0.460092
    14  O   -0.460420
    15  C   -0.298047
    16  C   -0.298745
    17  C   -0.478197
    18  H    0.146703
    19  H    0.152207
    20  H    0.143814
    21  H    0.152776
    22  H    0.156716
    23  H    0.163643
    24  H    0.154765
    25  C   -0.297925
    26  C   -0.299480
    27  C   -0.475695
    28  H    0.146376
    29  H    0.151011
    30  H    0.150001
    31  H    0.153620
    32  H    0.156189
    33  H    0.154021
    34  H    0.160971
 Sum of Mulliken charges =  -0.00000

 Dipole moment (field-independent basis, Debye):
    X=              3.3526    Y=              3.5099    Z=              1.7218  Tot=              5.1501
 Quadrupole moment (field-independent basis, Debye-Ang):
   XX=           -116.7605   YY=            -92.0136   ZZ=            -91.1498
   XY=            -10.1667   XZ=             -6.2711   YZ=             -1.9475

 Normal termination of Gaussian 16 at Wed May  5 20:38:08 2021.
