 Gaussian 16, Revision A.03,
 Gaussian 16:  EM64L-G16RevA.03 25-Dec-2016

 -------------
 #p 6-31g* mp2
 -------------

 ------------------------------------------------------
 Input file generated by CHIRIPA (05-May-2021 14:51:14)
 ------------------------------------------------------
 Symbolic Z-matrix:
 Charge =  0 Multiplicity = 1

                         Standard orientation:
 ---------------------------------------------------------------------
 Center     Atomic      Atomic             Coordinates (Angstroms)
 Number     Number       Type             X           Y           Z
 ---------------------------------------------------------------------
      1          6           0        3.491163    0.090560   -0.240263
      2          6           0        3.636237    1.581028    0.068680
      3          6           0        4.744822    2.248409   -0.745836
      4          1           0        4.447288   -0.413129   -0.042611
      5          1           0        3.286798   -0.036346   -1.312422
      6          1           0        3.838896    1.705165    1.140191
      7          1           0        2.679600    2.081195   -0.129548
      8          1           0        4.545092    2.154068   -1.818128
      9          1           0        5.710975    1.775901   -0.541175
     10          1           0        4.831165    3.313504   -0.509243
     11          6           0        2.386923   -0.590615    0.566201
     12          6           0        2.241848   -2.081082    0.257259
     13          6           0        1.133264   -2.748464    1.071775
     14          1           0        2.591288   -0.463709    1.638360
     15          1           0        1.430798   -0.086926    0.368550
     16          1           0        3.198486   -2.581249    0.455486
     17          1           0        2.039190   -2.205219   -0.814252
     18          1           0        0.167111   -2.275956    0.867113
     19          1           0        1.332993   -2.654123    2.144066
     20          1           0        1.046921   -3.813559    0.835182
     21          6           0       -3.102381   -0.487322   -0.048651
     22          6           0       -2.296019   -1.432305   -0.940153
     23          6           0       -2.633968   -2.903972   -0.699781
     24          1           0       -2.917709   -0.740157    1.004399
     25          1           0       -4.174130   -0.652142   -0.226365
     26          1           0       -1.226090   -1.264782   -0.761818
     27          1           0       -2.482484   -1.177066   -1.991200
     28          1           0       -3.694220   -3.092902   -0.896692
     29          1           0       -2.430687   -3.181115    0.339675
     30          1           0       -2.046132   -3.561851   -1.347471
     31          6           0       -2.775705    0.987377   -0.277287
     32          6           0       -3.582067    1.932359    0.614214
     33          6           0       -3.244118    3.404027    0.373842
     34          1           0       -1.703955    1.152197   -0.099573
     35          1           0       -2.960377    1.240212   -1.330338
     36          1           0       -3.395602    1.677122    1.665262
     37          1           0       -4.651995    1.764836    0.435879
     38          1           0       -3.447398    3.681170   -0.665614
     39          1           0       -2.183866    3.592956    0.570754
     40          1           0       -3.831954    4.061906    1.021533
 ---------------------------------------------------------------------

 SCF Done:  E(RHF) =  -470.733146556     A.U. after   11 cycles
 E2 =    -0.1583421863D+01 EUMP2 =    -0.47231656841896D+03

 The electronic state is 1-A.
 Alpha  occ. eigenvalues --  -11.21630 -11.21626 -11.21624 -11.21624 -11.21445
 Alpha  occ. eigenvalues --  -11.21443 -11.21383 -11.21381 -11.21088 -11.21084
 Alpha  occ. eigenvalues --  -11.21065 -11.21052  -1.08483  -1.08443  -1.03597
 Alpha  occ. eigenvalues --   -1.03511  -0.96043  -0.95956  -0.87032  -0.86997
 Alpha  occ. eigenvalues --   -0.79636  -0.79598  -0.78309  -0.78245  -0.65268
 Alpha  occ. eigenvalues --   -0.64955  -0.61248  -0.60693  -0.59367  -0.59361
 Alpha  occ. eigenvalues --   -0.57622  -0.57595  -0.55496  -0.55068  -0.52708
 Alpha  occ. eigenvalues --   -0.52667  -0.52450  -0.52388  -0.49951  -0.49922
 Alpha  occ. eigenvalues --   -0.48032  -0.47842  -0.46755  -0.46557  -0.45990
 Alpha  occ. eigenvalues --   -0.45786  -0.45771  -0.45508  -0.43821  -0.43792
 Alpha virt. eigenvalues --    0.19623   0.23133   0.23477   0.24626   0.25441
 Alpha virt. eigenvalues --    0.26698   0.27052   0.27733   0.28861   0.29429
 Alpha virt. eigenvalues --    0.30553   0.31257   0.31433   0.31936   0.32171

 Mulliken charges:
               1
     1  C   -0.298255
     2  C   -0.299673
     3  C   -0.475736
     4  H    0.149875
     5  H    0.149860
     6  H    0.151892
     7  H    0.151808
     8  H    0.155346
     9  H    0.155212
    10  H    0.160352
    11  C   -0.300204
    12  C   -0.299734
    13  C   -0.482237
    14  H    0.149742
    15  H    0.149660
    16  H    0.152272
    17  H    0.152219
    18  H    0.162372
    19  H    0.154728
    20  H    0.160814
    21  C   -0.298828
    22  C   -0.305468
    23  C   -0.476292
    24  H    0.150052
    25  H    0.150082
    26  H    0.155090
    27  H    0.152592
    28  H    0.155232
    29  H    0.156847
    30  H    0.160563
    31  C   -0.298945
    32  C   -0.299685
    33  C   -0.475774
    34  H    0.149303
    35  H    0.149762
    36  H    0.152280
    37  H    0.152089
    38  H    0.155135
    39  H    0.155235
    40  H    0.160417
 Sum of Mulliken charges =  -0.00000

 Dipole moment (field-independent basis, Debye):
    X=             -0.0099    Y=             -0.0103    Z=             -0.0007  Tot=              0.0143
 Quadrupole moment (field-independent basis, Debye-Ang):
   XX=            -84.2998   YY=            -86.3045   ZZ=            -83.9973
   XY=             -0.7917   XZ=              1.4059   YZ=              0.1956

 Normal termination of Gaussian 16 at Wed May  5 23:15:42 2021.
