 Gaussian 16, Revision A.03,
 Gaussian 16:  EM64L-G16RevA.03 25-Dec-2016

 -------------
 #p 6-31g* mp2
 -------------

 ------------------------------------------------------
 Input file generated by CHIRIPA (05-May-2021 14:55:22)
 ------------------------------------------------------
 Symbolic Z-matrix:
 Charge =  0 Multiplicity = 1

                         Standard orientation:
 ---------------------------------------------------------------------
 Center     Atomic      Atomic             Coordinates (Angstroms)
 Number     Number       Type             X           Y           Z
 ---------------------------------------------------------------------
      1          6           0       -4.118670   -1.639005   -0.187538
      2          6           0       -3.540200   -1.307182    1.042009
      3          6           0       -2.761288   -0.153508    1.171927
      4          6           0       -2.580717    0.649258    0.046648
      5          6           0       -3.143833    0.345520   -1.191872
      6          6           0       -3.918992   -0.813051   -1.298596
      7          1           0       -4.722289   -2.537109   -0.279453
      8          1           0       -3.693573   -1.946765    1.906564
      9          1           0       -2.301784    0.127083    2.111897
     10          1           0       -2.973038    1.002728   -2.035865
     11          1           0       -4.367016   -1.068264   -2.254727
     12          7           0       -1.758105    1.873194    0.171909
     13          8           0       -1.614140    2.563850   -0.834523
     14          8           0       -1.272883    2.118683    1.274148
     15          6           0        4.226907   -0.668938   -0.141095
     16          6           0        5.031119    0.623158    0.006262
     17          6           0        6.529985    0.414733   -0.212273
     18          1           0        4.603617   -1.411543    0.575545
     19          1           0        4.397724   -1.086691   -1.142943
     20          1           0        4.857750    1.039080    1.007044
     21          1           0        4.652326    1.362836   -0.710682
     22          1           0        6.722009    0.022051   -1.216031
     23          1           0        6.928602   -0.303544    0.511455
     24          1           0        7.085771    1.351139   -0.102248
     25          6           0        2.726806   -0.476761    0.074525
     26          6           0        1.922593   -1.768857   -0.072831
     27          6           0        0.423728   -1.560433    0.145703
     28          1           0        2.555988   -0.059008    1.076372
     29          1           0        2.350097    0.265843   -0.642115
     30          1           0        2.301387   -2.508536    0.644111
     31          1           0        2.095962   -2.184780   -1.073615
     32          1           0        0.025111   -0.842156   -0.578026
     33          1           0        0.231703   -1.167751    1.149460
     34          1           0       -0.132059   -2.496839    0.035677
 ---------------------------------------------------------------------

 SCF Done:  E(RHF) =  -669.534931226     A.U. after   15 cycles
 E2 =    -0.2092960098D+01 EUMP2 =    -0.67162789132469D+03

 The electronic state is 1-A.
 Alpha  occ. eigenvalues --  -20.60766 -20.60755 -15.85807 -11.31124 -11.27725
 Alpha  occ. eigenvalues --  -11.27711 -11.27474 -11.26743 -11.26734 -11.21372
 Alpha  occ. eigenvalues --  -11.21171 -11.21022 -11.20957 -11.20929 -11.20723
 Alpha  occ. eigenvalues --   -1.59833  -1.39389  -1.19329  -1.08730  -1.08078
 Alpha  occ. eigenvalues --   -1.04734  -1.03235  -0.95704  -0.95559  -0.86726
 Alpha  occ. eigenvalues --   -0.86131  -0.82403  -0.79305  -0.77867  -0.77450
 Alpha  occ. eigenvalues --   -0.72032  -0.71156  -0.70449  -0.64986  -0.64757
 Alpha  occ. eigenvalues --   -0.64698  -0.62090  -0.60638  -0.59061  -0.57313
 Alpha  occ. eigenvalues --   -0.55244  -0.54995  -0.53311  -0.52832  -0.52320
 Alpha  occ. eigenvalues --   -0.51962  -0.49646  -0.48789  -0.48787  -0.47612
 Alpha  occ. eigenvalues --   -0.46328  -0.45419  -0.45332  -0.44781  -0.43468
 Alpha  occ. eigenvalues --   -0.37258  -0.36294
 Alpha virt. eigenvalues --    0.05068   0.11272   0.16580   0.21345   0.23163
 Alpha virt. eigenvalues --    0.24433   0.26768   0.27184   0.27690   0.28113
 Alpha virt. eigenvalues --    0.28501   0.30836   0.31290   0.31887   0.32141

 Mulliken charges:
               1
     1  C   -0.170978
     2  C   -0.217784
     3  C   -0.167044
     4  C    0.161366
     5  C   -0.173007
     6  C   -0.217660
     7  H    0.225355
     8  H    0.223207
     9  H    0.274674
    10  H    0.275227
    11  H    0.223153
    12  N    0.489004
    13  O   -0.461286
    14  O   -0.460691
    15  C   -0.298200
    16  C   -0.299888
    17  C   -0.475619
    18  H    0.147604
    19  H    0.147819
    20  H    0.153668
    21  H    0.154679
    22  H    0.154031
    23  H    0.153776
    24  H    0.160403
    25  C   -0.299659
    26  C   -0.300226
    27  C   -0.474827
    28  H    0.153710
    29  H    0.154489
    30  H    0.149641
    31  H    0.150193
    32  H    0.154750
    33  H    0.154145
    34  H    0.155976
 Sum of Mulliken charges =  -0.00000

 Dipole moment (field-independent basis, Debye):
    X=             -2.9523    Y=             -4.2335    Z=             -0.4109  Tot=              5.1776
 Quadrupole moment (field-independent basis, Debye-Ang):
   XX=            -81.8587   YY=           -101.0717   ZZ=            -89.1912
   XY=              9.5653   XZ=              2.1775   YZ=             -1.8342

 Normal termination of Gaussian 16 at Thu May  6 12:34:38 2021.
