 Gaussian 16, Revision A.03,
 Gaussian 16:  EM64L-G16RevA.03 25-Dec-2016

 -------------
 #p 6-31g* mp2
 -------------

 ------------------------------------------------------
 Input file generated by CHIRIPA (05-May-2021 14:51:12)
 ------------------------------------------------------
 Symbolic Z-matrix:
 Charge =  0 Multiplicity = 1

                         Standard orientation:
 ---------------------------------------------------------------------
 Center     Atomic      Atomic             Coordinates (Angstroms)
 Number     Number       Type             X           Y           Z
 ---------------------------------------------------------------------
      1          6           0       -4.465767    0.053114   -0.086810
      2          6           0       -4.859346    1.530637   -0.084731
      3          6           0       -6.297666    1.759922   -0.549983
      4          1           0       -4.594090   -0.352538   -1.099690
      5          1           0       -5.155366   -0.503760    0.562605
      6          1           0       -4.168363    2.084782   -0.732868
      7          1           0       -4.729889    1.932867    0.928219
      8          1           0       -7.001974    1.232405    0.101382
      9          1           0       -6.437257    1.385183   -1.569142
     10          1           0       -6.557964    2.822946   -0.540757
     11          6           0       -3.030684   -0.192201    0.375882
     12          6           0       -2.637104   -1.669725    0.373803
     13          6           0       -1.198785   -1.899010    0.839054
     14          1           0       -2.341084    0.364673   -0.273533
     15          1           0       -2.902361    0.213450    1.388761
     16          1           0       -2.766561   -2.071955   -0.639147
     17          1           0       -3.328088   -2.223870    1.021939
     18          1           0       -1.059194   -1.524271    1.858214
     19          1           0       -0.494477   -1.371492    0.187689
     20          1           0       -0.938487   -2.962034    0.829828
     21          6           0        3.140483   -0.377667   -0.263207
     22          6           0        3.489330   -1.863708   -0.352488
     23          6           0        2.263081   -2.745555   -0.590082
     24          1           0        2.415216   -0.225897    0.547904
     25          1           0        2.640195   -0.069197   -1.191623
     26          1           0        3.990050   -2.168957    0.575261
     27          1           0        4.213994   -2.011931   -1.163357
     28          1           0        1.765183   -2.469213   -1.525140
     29          1           0        1.539965   -2.627131    0.223356
     30          1           0        2.535324   -3.803894   -0.650601
     31          6           0        4.355969    0.516754   -0.025864
     32          6           0        4.007120    2.002795    0.063416
     33          6           0        5.233370    2.884643    0.301011
     34          1           0        4.856256    0.208285    0.902550
     35          1           0        5.081233    0.364985   -0.836976
     36          1           0        3.282456    2.151018    0.874285
     37          1           0        3.506400    2.308045   -0.864334
     38          1           0        5.956484    2.766219   -0.512428
     39          1           0        5.731268    2.608301    1.236068
     40          1           0        4.961127    3.942981    0.361530
 ---------------------------------------------------------------------

 SCF Done:  E(RHF) =  -470.732496572     A.U. after   11 cycles
 E2 =    -0.1582902854D+01 EUMP2 =    -0.47231539942561D+03

 The electronic state is 1-A.
 Alpha  occ. eigenvalues --  -11.21594 -11.21585 -11.21575 -11.21530 -11.21393
 Alpha  occ. eigenvalues --  -11.21378 -11.21333 -11.21319 -11.21066 -11.21058
 Alpha  occ. eigenvalues --  -11.21016 -11.20895  -1.08421  -1.08390  -1.03541
 Alpha  occ. eigenvalues --   -1.03458  -0.96028  -0.95878  -0.87088  -0.86861
 Alpha  occ. eigenvalues --   -0.79693  -0.79450  -0.78258  -0.78178  -0.65062
 Alpha  occ. eigenvalues --   -0.65012  -0.60982  -0.60834  -0.59352  -0.59302
 Alpha  occ. eigenvalues --   -0.57589  -0.57547  -0.55359  -0.55138  -0.52821
 Alpha  occ. eigenvalues --   -0.52622  -0.52409  -0.52205  -0.50014  -0.49759
 Alpha  occ. eigenvalues --   -0.47996  -0.47758  -0.46681  -0.46495  -0.45849
 Alpha  occ. eigenvalues --   -0.45732  -0.45686  -0.45540  -0.43746  -0.43733
 Alpha virt. eigenvalues --    0.22348   0.22985   0.23625   0.24748   0.26282
 Alpha virt. eigenvalues --    0.26600   0.27053   0.27428   0.27895   0.29196
 Alpha virt. eigenvalues --    0.29921   0.31193   0.31620   0.31835   0.32167

 Mulliken charges:
               1
     1  C   -0.298293
     2  C   -0.299617
     3  C   -0.475694
     4  H    0.149641
     5  H    0.149506
     6  H    0.151934
     7  H    0.151883
     8  H    0.155167
     9  H    0.155168
    10  H    0.160221
    11  C   -0.298633
    12  C   -0.299903
    13  C   -0.480394
    14  H    0.149801
    15  H    0.149412
    16  H    0.152171
    17  H    0.151612
    18  H    0.153944
    19  H    0.160703
    20  H    0.161232
    21  C   -0.299721
    22  C   -0.299153
    23  C   -0.482784
    24  H    0.150967
    25  H    0.148637
    26  H    0.151548
    27  H    0.151249
    28  H    0.153334
    29  H    0.167196
    30  H    0.158901
    31  C   -0.298155
    32  C   -0.299646
    33  C   -0.475687
    34  H    0.149571
    35  H    0.149653
    36  H    0.152038
    37  H    0.151694
    38  H    0.155136
    39  H    0.155187
    40  H    0.160175
 Sum of Mulliken charges =  -0.00000

 Dipole moment (field-independent basis, Debye):
    X=             -0.0200    Y=             -0.0069    Z=              0.0168  Tot=              0.0270
 Quadrupole moment (field-independent basis, Debye-Ang):
   XX=            -86.5285   YY=            -85.5208   ZZ=            -82.9661
   XY=             -0.1769   XZ=             -0.8179   YZ=             -0.2566

 Normal termination of Gaussian 16 at Wed May  5 19:56:10 2021.
