 Gaussian 16, Revision A.03,
 Gaussian 16:  EM64L-G16RevA.03 25-Dec-2016

 -------------
 #p 6-31g* mp2
 -------------

 ------------------------------------------------------
 Input file generated by CHIRIPA (05-May-2021 14:57:23)
 ------------------------------------------------------
 Symbolic Z-matrix:
 Charge =  0 Multiplicity = 1

                         Standard orientation:
 ---------------------------------------------------------------------
 Center     Atomic      Atomic             Coordinates (Angstroms)
 Number     Number       Type             X           Y           Z
 ---------------------------------------------------------------------
      1          6           0       -5.627803   -0.458836   -1.089663
      2          6           0       -5.531080    0.497955   -0.073928
      3          6           0       -4.318805    0.708818    0.589754
      4          6           0       -3.218342   -0.058260    0.210462
      5          6           0       -3.282989   -1.019039   -0.797513
      6          6           0       -4.505427   -1.212949   -1.447583
      7          1           0       -6.573475   -0.616055   -1.599940
      8          1           0       -6.401086    1.085065    0.206135
      9          1           0       -4.215936    1.442911    1.379655
     10          1           0       -2.398388   -1.588964   -1.054584
     11          1           0       -4.577610   -1.956699   -2.236044
     12          7           0       -1.929580    0.155998    0.905867
     13          8           0       -0.974707   -0.532747    0.553044
     14          8           0       -1.898726    1.008621    1.790581
     15          6           0        4.004908   -2.302704    0.446481
     16          6           0        3.033833   -1.629020    1.194603
     17          6           0        2.707654   -0.301192    0.903009
     18          6           0        3.375237    0.325236   -0.148281
     19          6           0        4.347301   -0.319094   -0.911972
     20          6           0        4.657392   -1.646747   -0.602569
     21          1           0        4.252043   -3.334124    0.679916
     22          1           0        2.525487   -2.135936    2.009873
     23          1           0        1.959904    0.244067    1.466018
     24          1           0        4.836994    0.212656   -1.718731
     25          1           0        5.411963   -2.167451   -1.185264
     26          7           0        3.038442    1.730855   -0.466405
     27          8           0        3.640979    2.260425   -1.397610
     28          8           0        2.178302    2.276395    0.221477
 ---------------------------------------------------------------------

 SCF Done:  E(RHF) =  -868.339076898     A.U. after   16 cycles
 E2 =    -0.2599069824D+01 EUMP2 =    -0.87093814672194D+03

 The electronic state is 1-A.
 Alpha  occ. eigenvalues --  -20.60950 -20.60917 -20.59664 -20.59612 -15.85958
 Alpha  occ. eigenvalues --  -15.84690 -11.31232 -11.29961 -11.27804 -11.27775
 Alpha  occ. eigenvalues --  -11.27527 -11.26799 -11.26777 -11.26676 -11.26417
 Alpha  occ. eigenvalues --  -11.26385 -11.25690 -11.25505  -1.59986  -1.58723
 Alpha  occ. eigenvalues --   -1.39545  -1.38272  -1.19396  -1.18176  -1.08812
 Alpha  occ. eigenvalues --   -1.07615  -1.04788  -1.03554  -0.95664  -0.94442
 Alpha  occ. eigenvalues --   -0.86192  -0.84973  -0.82501  -0.81266  -0.77555
 Alpha  occ. eigenvalues --   -0.76294  -0.72196  -0.71280  -0.70915  -0.70511
 Alpha  occ. eigenvalues --   -0.70045  -0.69311  -0.65056  -0.64797  -0.63837
 Alpha  occ. eigenvalues --   -0.63582  -0.62138  -0.60878  -0.55301  -0.54143
 Alpha  occ. eigenvalues --   -0.53118  -0.52884  -0.51920  -0.51657  -0.48955
 Alpha  occ. eigenvalues --   -0.48929  -0.47692  -0.47649  -0.44966  -0.43697
 Alpha  occ. eigenvalues --   -0.37372  -0.36386  -0.36221  -0.35133
 Alpha virt. eigenvalues --    0.04983   0.06220   0.11271   0.12500   0.16494
 Alpha virt. eigenvalues --    0.17680   0.21399   0.22539   0.27312   0.28269
 Alpha virt. eigenvalues --    0.28490   0.29502   0.30962   0.32017   0.32515

 Mulliken charges:
               1
     1  C   -0.170390
     2  C   -0.218539
     3  C   -0.169952
     4  C    0.159028
     5  C   -0.170518
     6  C   -0.218495
     7  H    0.225882
     8  H    0.224129
     9  H    0.276884
    10  H    0.274475
    11  H    0.223206
    12  N    0.490743
    13  O   -0.468147
    14  O   -0.455997
    15  C   -0.171849
    16  C   -0.220316
    17  C   -0.159919
    18  C    0.153415
    19  C   -0.172448
    20  C   -0.220545
    21  H    0.220518
    22  H    0.223744
    23  H    0.291009
    24  H    0.271237
    25  H    0.217894
    26  N    0.487548
    27  O   -0.467920
    28  O   -0.454678
 Sum of Mulliken charges =  -0.00000

 Dipole moment (field-independent basis, Debye):
    X=             -3.8108    Y=             -5.5757    Z=             -1.1278  Tot=              6.8471
 Quadrupole moment (field-independent basis, Debye-Ang):
   XX=            -66.7777   YY=           -106.9503   ZZ=           -102.7385
   XY=            -15.4265   XZ=              7.0144   YZ=              3.6697

 Normal termination of Gaussian 16 at Fri May  7 00:16:22 2021.
