 Gaussian 16, Revision A.03,
 Gaussian 16:  EM64L-G16RevA.03 25-Dec-2016

 -------------
 #p 6-31g* mp2
 -------------

 ------------------------------------------------------
 Input file generated by CHIRIPA (05-May-2021 14:57:23)
 ------------------------------------------------------
 Symbolic Z-matrix:
 Charge =  0 Multiplicity = 1

                         Standard orientation:
 ---------------------------------------------------------------------
 Center     Atomic      Atomic             Coordinates (Angstroms)
 Number     Number       Type             X           Y           Z
 ---------------------------------------------------------------------
      1          6           0        2.499228   -2.362841   -0.547169
      2          6           0        2.858667   -1.529167   -1.611271
      3          6           0        3.027075   -0.155725   -1.411664
      4          6           0        2.827127    0.352676   -0.129151
      5          6           0        2.468622   -0.452028    0.951227
      6          6           0        2.305694   -1.822563    0.728435
      7          1           0        2.370534   -3.428634   -0.711234
      8          1           0        3.009628   -1.945989   -2.602994
      9          1           0        3.304999    0.512536   -2.217644
     10          1           0        2.325081   -0.007388    1.928524
     11          1           0        2.026513   -2.467609    1.556697
     12          7           0        3.002512    1.805139    0.094437
     13          8           0        2.820496    2.228447    1.233875
     14          8           0        3.318675    2.492769   -0.873986
     15          6           0       -1.157096   -1.052991    1.836210
     16          6           0       -2.047970   -0.045585    2.220915
     17          6           0       -2.961609    0.482487    1.303881
     18          6           0       -2.956879   -0.022446    0.004531
     19          6           0       -2.081854   -1.025705   -0.409099
     20          6           0       -1.176847   -1.538979    0.524742
     21          1           0       -0.450712   -1.457462    2.555112
     22          1           0       -2.034889    0.333758    3.238743
     23          1           0       -3.662388    1.262778    1.574936
     24          1           0       -2.118680   -1.383649   -1.430832
     25          1           0       -0.486145   -2.321303    0.223169
     26          7           0       -3.919539    0.528767   -0.975188
     27          8           0       -3.895291    0.066863   -2.113914
     28          8           0       -4.680093    1.412275   -0.585817
 ---------------------------------------------------------------------

 SCF Done:  E(RHF) =  -868.335066687     A.U. after   16 cycles
 E2 =    -0.2603367102D+01 EUMP2 =    -0.87093843378894D+03

 The electronic state is 1-A.
 Alpha  occ. eigenvalues --  -20.61331 -20.61314 -20.60845 -20.60834 -15.86387
 Alpha  occ. eigenvalues --  -15.85895 -11.31958 -11.31326 -11.28611 -11.28499
 Alpha  occ. eigenvalues --  -11.28369 -11.27879 -11.27848 -11.27730 -11.27722
 Alpha  occ. eigenvalues --  -11.27568 -11.26941 -11.26928  -1.60393  -1.59913
 Alpha  occ. eigenvalues --   -1.39942  -1.39466  -1.20173  -1.19499  -1.09546
 Alpha  occ. eigenvalues --   -1.08912  -1.05622  -1.04900  -0.96330  -0.95738
 Alpha  occ. eigenvalues --   -0.87030  -0.86308  -0.83172  -0.82555  -0.78173
 Alpha  occ. eigenvalues --   -0.77576  -0.72606  -0.72118  -0.71714  -0.71294
 Alpha  occ. eigenvalues --   -0.71233  -0.70692  -0.65836  -0.65694  -0.65158
 Alpha  occ. eigenvalues --   -0.64927  -0.62950  -0.62267  -0.56125  -0.55506
 Alpha  occ. eigenvalues --   -0.54132  -0.53717  -0.53153  -0.52869  -0.49379
 Alpha  occ. eigenvalues --   -0.49344  -0.48881  -0.48865  -0.45303  -0.44857
 Alpha  occ. eigenvalues --   -0.38196  -0.37938  -0.36905  -0.36268
 Alpha virt. eigenvalues --    0.04255   0.05018   0.10261   0.11210   0.15654
 Alpha virt. eigenvalues --    0.16459   0.18908   0.22184   0.25109   0.26375
 Alpha virt. eigenvalues --    0.28089   0.29181   0.30123   0.31411   0.32235

 Mulliken charges:
               1
     1  C   -0.176692
     2  C   -0.217699
     3  C   -0.168822
     4  C    0.160336
     5  C   -0.163685
     6  C   -0.225296
     7  H    0.226341
     8  H    0.227419
     9  H    0.279799
    10  H    0.273642
    11  H    0.217890
    12  N    0.488271
    13  O   -0.460063
    14  O   -0.456425
    15  C   -0.173321
    16  C   -0.216359
    17  C   -0.170185
    18  C    0.159810
    19  C   -0.173660
    20  C   -0.209013
    21  H    0.215104
    22  H    0.225164
    23  H    0.277367
    24  H    0.273894
    25  H    0.217681
    26  N    0.488156
    27  O   -0.461081
    28  O   -0.458572
 Sum of Mulliken charges =  -0.00000

 Dipole moment (field-independent basis, Debye):
    X=              2.8895    Y=             -6.7862    Z=              2.4948  Tot=              7.7862
 Quadrupole moment (field-independent basis, Debye-Ang):
   XX=           -128.2739   YY=           -107.7760   ZZ=            -97.7805
   XY=            -10.1384   XZ=            -15.6152   YZ=              2.4131

 Normal termination of Gaussian 16 at Thu May  6 03:23:33 2021.
