 Gaussian 16, Revision A.03,
 Gaussian 16:  EM64L-G16RevA.03 25-Dec-2016

 -------------
 #p 6-31g* mp2
 -------------

 ------------------------------------------------------
 Input file generated by CHIRIPA (05-May-2021 14:51:08)
 ------------------------------------------------------
 Symbolic Z-matrix:
 Charge =  0 Multiplicity = 1

                         Standard orientation:
 ---------------------------------------------------------------------
 Center     Atomic      Atomic             Coordinates (Angstroms)
 Number     Number       Type             X           Y           Z
 ---------------------------------------------------------------------
      1          6           0        3.147486    0.160313    0.173302
      2          6           0        4.436187   -0.097660   -0.608162
      3          6           0        5.058398   -1.457555   -0.289836
      4          1           0        3.359430    0.095303    1.249312
      5          1           0        2.424823   -0.636283   -0.051615
      6          1           0        5.155708    0.699940   -0.382904
      7          1           0        4.221190   -0.031839   -1.682434
      8          1           0        4.361210   -2.266290   -0.531654
      9          1           0        5.301037   -1.530354    0.775260
     10          1           0        5.978560   -1.621241   -0.859369
     11          6           0        2.513594    1.515814   -0.134150
     12          6           0        1.224894    1.773786    0.647314
     13          6           0        0.602682    3.133681    0.328987
     14          1           0        3.236258    2.312409    0.090767
     15          1           0        2.301650    1.580823   -1.210161
     16          1           0        1.439891    1.707965    1.721585
     17          1           0        0.505373    0.976187    0.422056
     18          1           0        0.360044    3.206481   -0.736108
     19          1           0        1.299871    3.942417    0.570805
     20          1           0       -0.317480    3.297368    0.898521
     21          6           0       -2.079736   -0.969619   -0.068745
     22          6           0       -1.675613   -2.363640    0.412269
     23          6           0       -0.170527   -2.611801    0.307735
     24          1           0       -1.756871   -0.840376   -1.110857
     25          1           0       -1.540956   -0.215283    0.521246
     26          1           0       -2.216039   -3.115104   -0.177525
     27          1           0       -1.999647   -2.489649    1.453297
     28          1           0        0.382651   -1.884195    0.910383
     29          1           0        0.165029   -2.513203   -0.729704
     30          1           0        0.096276   -3.614219    0.656783
     31          6           0       -3.581344   -0.706507    0.029593
     32          6           0       -3.985468    0.687514   -0.451420
     33          6           0       -5.490554    0.935673   -0.346887
     34          1           0       -4.120125   -1.460843   -0.560397
     35          1           0       -3.904211   -0.835750    1.071706
     36          1           0       -3.661434    0.813522   -1.492448
     37          1           0       -3.445041    1.438977    0.138373
     38          1           0       -5.826111    0.837077    0.690553
     39          1           0       -6.043732    0.208067   -0.949535
     40          1           0       -5.757356    1.938092   -0.695934
 ---------------------------------------------------------------------

 SCF Done:  E(RHF) =  -470.732893716     A.U. after   11 cycles
 E2 =    -0.1584067648D+01 EUMP2 =    -0.47231696136340D+03

 The electronic state is 1-A.
 Alpha  occ. eigenvalues --  -11.21648 -11.21622 -11.21544 -11.21534 -11.21440
 Alpha  occ. eigenvalues --  -11.21380 -11.21336 -11.21262 -11.21115 -11.21085
 Alpha  occ. eigenvalues --  -11.21053 -11.21015  -1.08480  -1.08366  -1.03569
 Alpha  occ. eigenvalues --   -1.03481  -0.96028  -0.95922  -0.87049  -0.86937
 Alpha  occ. eigenvalues --   -0.79656  -0.79548  -0.78391  -0.78085  -0.65172
 Alpha  occ. eigenvalues --   -0.64947  -0.60991  -0.60861  -0.59397  -0.59291
 Alpha  occ. eigenvalues --   -0.57708  -0.57484  -0.55341  -0.55185  -0.52711
 Alpha  occ. eigenvalues --   -0.52640  -0.52513  -0.52292  -0.50001  -0.49828
 Alpha  occ. eigenvalues --   -0.48063  -0.47867  -0.46838  -0.46565  -0.46100
 Alpha  occ. eigenvalues --   -0.45773  -0.45700  -0.45032  -0.43821  -0.43726
 Alpha virt. eigenvalues --    0.21236   0.22835   0.23806   0.23937   0.25739
 Alpha virt. eigenvalues --    0.26502   0.26805   0.27241   0.28637   0.29910
 Alpha virt. eigenvalues --    0.30330   0.31535   0.31673   0.31865   0.32044

 Mulliken charges:
               1
     1  C   -0.305265
     2  C   -0.299259
     3  C   -0.475789
     4  H    0.148589
     5  H    0.157854
     6  H    0.151610
     7  H    0.151546
     8  H    0.155716
     9  H    0.154974
    10  H    0.159896
    11  C   -0.296978
    12  C   -0.310095
    13  C   -0.475202
    14  H    0.149130
    15  H    0.149252
    16  H    0.150737
    17  H    0.161827
    18  H    0.155525
    19  H    0.155233
    20  H    0.159255
    21  C   -0.305448
    22  C   -0.299359
    23  C   -0.481184
    24  H    0.148853
    25  H    0.156953
    26  H    0.152044
    27  H    0.152126
    28  H    0.161140
    29  H    0.154344
    30  H    0.160840
    31  C   -0.297541
    32  C   -0.299841
    33  C   -0.475757
    34  H    0.149645
    35  H    0.149705
    36  H    0.151876
    37  H    0.152200
    38  H    0.155207
    39  H    0.155198
    40  H    0.160445
 Sum of Mulliken charges =  -0.00000

 Dipole moment (field-independent basis, Debye):
    X=             -0.0401    Y=             -0.0327    Z=              0.0032  Tot=              0.0519
 Quadrupole moment (field-independent basis, Debye-Ang):
   XX=            -86.0666   YY=            -85.5330   ZZ=            -83.3169
   XY=              1.1137   XZ=              0.4542   YZ=              0.7301

 Normal termination of Gaussian 16 at Thu May  6 05:15:49 2021.
