 Gaussian 16, Revision A.03,
 Gaussian 16:  EM64L-G16RevA.03 25-Dec-2016

 -------------
 #p 6-31g* mp2
 -------------

 ------------------------------------------------------
 Input file generated by CHIRIPA (05-May-2021 14:51:08)
 ------------------------------------------------------
 Symbolic Z-matrix:
 Charge =  0 Multiplicity = 1

                         Standard orientation:
 ---------------------------------------------------------------------
 Center     Atomic      Atomic             Coordinates (Angstroms)
 Number     Number       Type             X           Y           Z
 ---------------------------------------------------------------------
      1          6           0       -3.442044   -0.430791    0.030946
      2          6           0       -4.850050   -0.935072   -0.287180
      3          6           0       -5.347968   -1.972446    0.719660
      4          1           0       -2.750196   -1.283903    0.053084
      5          1           0       -3.435016    0.003615    1.040221
      6          1           0       -4.854744   -1.367148   -1.296092
      7          1           0       -5.538592   -0.080636   -0.308753
      8          1           0       -5.371920   -1.549099    1.729019
      9          1           0       -4.684187   -2.842921    0.736070
     10          1           0       -6.356337   -2.319332    0.473243
     11          6           0       -2.930372    0.606827   -0.966687
     12          6           0       -1.522366    1.111108   -0.648561
     13          6           0       -1.024447    2.148482   -1.655402
     14          1           0       -2.937399    0.172421   -1.975963
     15          1           0       -3.622220    1.459939   -0.988825
     16          1           0       -0.833824    0.256672   -0.626989
     17          1           0       -1.517672    1.543184    0.360351
     18          1           0       -1.688229    3.018957   -1.671811
     19          1           0       -1.000495    1.725135   -2.664760
     20          1           0       -0.016078    2.495368   -1.408985
     21          6           0        3.657868   -0.113780   -0.132383
     22          6           0        4.530330   -1.369073   -0.164560
     23          6           0        5.468561   -1.406118   -1.371267
     24          1           0        3.068974   -0.060434   -1.058289
     25          1           0        4.305211    0.774047   -0.122084
     26          1           0        3.881546   -2.254294   -0.173397
     27          1           0        5.117074   -1.419537    0.761616
     28          1           0        6.139468   -0.540996   -1.364306
     29          1           0        4.896921   -1.380496   -2.304633
     30          1           0        6.082934   -2.311874   -1.374463
     31          6           0        2.714547   -0.062257    1.068124
     32          6           0        1.842086    1.193037    1.100301
     33          6           0        0.903854    1.230081    2.307009
     34          1           0        2.067204   -0.950084    1.057825
     35          1           0        3.303441   -0.115602    1.994031
     36          1           0        1.255341    1.243501    0.174125
     37          1           0        2.490870    2.078259    1.109139
     38          1           0        1.475495    1.204460    3.240374
     39          1           0        0.232947    0.364960    2.300048
     40          1           0        0.289481    2.135838    2.310204
 ---------------------------------------------------------------------

 SCF Done:  E(RHF) =  -470.732055715     A.U. after   11 cycles
 E2 =    -0.1584375417D+01 EUMP2 =    -0.47231643113270D+03

 The electronic state is 1-A.
 Alpha  occ. eigenvalues --  -11.21620 -11.21598 -11.21594 -11.21476 -11.21426
 Alpha  occ. eigenvalues --  -11.21381 -11.21366 -11.21317 -11.21090 -11.21086
 Alpha  occ. eigenvalues --  -11.21066 -11.21007  -1.08484  -1.08375  -1.03636
 Alpha  occ. eigenvalues --   -1.03423  -0.96041  -0.95921  -0.87043  -0.86946
 Alpha  occ. eigenvalues --   -0.79644  -0.79556  -0.78326  -0.78172  -0.65122
 Alpha  occ. eigenvalues --   -0.65024  -0.61051  -0.60944  -0.59529  -0.59138
 Alpha  occ. eigenvalues --   -0.57775  -0.57355  -0.55295  -0.55214  -0.52729
 Alpha  occ. eigenvalues --   -0.52625  -0.52471  -0.52353  -0.49990  -0.49852
 Alpha  occ. eigenvalues --   -0.47930  -0.47862  -0.46767  -0.46462  -0.45886
 Alpha  occ. eigenvalues --   -0.45731  -0.45709  -0.45539  -0.43814  -0.43742
 Alpha virt. eigenvalues --    0.21078   0.23157   0.23538   0.24811   0.25799
 Alpha virt. eigenvalues --    0.26451   0.26588   0.27664   0.28520   0.29262
 Alpha virt. eigenvalues --    0.30591   0.30975   0.31568   0.31884   0.32329

 Mulliken charges:
               1
     1  C   -0.298541
     2  C   -0.299629
     3  C   -0.475736
     4  H    0.149063
     5  H    0.149881
     6  H    0.151938
     7  H    0.152068
     8  H    0.155324
     9  H    0.155092
    10  H    0.160336
    11  C   -0.297436
    12  C   -0.304903
    13  C   -0.480763
    14  H    0.149285
    15  H    0.149665
    16  H    0.151202
    17  H    0.158475
    18  H    0.155817
    19  H    0.155107
    20  H    0.163844
    21  C   -0.298304
    22  C   -0.299567
    23  C   -0.475694
    24  H    0.149154
    25  H    0.149552
    26  H    0.151699
    27  H    0.152024
    28  H    0.155216
    29  H    0.155097
    30  H    0.160198
    31  C   -0.297905
    32  C   -0.310183
    33  C   -0.475574
    34  H    0.148901
    35  H    0.149529
    36  H    0.164902
    37  H    0.150877
    38  H    0.154635
    39  H    0.156286
    40  H    0.159069
 Sum of Mulliken charges =  -0.00000

 Dipole moment (field-independent basis, Debye):
    X=             -0.0340    Y=              0.0153    Z=             -0.0043  Tot=              0.0375
 Quadrupole moment (field-independent basis, Debye-Ang):
   XX=            -84.9857   YY=            -84.5984   ZZ=            -85.3324
   XY=             -0.2457   XZ=              1.0081   YZ=              1.0335

 Normal termination of Gaussian 16 at Wed May  5 15:03:50 2021.
