 Gaussian 16, Revision A.03,
 Gaussian 16:  EM64L-G16RevA.03 25-Dec-2016

 -------------
 #p 6-31g* mp2
 -------------

 ------------------------------------------------------
 Input file generated by CHIRIPA (05-May-2021 14:55:21)
 ------------------------------------------------------
 Symbolic Z-matrix:
 Charge =  0 Multiplicity = 1

                         Standard orientation:
 ---------------------------------------------------------------------
 Center     Atomic      Atomic             Coordinates (Angstroms)
 Number     Number       Type             X           Y           Z
 ---------------------------------------------------------------------
      1          6           0        0.931823   -1.838554    1.376324
      2          6           0        1.132548   -0.589780    1.973646
      3          6           0        1.884571    0.394612    1.325586
      4          6           0        2.423734    0.094911    0.075477
      5          6           0        2.241474   -1.139729   -0.545599
      6          6           0        1.485950   -2.109066    0.120821
      7          1           0        0.346273   -2.597405    1.886884
      8          1           0        0.703401   -0.376905    2.948614
      9          1           0        2.055608    1.369793    1.765116
     10          1           0        2.681867   -1.322518   -1.518256
     11          1           0        1.331703   -3.077997   -0.345467
     12          7           0        3.221721    1.129074   -0.620314
     13          8           0        3.686088    0.840202   -1.721020
     14          8           0        3.367706    2.208940   -0.051794
     15          6           0       -3.281302    0.745343   -0.448517
     16          6           0       -2.967684    1.920344    0.478307
     17          6           0       -3.669708    3.210962    0.054914
     18          1           0       -2.985171    1.006141   -1.473815
     19          1           0       -4.367895    0.583162   -0.468686
     20          1           0       -1.881892    2.079379    0.497801
     21          1           0       -3.264420    1.656645    1.501549
     22          1           0       -4.756148    3.075883    0.053383
     23          1           0       -3.365765    3.501019   -0.956070
     24          1           0       -3.431607    4.037929    0.731147
     25          6           0       -2.586772   -0.551983   -0.038271
     26          6           0       -2.900390   -1.726984   -0.965094
     27          6           0       -2.198366   -3.017602   -0.541702
     28          1           0       -1.500179   -0.389801   -0.018102
     29          1           0       -2.882903   -0.812781    0.987027
     30          1           0       -2.603654   -1.463285   -1.988338
     31          1           0       -3.986181   -1.886019   -0.984588
     32          1           0       -2.502309   -3.307658    0.469281
     33          1           0       -1.111925   -2.882522   -0.540172
     34          1           0       -2.436467   -3.844569   -1.217935
 ---------------------------------------------------------------------

 SCF Done:  E(RHF) =  -669.534399007     A.U. after   15 cycles
 E2 =    -0.2094165238D+01 EUMP2 =    -0.67162856424454D+03

 The electronic state is 1-A.
 Alpha  occ. eigenvalues --  -20.60836 -20.60831 -15.85892 -11.31279 -11.27862
 Alpha  occ. eigenvalues --  -11.27856 -11.27566 -11.26846 -11.26836 -11.22069
 Alpha  occ. eigenvalues --  -11.21831 -11.21755 -11.21695 -11.21608 -11.21196
 Alpha  occ. eigenvalues --   -1.59913  -1.39465  -1.19467  -1.08881  -1.08730
 Alpha  occ. eigenvalues --   -1.04872  -1.03899  -0.96364  -0.95673  -0.87398
 Alpha  occ. eigenvalues --   -0.86257  -0.82503  -0.79981  -0.78568  -0.77553
 Alpha  occ. eigenvalues --   -0.72109  -0.71238  -0.70547  -0.65417  -0.65107
 Alpha  occ. eigenvalues --   -0.64876  -0.62239  -0.61286  -0.59736  -0.57965
 Alpha  occ. eigenvalues --   -0.55671  -0.55331  -0.53289  -0.53063  -0.52965
 Alpha  occ. eigenvalues --   -0.52756  -0.50308  -0.48868  -0.48863  -0.48283
 Alpha  occ. eigenvalues --   -0.46989  -0.46112  -0.45974  -0.44867  -0.44127
 Alpha  occ. eigenvalues --   -0.37323  -0.36451
 Alpha virt. eigenvalues --    0.04969   0.11013   0.16415   0.20789   0.22741
 Alpha virt. eigenvalues --    0.24093   0.26041   0.26382   0.27122   0.27706
 Alpha virt. eigenvalues --    0.29191   0.30095   0.31328   0.31728   0.31941

 Mulliken charges:
               1
     1  C   -0.166145
     2  C   -0.218080
     3  C   -0.171479
     4  C    0.157863
     5  C   -0.172625
     6  C   -0.221202
     7  H    0.228602
     8  H    0.224497
     9  H    0.276166
    10  H    0.276126
    11  H    0.225457
    12  N    0.488109
    13  O   -0.460212
    14  O   -0.460214
    15  C   -0.298396
    16  C   -0.300004
    17  C   -0.475844
    18  H    0.152079
    19  H    0.149337
    20  H    0.152771
    21  H    0.148715
    22  H    0.154909
    23  H    0.157732
    24  H    0.160982
    25  C   -0.304196
    26  C   -0.297811
    27  C   -0.482756
    28  H    0.158849
    29  H    0.143527
    30  H    0.154272
    31  H    0.153164
    32  H    0.150356
    33  H    0.154014
    34  H    0.161436
 Sum of Mulliken charges =  -0.00000

 Dipole moment (field-independent basis, Debye):
    X=             -2.7480    Y=             -3.5682    Z=              2.4403  Tot=              5.1224
 Quadrupole moment (field-independent basis, Debye-Ang):
   XX=           -108.8302   YY=            -95.0098   ZZ=            -91.3329
   XY=             -9.3306   XZ=              4.7804   YZ=              2.6568

 Normal termination of Gaussian 16 at Wed May  5 23:51:26 2021.
