 Gaussian 16, Revision A.03,
 Gaussian 16:  EM64L-G16RevA.03 25-Dec-2016

 -------------
 #p 6-31g* mp2
 -------------

 ------------------------------------------------------
 Input file generated by CHIRIPA (05-May-2021 14:57:25)
 ------------------------------------------------------
 Symbolic Z-matrix:
 Charge =  0 Multiplicity = 1

                         Standard orientation:
 ---------------------------------------------------------------------
 Center     Atomic      Atomic             Coordinates (Angstroms)
 Number     Number       Type             X           Y           Z
 ---------------------------------------------------------------------
      1          6           0        4.589033    2.359319    0.683472
      2          6           0        5.411729    1.231165    0.766902
      3          6           0        4.945688   -0.019732    0.351439
      4          6           0        3.645803   -0.106635   -0.144581
      5          6           0        2.802022    0.998889   -0.240191
      6          6           0        3.289097    2.239791    0.181078
      7          1           0        4.959235    3.327164    1.008469
      8          1           0        6.421714    1.321015    1.156650
      9          1           0        5.561320   -0.909421    0.405010
     10          1           0        1.799826    0.877955   -0.633123
     11          1           0        2.647951    3.114221    0.115130
     12          7           0        3.141292   -1.425614   -0.587486
     13          8           0        1.992202   -1.475694   -1.020755
     14          8           0        3.904499   -2.384374   -0.492981
     15          6           0       -2.220732   -2.043527    0.667873
     16          6           0       -1.996285   -1.316741   -0.505978
     17          6           0       -2.825596   -0.243928   -0.846365
     18          6           0       -3.874761    0.076106    0.013938
     19          6           0       -4.124110   -0.628822    1.190455
     20          6           0       -3.282057   -1.697857    1.510857
     21          1           0       -1.571553   -2.875447    0.924531
     22          1           0       -1.172809   -1.582940   -1.162539
     23          1           0       -2.674537    0.335656   -1.748961
     24          1           0       -4.953041   -0.339716    1.825050
     25          1           0       -3.458745   -2.260515    2.423131
     26          7           0       -4.759461    1.209846   -0.335836
     27          8           0       -5.676980    1.471749    0.438891
     28          8           0       -4.518617    1.815099   -1.378092
 ---------------------------------------------------------------------

 SCF Done:  E(RHF) =  -868.340113723     A.U. after   16 cycles
 E2 =    -0.2598271981D+01 EUMP2 =    -0.87093838570381D+03

 The electronic state is 1-A.
 Alpha  occ. eigenvalues --  -20.61608 -20.61553 -20.60485 -20.60479 -15.86628
 Alpha  occ. eigenvalues --  -15.85529 -11.31725 -11.30734 -11.28266 -11.28253
 Alpha  occ. eigenvalues --  -11.27939 -11.27287 -11.27220 -11.27212 -11.27194
 Alpha  occ. eigenvalues --  -11.26865 -11.26265 -11.26042  -1.60648  -1.59565
 Alpha  occ. eigenvalues --   -1.40213  -1.39122  -1.19869  -1.18861  -1.09310
 Alpha  occ. eigenvalues --   -1.08264  -1.05231  -1.04224  -0.96192  -0.95139
 Alpha  occ. eigenvalues --   -0.86641  -0.85608  -0.83038  -0.81970  -0.78116
 Alpha  occ. eigenvalues --   -0.77056  -0.72867  -0.71955  -0.71748  -0.70972
 Alpha  occ. eigenvalues --   -0.70888  -0.69927  -0.65527  -0.65225  -0.64490
 Alpha  occ. eigenvalues --   -0.64160  -0.62583  -0.61555  -0.55734  -0.54666
 Alpha  occ. eigenvalues --   -0.53575  -0.53316  -0.52585  -0.52267  -0.49622
 Alpha  occ. eigenvalues --   -0.49575  -0.48517  -0.48487  -0.45676  -0.44565
 Alpha  occ. eigenvalues --   -0.37830  -0.36823  -0.36812  -0.35842
 Alpha virt. eigenvalues --    0.04400   0.05441   0.10835   0.11816   0.15951
 Alpha virt. eigenvalues --    0.16990   0.20917   0.22129   0.26799   0.27355
 Alpha virt. eigenvalues --    0.28457   0.28937   0.30557   0.31501   0.32386

 Mulliken charges:
               1
     1  C   -0.169970
     2  C   -0.218518
     3  C   -0.170793
     4  C    0.157648
     5  C   -0.170070
     6  C   -0.218482
     7  H    0.228091
     8  H    0.225119
     9  H    0.275976
    10  H    0.273306
    11  H    0.226972
    12  N    0.492137
    13  O   -0.473241
    14  O   -0.457075
    15  C   -0.172755
    16  C   -0.224872
    17  C   -0.176151
    18  C    0.158129
    19  C   -0.173046
    20  C   -0.219130
    21  H    0.231063
    22  H    0.244551
    23  H    0.272960
    24  H    0.273201
    25  H    0.221684
    26  N    0.488008
    27  O   -0.462047
    28  O   -0.462694
 Sum of Mulliken charges =  -0.00000

 Dipole moment (field-independent basis, Debye):
    X=              5.2950    Y=              0.6128    Z=              2.8114  Tot=              6.0263
 Quadrupole moment (field-independent basis, Debye-Ang):
   XX=           -111.6729   YY=           -106.1497   ZZ=           -102.6222
   XY=             31.6674   XZ=             -0.2900   YZ=             -2.0107

 Normal termination of Gaussian 16 at Thu May  6 00:23:13 2021.
