 Gaussian 16, Revision A.03,
 Gaussian 16:  EM64L-G16RevA.03 25-Dec-2016

 -------------
 #p 6-31g* mp2
 -------------

 ------------------------------------------------------
 Input file generated by CHIRIPA (05-May-2021 14:53:11)
 ------------------------------------------------------
 Symbolic Z-matrix:
 Charge =  0 Multiplicity = 1

                         Standard orientation:
 ---------------------------------------------------------------------
 Center     Atomic      Atomic             Coordinates (Angstroms)
 Number     Number       Type             X           Y           Z
 ---------------------------------------------------------------------
      1          6           0       -2.992699   -0.524628    0.797792
      2          6           0       -1.841528    0.041927    1.629540
      3          6           0       -0.916213   -1.045537    2.176356
      4          1           0       -3.572205   -1.225117    1.414584
      5          1           0       -2.580230   -1.109686   -0.035858
      6          1           0       -2.256035    0.626890    2.460575
      7          1           0       -1.264809    0.741294    1.010754
      8          1           0       -0.475357   -1.623657    1.357805
      9          1           0       -1.472215   -1.738712    2.815865
     10          1           0       -0.100386   -0.618405    2.767832
     11          6           0       -3.926434    0.550283    0.244229
     12          6           0       -5.077605   -0.016273   -0.587520
     13          6           0       -6.002920    1.071192   -1.134335
     14          1           0       -4.338903    1.135341    1.077879
     15          1           0       -3.346928    1.250772   -0.372564
     16          1           0       -5.654324   -0.715640    0.031267
     17          1           0       -4.663098   -0.601235   -1.418555
     18          1           0       -5.446918    1.764367   -1.773844
     19          1           0       -6.443776    1.649312   -0.315785
     20          1           0       -6.818747    0.644059   -1.725811
     21          6           0        4.612784    1.441391    0.374774
     22          6           0        3.373626    2.016770    0.074859
     23          6           0        2.308297    1.222255   -0.359154
     24          6           0        2.518135   -0.150339   -0.482623
     25          6           0        3.740854   -0.753241   -0.191490
     26          6           0        4.792126    0.060657    0.240878
     27          1           0        5.434897    2.066118    0.711288
     28          1           0        3.231465    3.088783    0.177926
     29          1           0        1.338495    1.641541   -0.598116
     30          1           0        3.852204   -1.824866   -0.303916
     31          1           0        5.753374   -0.388931    0.473085
     32          7           0        1.397759   -1.001716   -0.941222
     33          8           0        1.608260   -2.208449   -1.041822
     34          8           0        0.330321   -0.446171   -1.191390
 ---------------------------------------------------------------------

 SCF Done:  E(RHF) =  -669.536448035     A.U. after   15 cycles
 E2 =    -0.2092753551D+01 EUMP2 =    -0.67162920158545D+03

 The electronic state is 1-A.
 Alpha  occ. eigenvalues --  -20.61058 -20.61053 -15.86057 -11.31329 -11.27889
 Alpha  occ. eigenvalues --  -11.27880 -11.27615 -11.26881 -11.26872 -11.20808
 Alpha  occ. eigenvalues --  -11.20635 -11.20495 -11.20452 -11.20211 -11.20171
 Alpha  occ. eigenvalues --   -1.60108  -1.39664  -1.19491  -1.08907  -1.07476
 Alpha  occ. eigenvalues --   -1.04880  -1.02668  -0.95759  -0.95131  -0.86283
 Alpha  occ. eigenvalues --   -0.86153  -0.82599  -0.78753  -0.77662  -0.77280
 Alpha  occ. eigenvalues --   -0.72298  -0.71447  -0.70603  -0.65156  -0.64884
 Alpha  occ. eigenvalues --   -0.64056  -0.62231  -0.60031  -0.58517  -0.56754
 Alpha  occ. eigenvalues --   -0.55390  -0.54395  -0.53209  -0.52973  -0.51878
 Alpha  occ. eigenvalues --   -0.51560  -0.49130  -0.49050  -0.48996  -0.47077
 Alpha  occ. eigenvalues --   -0.45759  -0.45125  -0.44766  -0.44669  -0.42906
 Alpha  occ. eigenvalues --   -0.37463  -0.36475
 Alpha virt. eigenvalues --    0.04814   0.11151   0.16292   0.21087   0.23749
 Alpha virt. eigenvalues --    0.24895   0.26534   0.27489   0.28256   0.28686
 Alpha virt. eigenvalues --    0.28829   0.30641   0.31646   0.32389   0.32608

 Mulliken charges:
               1
     1  C   -0.301901
     2  C   -0.295030
     3  C   -0.483650
     4  H    0.144175
     5  H    0.169129
     6  H    0.143732
     7  H    0.152528
     8  H    0.168525
     9  H    0.152861
    10  H    0.150780
    11  C   -0.297581
    12  C   -0.299764
    13  C   -0.475152
    14  H    0.144065
    15  H    0.149856
    16  H    0.149921
    17  H    0.156060
    18  H    0.154189
    19  H    0.152605
    20  H    0.158425
    21  C   -0.170316
    22  C   -0.218751
    23  C   -0.170792
    24  C    0.158969
    25  C   -0.170471
    26  C   -0.218641
    27  H    0.226190
    28  H    0.224117
    29  H    0.276250
    30  H    0.275986
    31  H    0.224000
    32  N    0.488583
    33  O   -0.458555
    34  O   -0.460343
 Sum of Mulliken charges =  -0.00000

 Dipole moment (field-independent basis, Debye):
    X=              4.2042    Y=              2.8880    Z=              1.3992  Tot=              5.2890
 Quadrupole moment (field-independent basis, Debye-Ang):
   XX=            -74.4159   YY=            -92.9935   ZZ=            -97.2986
   XY=              5.3080   XZ=              2.0245   YZ=             -1.6616

 Normal termination of Gaussian 16 at Thu May  6 04:02:42 2021.
