 Gaussian 16, Revision A.03,
 Gaussian 16:  EM64L-G16RevA.03 25-Dec-2016

 -------------
 #p 6-31g* mp2
 -------------

 ------------------------------------------------------
 Input file generated by CHIRIPA (05-May-2021 14:53:18)
 ------------------------------------------------------
 Symbolic Z-matrix:
 Charge =  0 Multiplicity = 1

                         Standard orientation:
 ---------------------------------------------------------------------
 Center     Atomic      Atomic             Coordinates (Angstroms)
 Number     Number       Type             X           Y           Z
 ---------------------------------------------------------------------
      1          6           0       -3.391652    1.228151    0.357312
      2          6           0       -2.001973    1.845477    0.197044
      3          6           0       -1.897424    3.236734    0.822559
      4          1           0       -4.136589    1.894021   -0.099449
      5          1           0       -3.638289    1.169951    1.426507
      6          1           0       -1.757458    1.901222   -0.871469
      7          1           0       -1.260236    1.177968    0.654072
      8          1           0       -2.115440    3.194493    1.894606
      9          1           0       -2.615487    3.921857    0.360398
     10          1           0       -0.895756    3.659368    0.696453
     11          6           0       -3.511884   -0.162743   -0.262919
     12          6           0       -4.901563   -0.780069   -0.102651
     13          6           0       -5.006112   -2.171325   -0.728165
     14          1           0       -3.265246   -0.104543   -1.332113
     15          1           0       -2.766947   -0.828613    0.193843
     16          1           0       -5.643300   -0.112559   -0.559678
     17          1           0       -5.146078   -0.835813    0.965863
     18          1           0       -4.288049   -2.856448   -0.266004
     19          1           0       -4.788096   -2.129085   -1.800213
     20          1           0       -6.007780   -2.593959   -0.602059
     21          6           0        3.881183    1.731152   -0.630079
     22          6           0        4.619237    0.611108   -0.233470
     23          6           0        3.973499   -0.583889    0.097516
     24          6           0        2.582182   -0.623771    0.020477
     25          6           0        1.819004    0.475085   -0.371143
     26          6           0        2.485882    1.659691   -0.697531
     27          1           0        4.391018    2.655419   -0.885411
     28          1           0        5.702952    0.663709   -0.180176
     29          1           0        4.520315   -1.466053    0.407673
     30          1           0        0.739819    0.392131   -0.414684
     31          1           0        1.910125    2.527953   -1.005216
     32          7           0        1.887378   -1.883361    0.368443
     33          8           0        0.660684   -1.892731    0.292477
     34          8           0        2.582642   -2.837408    0.710554
 ---------------------------------------------------------------------

 SCF Done:  E(RHF) =  -669.535900716     A.U. after   15 cycles
 E2 =    -0.2091754960D+01 EUMP2 =    -0.67162765567622D+03

 The electronic state is 1-A.
 Alpha  occ. eigenvalues --  -20.60795 -20.60789 -15.85842 -11.31155 -11.27740
 Alpha  occ. eigenvalues --  -11.27670 -11.27481 -11.26750 -11.26728 -11.21967
 Alpha  occ. eigenvalues --  -11.21483 -11.21377 -11.21250 -11.21005 -11.20598
 Alpha  occ. eigenvalues --   -1.59865  -1.39420  -1.19334  -1.08742  -1.08348
 Alpha  occ. eigenvalues --   -1.04730  -1.03493  -0.95908  -0.95581  -0.86932
 Alpha  occ. eigenvalues --   -0.86133  -0.82413  -0.79638  -0.78106  -0.77441
 Alpha  occ. eigenvalues --   -0.72062  -0.71185  -0.70449  -0.65002  -0.64976
 Alpha  occ. eigenvalues --   -0.64719  -0.62106  -0.60872  -0.59338  -0.57517
 Alpha  occ. eigenvalues --   -0.55246  -0.55164  -0.53066  -0.52863  -0.52655
 Alpha  occ. eigenvalues --   -0.52306  -0.49837  -0.48819  -0.48816  -0.47895
 Alpha  occ. eigenvalues --   -0.46644  -0.45636  -0.45490  -0.44831  -0.43712
 Alpha  occ. eigenvalues --   -0.37323  -0.36329
 Alpha virt. eigenvalues --    0.05043   0.11285   0.16546   0.20257   0.23128
 Alpha virt. eigenvalues --    0.24103   0.25752   0.26437   0.27055   0.28374
 Alpha virt. eigenvalues --    0.29533   0.30735   0.31462   0.31740   0.33038

 Mulliken charges:
               1
     1  C   -0.296621
     2  C   -0.309972
     3  C   -0.474008
     4  H    0.148772
     5  H    0.151667
     6  H    0.146413
     7  H    0.157935
     8  H    0.159370
     9  H    0.156948
    10  H    0.152249
    11  C   -0.304079
    12  C   -0.299596
    13  C   -0.476492
    14  H    0.147069
    15  H    0.165786
    16  H    0.149064
    17  H    0.152010
    18  H    0.161898
    19  H    0.154233
    20  H    0.158483
    21  C   -0.170506
    22  C   -0.218908
    23  C   -0.170375
    24  C    0.157846
    25  C   -0.177879
    26  C   -0.222177
    27  H    0.225496
    28  H    0.223302
    29  H    0.275378
    30  H    0.286847
    31  H    0.224217
    32  N    0.488290
    33  O   -0.462558
    34  O   -0.460104
 Sum of Mulliken charges =  -0.00000

 Dipole moment (field-independent basis, Debye):
    X=              2.3836    Y=              4.3201    Z=             -1.1552  Tot=              5.0674
 Quadrupole moment (field-independent basis, Debye-Ang):
   XX=            -78.2812   YY=           -100.8732   ZZ=            -94.8608
   XY=              7.7322   XZ=             -2.2903   YZ=             -0.3999

 Normal termination of Gaussian 16 at Thu May  6 17:21:17 2021.
