 Gaussian 16, Revision A.03,
 Gaussian 16:  EM64L-G16RevA.03 25-Dec-2016

 -------------
 #p 6-31g* mp2
 -------------

 ------------------------------------------------------
 Input file generated by CHIRIPA (05-May-2021 14:51:12)
 ------------------------------------------------------
 Symbolic Z-matrix:
 Charge =  0 Multiplicity = 1

                         Standard orientation:
 ---------------------------------------------------------------------
 Center     Atomic      Atomic             Coordinates (Angstroms)
 Number     Number       Type             X           Y           Z
 ---------------------------------------------------------------------
      1          6           0        3.470518    0.739467   -0.364260
      2          6           0        2.900251    1.976571    0.330257
      3          6           0        3.821947    3.191865    0.223805
      4          1           0        4.448803    0.499013    0.074017
      5          1           0        3.650993    0.972340   -1.422841
      6          1           0        2.719611    1.741011    1.386901
      7          1           0        1.923124    2.213995   -0.109593
      8          1           0        3.993197    3.454784   -0.825074
      9          1           0        4.794210    2.979113    0.679922
     10          1           0        3.394888    4.064924    0.727041
     11          6           0        2.560515   -0.483672   -0.266510
     12          6           0        3.130782   -1.720776   -0.961027
     13          6           0        2.209086   -2.936069   -0.854575
     14          1           0        2.380041   -0.716545    0.792071
     15          1           0        1.582230   -0.243217   -0.704786
     16          1           0        4.107909   -1.958199   -0.521177
     17          1           0        3.311422   -1.485216   -2.017671
     18          1           0        1.236823   -2.723318   -1.310692
     19          1           0        2.037836   -3.198989    0.194305
     20          1           0        2.636146   -3.809129   -1.357811
     21          6           0       -3.579534   -0.139539   -0.199573
     22          6           0       -4.417014    1.139715   -0.210636
     23          6           0       -5.541381    1.101261   -1.246064
     24          1           0       -3.153755   -0.300134   -1.199506
     25          1           0       -4.235842   -0.997419    0.002161
     26          1           0       -3.759101    1.995082   -0.410917
     27          1           0       -4.840692    1.297385    0.789490
     28          1           0       -6.220970    0.266562   -1.045969
     29          1           0       -5.133233    0.968223   -2.253196
     30          1           0       -6.127406    2.025571   -1.236860
     31          6           0       -2.451499   -0.116256    0.830343
     32          6           0       -1.614019   -1.395509    0.841405
     33          6           0       -0.489652   -1.357057    1.876834
     34          1           0       -1.795191    0.741624    0.628609
     35          1           0       -2.877279    0.044338    1.830275
     36          1           0       -1.190341   -1.553181   -0.158721
     37          1           0       -2.271933   -2.250877    1.041687
     38          1           0       -0.897801   -1.224018    2.883966
     39          1           0        0.189937   -0.522357    1.676739
     40          1           0        0.096374   -2.281367    1.867629
 ---------------------------------------------------------------------

 SCF Done:  E(RHF) =  -470.732385317     A.U. after   11 cycles
 E2 =    -0.1584159753D+01 EUMP2 =    -0.47231654506998D+03

 The electronic state is 1-A.
 Alpha  occ. eigenvalues --  -11.21650 -11.21611 -11.21592 -11.21538 -11.21405
 Alpha  occ. eigenvalues --  -11.21381 -11.21330 -11.21318 -11.21103 -11.21080
 Alpha  occ. eigenvalues --  -11.21066 -11.20908  -1.08469  -1.08382  -1.03574
 Alpha  occ. eigenvalues --   -1.03464  -0.96004  -0.95932  -0.87030  -0.86948
 Alpha  occ. eigenvalues --   -0.79638  -0.79548  -0.78296  -0.78189  -0.65088
 Alpha  occ. eigenvalues --   -0.65029  -0.60960  -0.60902  -0.59455  -0.59222
 Alpha  occ. eigenvalues --   -0.57760  -0.57410  -0.55343  -0.55192  -0.52705
 Alpha  occ. eigenvalues --   -0.52650  -0.52540  -0.52228  -0.49983  -0.49870
 Alpha  occ. eigenvalues --   -0.47920  -0.47868  -0.46793  -0.46545  -0.45897
 Alpha  occ. eigenvalues --   -0.45782  -0.45626  -0.45412  -0.43802  -0.43725
 Alpha virt. eigenvalues --    0.20628   0.23190   0.23243   0.24513   0.25106
 Alpha virt. eigenvalues --    0.26055   0.26589   0.27925   0.28144   0.29324
 Alpha virt. eigenvalues --    0.29902   0.31128   0.31770   0.32256   0.32554

 Mulliken charges:
               1
     1  C   -0.297814
     2  C   -0.300585
     3  C   -0.475559
     4  H    0.149716
     5  H    0.149256
     6  H    0.152208
     7  H    0.151157
     8  H    0.155314
     9  H    0.155431
    10  H    0.160396
    11  C   -0.302790
    12  C   -0.299568
    13  C   -0.478542
    14  H    0.155845
    15  H    0.149668
    16  H    0.151884
    17  H    0.151575
    18  H    0.156534
    19  H    0.157176
    20  H    0.160134
    21  C   -0.298165
    22  C   -0.299588
    23  C   -0.475674
    24  H    0.149077
    25  H    0.149612
    26  H    0.151745
    27  H    0.152009
    28  H    0.155221
    29  H    0.155033
    30  H    0.160211
    31  C   -0.298734
    32  C   -0.301394
    33  C   -0.480352
    34  H    0.149451
    35  H    0.149716
    36  H    0.153121
    37  H    0.151681
    38  H    0.153314
    39  H    0.161410
    40  H    0.160871
 Sum of Mulliken charges =  -0.00000

 Dipole moment (field-independent basis, Debye):
    X=              0.0430    Y=             -0.0023    Z=              0.0081  Tot=              0.0438
 Quadrupole moment (field-independent basis, Debye-Ang):
   XX=            -85.2124   YY=            -85.5215   ZZ=            -84.0909
   XY=             -0.3271   XZ=             -0.5656   YZ=             -0.4379

 Normal termination of Gaussian 16 at Thu May  6 02:20:33 2021.
