 Gaussian 16, Revision A.03,
 Gaussian 16:  EM64L-G16RevA.03 25-Dec-2016

 -------------
 #p 6-31g* mp2
 -------------

 ------------------------------------------------------
 Input file generated by CHIRIPA (05-May-2021 14:53:15)
 ------------------------------------------------------
 Symbolic Z-matrix:
 Charge =  0 Multiplicity = 1

                         Standard orientation:
 ---------------------------------------------------------------------
 Center     Atomic      Atomic             Coordinates (Angstroms)
 Number     Number       Type             X           Y           Z
 ---------------------------------------------------------------------
      1          6           0        3.758831    0.767597   -0.395984
      2          6           0        2.632293    1.655919    0.132960
      3          6           0        2.701886    3.084122   -0.408507
      4          1           0        4.726047    1.215454   -0.129784
      5          1           0        3.715445    0.747050   -1.493750
      6          1           0        2.676944    1.673675    1.229458
      7          1           0        1.667646    1.205797   -0.134364
      8          1           0        2.634540    3.085542   -1.501239
      9          1           0        3.649572    3.556079   -0.129669
     10          1           0        1.887326    3.701812   -0.017598
     11          6           0        3.702792   -0.663211    0.136347
     12          6           0        4.829330   -1.551533   -0.392597
     13          6           0        4.759737   -2.979736    0.148870
     14          1           0        3.746178   -0.642664    1.234113
     15          1           0        2.735576   -1.111067   -0.129853
     16          1           0        5.793977   -1.101411   -0.125274
     17          1           0        4.784679   -1.569289   -1.489095
     18          1           0        3.812052   -3.451692   -0.129968
     19          1           0        4.827084   -2.981156    1.241602
     20          1           0        5.574297   -3.597426   -0.242039
     21          6           0       -1.348789    1.877059    0.586976
     22          6           0       -0.974074    0.568565    0.909396
     23          6           0       -1.833703   -0.501772    0.644887
     24          6           0       -3.066083   -0.226185    0.054479
     25          6           0       -3.468055    1.066439   -0.278436
     26          6           0       -2.592391    2.121389   -0.004867
     27          1           0       -0.674780    2.702547    0.795972
     28          1           0       -0.008892    0.375841    1.369097
     29          1           0       -1.568878   -1.524524    0.884186
     30          1           0       -4.436678    1.227218   -0.735969
     31          1           0       -2.886047    3.136560   -0.256343
     32          7           0       -3.984621   -1.351158   -0.230341
     33          8           0       -5.064877   -1.081909   -0.751099
     34          8           0       -3.606923   -2.480861    0.072568
 ---------------------------------------------------------------------

 SCF Done:  E(RHF) =  -669.535066706     A.U. after   15 cycles
 E2 =    -0.2092497429D+01 EUMP2 =    -0.67162756413504D+03

 The electronic state is 1-A.
 Alpha  occ. eigenvalues --  -20.60754 -20.60749 -15.85806 -11.31172 -11.27740
 Alpha  occ. eigenvalues --  -11.27722 -11.27459 -11.26749 -11.26682 -11.22624
 Alpha  occ. eigenvalues --  -11.22182 -11.22134 -11.22118 -11.22075 -11.21475
 Alpha  occ. eigenvalues --   -1.59829  -1.39383  -1.19342  -1.09211  -1.08731
 Alpha  occ. eigenvalues --   -1.04745  -1.04291  -0.96725  -0.95568  -0.87743
 Alpha  occ. eigenvalues --   -0.86144  -0.82399  -0.80406  -0.79022  -0.77441
 Alpha  occ. eigenvalues --   -0.72025  -0.71153  -0.70446  -0.65848  -0.64988
 Alpha  occ. eigenvalues --   -0.64743  -0.62122  -0.61647  -0.60128  -0.58349
 Alpha  occ. eigenvalues --   -0.55983  -0.55234  -0.53448  -0.53166  -0.53071
 Alpha  occ. eigenvalues --   -0.52813  -0.50647  -0.48839  -0.48780  -0.48622
 Alpha  occ. eigenvalues --   -0.47404  -0.46529  -0.46440  -0.44789  -0.44545
 Alpha  occ. eigenvalues --   -0.37292  -0.36327
 Alpha virt. eigenvalues --    0.05069   0.11156   0.16530   0.19776   0.22494
 Alpha virt. eigenvalues --    0.23475   0.25080   0.25871   0.26085   0.28624
 Alpha virt. eigenvalues --    0.28749   0.30453   0.30792   0.31564   0.32888

 Mulliken charges:
               1
     1  C   -0.297247
     2  C   -0.311943
     3  C   -0.475349
     4  H    0.152160
     5  H    0.153154
     6  H    0.148054
     7  H    0.156128
     8  H    0.160281
     9  H    0.159912
    10  H    0.151883
    11  C   -0.300336
    12  C   -0.300105
    13  C   -0.476549
    14  H    0.148165
    15  H    0.148465
    16  H    0.153187
    17  H    0.154126
    18  H    0.156648
    19  H    0.155156
    20  H    0.162706
    21  C   -0.172850
    22  C   -0.221552
    23  C   -0.173091
    24  C    0.158441
    25  C   -0.170926
    26  C   -0.219115
    27  H    0.229345
    28  H    0.229541
    29  H    0.275595
    30  H    0.275519
    31  H    0.223487
    32  N    0.488067
    33  O   -0.460487
    34  O   -0.460470
 Sum of Mulliken charges =  -0.00000

 Dipole moment (field-independent basis, Debye):
    X=              3.4103    Y=              3.9216    Z=              0.9210  Tot=              5.2780
 Quadrupole moment (field-independent basis, Debye-Ang):
   XX=           -111.7023   YY=            -95.8507   ZZ=            -94.1236
   XY=            -15.3259   XZ=             -1.3013   YZ=             -0.9662

 Normal termination of Gaussian 16 at Wed May  5 17:08:09 2021.
