 Gaussian 16, Revision A.03,
 Gaussian 16:  EM64L-G16RevA.03 25-Dec-2016

 -------------
 #p 6-31g* mp2
 -------------

 ------------------------------------------------------
 Input file generated by CHIRIPA (05-May-2021 14:55:19)
 ------------------------------------------------------
 Symbolic Z-matrix:
 Charge =  0 Multiplicity = 1

                         Standard orientation:
 ---------------------------------------------------------------------
 Center     Atomic      Atomic             Coordinates (Angstroms)
 Number     Number       Type             X           Y           Z
 ---------------------------------------------------------------------
      1          6           0        4.114440    2.402990    0.031575
      2          6           0        3.886847    1.758421   -1.188774
      3          6           0        3.387470    0.452970   -1.219933
      4          6           0        3.125603   -0.181010   -0.006349
      5          6           0        3.341895    0.434519    1.225573
      6          6           0        3.841718    1.740150    1.232736
      7          1           0        4.502541    3.417165    0.046460
      8          1           0        4.097735    2.270747   -2.123169
      9          1           0        3.202041   -0.069567   -2.150518
     10          1           0        3.122069   -0.101944    2.140615
     11          1           0        4.017502    2.238264    2.181961
     12          7           0        2.596699   -1.563127   -0.026634
     13          8           0        2.374101   -2.099924    1.056387
     14          8           0        2.414757   -2.083464   -1.125172
     15          6           0       -3.478367   -0.280729   -0.360464
     16          6           0       -2.416014   -0.865062    0.571171
     17          6           0       -1.153593   -1.302313   -0.172403
     18          1           0       -3.740000   -1.027927   -1.122166
     19          1           0       -3.052468    0.577752   -0.898067
     20          1           0       -2.844219   -1.721334    1.107878
     21          1           0       -2.157019   -0.116454    1.330857
     22          1           0       -0.700377   -0.453321   -0.694331
     23          1           0       -1.391481   -2.067318   -0.918577
     24          1           0       -0.407493   -1.716964    0.512622
     25          6           0       -4.746332    0.160972    0.368160
     26          6           0       -5.808686    0.745305   -0.563474
     27          6           0       -7.071107    1.182556    0.180098
     28          1           0       -5.172231   -0.697508    0.905763
     29          1           0       -4.484700    0.908171    1.129861
     30          1           0       -6.067680   -0.003302   -1.323162
     31          1           0       -5.380481    1.601577   -1.100183
     32          1           0       -6.833219    1.947562    0.926273
     33          1           0       -7.524323    0.333564    0.702026
     34          1           0       -7.817207    1.597208   -0.504926
 ---------------------------------------------------------------------

 SCF Done:  E(RHF) =  -669.536254121     A.U. after   15 cycles
 E2 =    -0.2091561980D+01 EUMP2 =    -0.67162781610172D+03

 The electronic state is 1-A.
 Alpha  occ. eigenvalues --  -20.60891 -20.60859 -15.85886 -11.31239 -11.27804
 Alpha  occ. eigenvalues --  -11.27801 -11.27549 -11.26818 -11.26809 -11.21336
 Alpha  occ. eigenvalues --  -11.21031 -11.20955 -11.20880 -11.20865 -11.20080
 Alpha  occ. eigenvalues --   -1.59923  -1.39481  -1.19408  -1.08808  -1.07991
 Alpha  occ. eigenvalues --   -1.04809  -1.03031  -0.95649  -0.95462  -0.86479
 Alpha  occ. eigenvalues --   -0.86208  -0.82484  -0.79115  -0.77798  -0.77533
 Alpha  occ. eigenvalues --   -0.72119  -0.71238  -0.70519  -0.65065  -0.64813
 Alpha  occ. eigenvalues --   -0.64631  -0.62156  -0.60440  -0.58843  -0.57064
 Alpha  occ. eigenvalues --   -0.55315  -0.54766  -0.53144  -0.52902  -0.52107
 Alpha  occ. eigenvalues --   -0.51888  -0.49426  -0.48883  -0.48870  -0.47427
 Alpha  occ. eigenvalues --   -0.46170  -0.45354  -0.45270  -0.44841  -0.43249
 Alpha  occ. eigenvalues --   -0.37384  -0.36411
 Alpha virt. eigenvalues --    0.04967   0.11237   0.16441   0.21373   0.23266
 Alpha virt. eigenvalues --    0.24843   0.27044   0.27287   0.27895   0.28148
 Alpha virt. eigenvalues --    0.28583   0.30910   0.31821   0.32189   0.32386

 Mulliken charges:
               1
     1  C   -0.170687
     2  C   -0.218686
     3  C   -0.171133
     4  C    0.159534
     5  C   -0.170896
     6  C   -0.218660
     7  H    0.225758
     8  H    0.223634
     9  H    0.275993
    10  H    0.275677
    11  H    0.223605
    12  N    0.489346
    13  O   -0.460733
    14  O   -0.457544
    15  C   -0.297360
    16  C   -0.299510
    17  C   -0.483859
    18  H    0.150108
    19  H    0.146591
    20  H    0.152573
    21  H    0.147281
    22  H    0.145444
    23  H    0.159250
    24  H    0.177742
    25  C   -0.297648
    26  C   -0.299158
    27  C   -0.475389
    28  H    0.149733
    29  H    0.147766
    30  H    0.152135
    31  H    0.150431
    32  H    0.154132
    33  H    0.155335
    34  H    0.159193
 Sum of Mulliken charges =  -0.00000

 Dipole moment (field-independent basis, Debye):
    X=              2.0570    Y=              4.7609    Z=              0.0619  Tot=              5.1867
 Quadrupole moment (field-independent basis, Debye-Ang):
   XX=            -85.2222   YY=            -96.2221   ZZ=            -89.9064
   XY=             16.0926   XZ=              0.5150   YZ=             -0.0648

 Normal termination of Gaussian 16 at Thu May  6 01:18:13 2021.
