 Gaussian 16, Revision A.03,
 Gaussian 16:  EM64L-G16RevA.03 25-Dec-2016

 -------------
 #p 6-31g* mp2
 -------------

 ------------------------------------------------------
 Input file generated by CHIRIPA (05-May-2021 14:57:23)
 ------------------------------------------------------
 Symbolic Z-matrix:
 Charge =  0 Multiplicity = 1

                         Standard orientation:
 ---------------------------------------------------------------------
 Center     Atomic      Atomic             Coordinates (Angstroms)
 Number     Number       Type             X           Y           Z
 ---------------------------------------------------------------------
      1          6           0        0.813331    2.113092    0.941132
      2          6           0        1.436817    2.276871   -0.300224
      3          6           0        2.426407    1.383491   -0.721096
      4          6           0        2.769460    0.332821    0.128431
      5          6           0        2.166614    0.143012    1.370944
      6          6           0        1.179574    1.048563    1.771290
      7          1           0        0.045584    2.811818    1.260103
      8          1           0        1.154408    3.102678   -0.947009
      9          1           0        2.925280    1.486783   -1.677064
     10          1           0        2.469422   -0.689888    1.993843
     11          1           0        0.697063    0.918907    2.735872
     12          7           0        3.815745   -0.619402   -0.306263
     13          8           0        4.100002   -1.536860    0.460618
     14          8           0        4.331755   -0.430267   -1.405626
     15          6           0       -4.924166    0.477006   -0.074867
     16          6           0       -4.399464   -0.227780    1.013474
     17          6           0       -3.111225   -0.767777    0.955227
     18          6           0       -2.372040   -0.583222   -0.212179
     19          6           0       -2.866950    0.114012   -1.313185
     20          6           0       -4.157587    0.645356   -1.232681
     21          1           0       -5.925832    0.893128   -0.020975
     22          1           0       -4.992527   -0.360080    1.913928
     23          1           0       -2.680433   -1.317778    1.783077
     24          1           0       -2.251804    0.229499   -2.197310
     25          1           0       -4.562500    1.192244   -2.079442
     26          7           0       -1.006970   -1.150312   -0.285623
     27          8           0       -0.375969   -0.973877   -1.325500
     28          8           0       -0.593877   -1.760494    0.698080
 ---------------------------------------------------------------------

 SCF Done:  E(RHF) =  -868.337553173     A.U. after   16 cycles
 E2 =    -0.2603076508D+01 EUMP2 =    -0.87094062968109D+03

 The electronic state is 1-A.
 Alpha  occ. eigenvalues --  -20.61171 -20.61126 -20.59587 -20.59572 -15.86174
 Alpha  occ. eigenvalues --  -15.84638 -11.31645 -11.29992 -11.28225 -11.28201
 Alpha  occ. eigenvalues --  -11.27957 -11.27250 -11.27235 -11.26661 -11.26601
 Alpha  occ. eigenvalues --  -11.26554 -11.25759 -11.25702  -1.60194  -1.58642
 Alpha  occ. eigenvalues --   -1.39756  -1.38202  -1.19819  -1.18230  -1.09190
 Alpha  occ. eigenvalues --   -1.07668  -1.05235  -1.03661  -0.96015  -0.94484
 Alpha  occ. eigenvalues --   -0.86623  -0.85088  -0.82851  -0.81329  -0.77887
 Alpha  occ. eigenvalues --   -0.76332  -0.72418  -0.71536  -0.70916  -0.70885
 Alpha  occ. eigenvalues --   -0.69919  -0.69447  -0.65468  -0.65231  -0.63930
 Alpha  occ. eigenvalues --   -0.63741  -0.62579  -0.61031  -0.55721  -0.54286
 Alpha  occ. eigenvalues --   -0.53573  -0.53321  -0.51975  -0.51813  -0.49165
 Alpha  occ. eigenvalues --   -0.49115  -0.47640  -0.47617  -0.45210  -0.43613
 Alpha  occ. eigenvalues --   -0.37827  -0.36855  -0.36243  -0.35112
 Alpha virt. eigenvalues --    0.04562   0.06332   0.10778   0.12433   0.16120
 Alpha virt. eigenvalues --    0.17682   0.20962   0.22254   0.26845   0.27809
 Alpha virt. eigenvalues --    0.28213   0.29177   0.30514   0.31689   0.32156

 Mulliken charges:
               1
     1  C   -0.178911
     2  C   -0.218886
     3  C   -0.162477
     4  C    0.165823
     5  C   -0.152023
     6  C   -0.221681
     7  H    0.218137
     8  H    0.216175
     9  H    0.272626
    10  H    0.276522
    11  H    0.217769
    12  N    0.489578
    13  O   -0.460512
    14  O   -0.464102
    15  C   -0.171531
    16  C   -0.219015
    17  C   -0.173445
    18  C    0.160073
    19  C   -0.172007
    20  C   -0.219205
    21  H    0.226533
    22  H    0.223994
    23  H    0.274403
    24  H    0.276255
    25  H    0.224218
    26  N    0.490702
    27  O   -0.457208
    28  O   -0.461804
 Sum of Mulliken charges =  -0.00000

 Dipole moment (field-independent basis, Debye):
    X=             -8.4818    Y=              5.0390    Z=              1.7026  Tot=             10.0115
 Quadrupole moment (field-independent basis, Debye-Ang):
   XX=           -103.6604   YY=           -104.8977   ZZ=            -96.9587
   XY=              6.1874   XZ=              3.2575   YZ=             -4.2981

 Normal termination of Gaussian 16 at Fri May  7 03:23:32 2021.
