 Gaussian 16, Revision A.03,
 Gaussian 16:  EM64L-G16RevA.03 25-Dec-2016

 -------------
 #p 6-31g* mp2
 -------------

 ------------------------------------------------------
 Input file generated by CHIRIPA (05-May-2021 14:55:19)
 ------------------------------------------------------
 Symbolic Z-matrix:
 Charge =  0 Multiplicity = 1

                         Standard orientation:
 ---------------------------------------------------------------------
 Center     Atomic      Atomic             Coordinates (Angstroms)
 Number     Number       Type             X           Y           Z
 ---------------------------------------------------------------------
      1          6           0        3.166815   -2.335692   -0.261067
      2          6           0        4.483876   -1.937246   -0.009840
      3          6           0        4.808411   -0.581138    0.091123
      4          6           0        3.786397    0.353926   -0.065192
      5          6           0        2.464781   -0.011592   -0.316224
      6          6           0        2.163241   -1.373289   -0.413189
      7          1           0        2.923640   -3.391320   -0.337944
      8          1           0        5.265311   -2.682459    0.108740
      9          1           0        5.819743   -0.244913    0.284973
     10          1           0        1.707371    0.754469   -0.429798
     11          1           0        1.139525   -1.679817   -0.608363
     12          7           0        4.117796    1.792536    0.039576
     13          8           0        3.199194    2.596743   -0.102047
     14          8           0        5.289873    2.088670    0.261333
     15          6           0       -5.385282   -0.005584   -0.332982
     16          6           0       -6.470961    0.799552    0.381890
     17          6           0       -7.682075    1.079567   -0.508383
     18          1           0       -5.063959    0.540350   -1.230564
     19          1           0       -5.812883   -0.955896   -0.681490
     20          1           0       -6.041086    1.747462    0.730158
     21          1           0       -6.789601    0.251729    1.277978
     22          1           0       -8.137383    0.142662   -0.845290
     23          1           0       -7.384614    1.646894   -1.396223
     24          1           0       -8.445869    1.656258    0.022566
     25          6           0       -4.168071   -0.293489    0.544079
     26          6           0       -3.082392   -1.098626   -0.170794
     27          6           0       -1.871278   -1.378640    0.719479
     28          1           0       -3.740470    0.656824    0.892587
     29          1           0       -4.489394   -0.839422    1.441661
     30          1           0       -2.763751   -0.550802   -1.066882
     31          1           0       -3.512267   -2.046536   -0.519062
     32          1           0       -2.168739   -1.945967    1.607319
     33          1           0       -1.415971   -0.441735    1.056385
     34          1           0       -1.107484   -1.955331    0.188531
 ---------------------------------------------------------------------

 SCF Done:  E(RHF) =  -669.535465616     A.U. after   15 cycles
 E2 =    -0.2090770473D+01 EUMP2 =    -0.67162623608876D+03

 The electronic state is 1-A.
 Alpha  occ. eigenvalues --  -20.60732 -20.60727 -15.85785 -11.31138 -11.27705
 Alpha  occ. eigenvalues --  -11.27695 -11.27441 -11.26723 -11.26678 -11.22262
 Alpha  occ. eigenvalues --  -11.21989 -11.21847 -11.21833 -11.21703 -11.21257
 Alpha  occ. eigenvalues --   -1.59808  -1.39362  -1.19306  -1.08866  -1.08705
 Alpha  occ. eigenvalues --   -1.04707  -1.04010  -0.96474  -0.95543  -0.87498
 Alpha  occ. eigenvalues --   -0.86106  -0.82374  -0.80076  -0.78640  -0.77424
 Alpha  occ. eigenvalues --   -0.72004  -0.71130  -0.70419  -0.65490  -0.64958
 Alpha  occ. eigenvalues --   -0.64741  -0.62101  -0.61391  -0.59869  -0.58070
 Alpha  occ. eigenvalues --   -0.55745  -0.55214  -0.53339  -0.53032  -0.52937
 Alpha  occ. eigenvalues --   -0.52607  -0.50396  -0.48762  -0.48759  -0.48386
 Alpha  occ. eigenvalues --   -0.47090  -0.46192  -0.46089  -0.44770  -0.44255
 Alpha  occ. eigenvalues --   -0.37289  -0.36304
 Alpha virt. eigenvalues --    0.05106   0.11326   0.16583   0.20030   0.22655
 Alpha virt. eigenvalues --    0.23812   0.26046   0.26212   0.26972   0.27918
 Alpha virt. eigenvalues --    0.29134   0.29521   0.31054   0.31626   0.32148

 Mulliken charges:
               1
     1  C   -0.172387
     2  C   -0.218461
     3  C   -0.171227
     4  C    0.158752
     5  C   -0.173351
     6  C   -0.222098
     7  H    0.225531
     8  H    0.223170
     9  H    0.275374
    10  H    0.275489
    11  H    0.231384
    12  N    0.488130
    13  O   -0.460731
    14  O   -0.460601
    15  C   -0.298766
    16  C   -0.300194
    17  C   -0.476011
    18  H    0.150630
    19  H    0.149545
    20  H    0.153477
    21  H    0.152233
    22  H    0.155062
    23  H    0.155908
    24  H    0.161423
    25  C   -0.299311
    26  C   -0.299694
    27  C   -0.479974
    28  H    0.152068
    29  H    0.150786
    30  H    0.151821
    31  H    0.153022
    32  H    0.160404
    33  H    0.158288
    34  H    0.150307
 Sum of Mulliken charges =  -0.00000

 Dipole moment (field-independent basis, Debye):
    X=             -1.3550    Y=             -5.0464    Z=             -0.3243  Tot=              5.2353
 Quadrupole moment (field-independent basis, Debye-Ang):
   XX=            -99.0769   YY=            -98.0762   ZZ=            -95.5866
   XY=            -20.5237   XZ=             -1.1270   YZ=             -0.2003

 Normal termination of Gaussian 16 at Thu May  6 09:13:47 2021.
