 Gaussian 16, Revision A.03,
 Gaussian 16:  EM64L-G16RevA.03 25-Dec-2016

 -------------
 #p 6-31g* mp2
 -------------

 ------------------------------------------------------
 Input file generated by CHIRIPA (05-May-2021 14:57:27)
 ------------------------------------------------------
 Symbolic Z-matrix:
 Charge =  0 Multiplicity = 1

                         Standard orientation:
 ---------------------------------------------------------------------
 Center     Atomic      Atomic             Coordinates (Angstroms)
 Number     Number       Type             X           Y           Z
 ---------------------------------------------------------------------
      1          6           0       -2.419508    2.195572   -0.282688
      2          6           0       -3.758162    2.304514    0.108028
      3          6           0       -4.574731    1.171310    0.168130
      4          6           0       -4.017381   -0.060660   -0.170841
      5          6           0       -2.687369   -0.201615   -0.563896
      6          6           0       -1.889319    0.945060   -0.616814
      7          1           0       -1.792371    3.081104   -0.326587
      8          1           0       -4.172606    3.274388    0.368077
      9          1           0       -5.614356    1.227048    0.467279
     10          1           0       -2.302600   -1.182025   -0.817207
     11          1           0       -0.850048    0.857456   -0.920599
     12          7           0       -4.872043   -1.267463   -0.111016
     13          8           0       -4.357066   -2.341355   -0.414646
     14          8           0       -6.040721   -1.116612    0.238371
     15          6           0        6.243936   -0.097191   -0.690845
     16          6           0        5.560074    1.102007   -0.465509
     17          6           0        4.248057    1.091261    0.017239
     18          6           0        3.647649   -0.142203    0.264958
     19          6           0        4.302691   -1.353902    0.050494
     20          6           0        5.614172   -1.319164   -0.432580
     21          1           0        7.262933   -0.079524   -1.065981
     22          1           0        6.046655    2.052487   -0.665192
     23          1           0        3.695422    2.004722    0.200549
     24          1           0        3.791289   -2.285810    0.258900
     25          1           0        6.142835   -2.252042   -0.606651
     26          7           0        2.258960   -0.166280    0.776194
     27          8           0        1.752249   -1.266114    0.986540
     28          8           0        1.703511    0.915140    0.956875
 ---------------------------------------------------------------------

 SCF Done:  E(RHF) =  -868.339267393     A.U. after   16 cycles
 E2 =    -0.2598573714D+01 EUMP2 =    -0.87093784110639D+03

 The electronic state is 1-A.
 Alpha  occ. eigenvalues --  -20.61649 -20.61606 -20.59881 -20.59868 -15.86660
 Alpha  occ. eigenvalues --  -15.84922 -11.31826 -11.30110 -11.28393 -11.28344
 Alpha  occ. eigenvalues --  -11.28062 -11.27343 -11.27310 -11.26700 -11.26571
 Alpha  occ. eigenvalues --  -11.26346 -11.25712 -11.25502  -1.60703  -1.58955
 Alpha  occ. eigenvalues --   -1.40259  -1.38514  -1.19979  -1.18253  -1.09409
 Alpha  occ. eigenvalues --   -1.07683  -1.05348  -1.03620  -0.96275  -0.94553
 Alpha  occ. eigenvalues --   -0.86755  -0.85028  -0.83111  -0.81386  -0.78187
 Alpha  occ. eigenvalues --   -0.76457  -0.72873  -0.72025  -0.71149  -0.71077
 Alpha  occ. eigenvalues --   -0.70273  -0.69374  -0.65630  -0.65343  -0.63905
 Alpha  occ. eigenvalues --   -0.63613  -0.62697  -0.60972  -0.55847  -0.54144
 Alpha  occ. eigenvalues --   -0.53691  -0.53433  -0.51966  -0.51715  -0.49641
 Alpha  occ. eigenvalues --   -0.49606  -0.47911  -0.47889  -0.45701  -0.43959
 Alpha  occ. eigenvalues --   -0.37945  -0.36943  -0.36223  -0.35198
 Alpha virt. eigenvalues --    0.04304   0.06058   0.10714   0.12451   0.15841
 Alpha virt. eigenvalues --    0.17606   0.20891   0.22548   0.26816   0.27724
 Alpha virt. eigenvalues --    0.28470   0.29372   0.30481   0.31920   0.32099

 Mulliken charges:
               1
     1  C   -0.170450
     2  C   -0.219065
     3  C   -0.172875
     4  C    0.157627
     5  C   -0.170300
     6  C   -0.209756
     7  H    0.223683
     8  H    0.219011
     9  H    0.271788
    10  H    0.275975
    11  H    0.229306
    12  N    0.488238
    13  O   -0.461434
    14  O   -0.464089
    15  C   -0.169949
    16  C   -0.218385
    17  C   -0.171456
    18  C    0.157254
    19  C   -0.170609
    20  C   -0.218429
    21  H    0.227859
    22  H    0.224703
    23  H    0.273568
    24  H    0.277631
    25  H    0.226073
    26  N    0.486730
    27  O   -0.456091
    28  O   -0.466557
 Sum of Mulliken charges =  -0.00000

 Dipole moment (field-independent basis, Debye):
    X=              8.4275    Y=              4.2355    Z=             -2.0096  Tot=              9.6437
 Quadrupole moment (field-independent basis, Debye-Ang):
   XX=            -91.5947   YY=            -99.3010   ZZ=           -106.9398
   XY=            -20.4601   XZ=             -6.5913   YZ=              0.4211

 Normal termination of Gaussian 16 at Fri May  7 02:03:33 2021.
