 Gaussian 16, Revision A.03,
 Gaussian 16:  EM64L-G16RevA.03 25-Dec-2016

 -------------
 #p 6-31g* mp2
 -------------

 ------------------------------------------------------
 Input file generated by CHIRIPA (05-May-2021 14:51:11)
 ------------------------------------------------------
 Symbolic Z-matrix:
 Charge =  0 Multiplicity = 1

                         Standard orientation:
 ---------------------------------------------------------------------
 Center     Atomic      Atomic             Coordinates (Angstroms)
 Number     Number       Type             X           Y           Z
 ---------------------------------------------------------------------
      1          6           0       -2.483874    0.488443   -0.745084
      2          6           0       -3.523472   -0.627215   -0.633155
      3          6           0       -3.977751   -1.150825   -1.995967
      4          1           0       -2.903796    1.314355   -1.335406
      5          1           0       -1.614484    0.115270   -1.303920
      6          1           0       -4.390058   -0.252472   -0.073500
      7          1           0       -3.101096   -1.450486   -0.042869
      8          1           0       -3.127505   -1.550554   -2.558016
      9          1           0       -4.423791   -0.345732   -2.588821
     10          1           0       -4.720840   -1.947680   -1.892521
     11          6           0       -2.019913    1.022248    0.608991
     12          6           0       -0.980314    2.137905    0.497062
     13          6           0       -0.526035    2.661516    1.859874
     14          1           0       -2.889303    1.395421    1.167827
     15          1           0       -1.599991    0.196335    1.199313
     16          1           0       -1.402691    2.961177   -0.093224
     17          1           0       -0.113729    1.763163   -0.062593
     18          1           0       -0.079996    1.856423    2.452728
     19          1           0       -1.376282    3.061245    2.421923
     20          1           0        0.217053    3.458371    1.756428
     21          6           0        2.855766   -0.700013   -0.396397
     22          6           0        3.111713    0.723942   -0.891199
     23          6           0        4.323068    0.818468   -1.819357
     24          1           0        3.749831   -1.065821    0.126842
     25          1           0        2.708033   -1.360520   -1.262018
     26          1           0        3.257548    1.381826   -0.024863
     27          1           0        2.216867    1.086473   -1.413153
     28          1           0        4.182811    0.185409   -2.701494
     29          1           0        5.229406    0.482440   -1.305315
     30          1           0        4.487759    1.845051   -2.161212
     31          6           0        1.648020   -0.810677    0.532490
     32          6           0        1.392073   -2.234632    1.027292
     33          6           0        0.180718   -2.329160    1.955450
     34          1           0        1.795754   -0.150170    1.398111
     35          1           0        0.753956   -0.444870    0.009251
     36          1           0        2.286920   -2.597163    1.549246
     37          1           0        1.246239   -2.892517    0.160956
     38          1           0       -0.725619   -1.993131    1.441408
     39          1           0        0.320975   -1.696100    2.837586
     40          1           0        0.016028   -3.355742    2.297305
 ---------------------------------------------------------------------

 SCF Done:  E(RHF) =  -470.731887880     A.U. after   11 cycles
 E2 =    -0.1586252328D+01 EUMP2 =    -0.47231814020778D+03

 The electronic state is 1-A.
 Alpha  occ. eigenvalues --  -11.21685 -11.21667 -11.21637 -11.21470 -11.21468
 Alpha  occ. eigenvalues --  -11.21410 -11.21406 -11.21263 -11.21165 -11.21116
 Alpha  occ. eigenvalues --  -11.21099 -11.20997  -1.08563  -1.08367  -1.03613
 Alpha  occ. eigenvalues --   -1.03497  -0.96069  -0.95950  -0.87080  -0.86973
 Alpha  occ. eigenvalues --   -0.79693  -0.79567  -0.78370  -0.78212  -0.65447
 Alpha  occ. eigenvalues --   -0.64794  -0.61010  -0.60916  -0.59447  -0.59298
 Alpha  occ. eigenvalues --   -0.57718  -0.57537  -0.55364  -0.55250  -0.52751
 Alpha  occ. eigenvalues --   -0.52662  -0.52525  -0.52337  -0.50038  -0.49920
 Alpha  occ. eigenvalues --   -0.48052  -0.47913  -0.46753  -0.46697  -0.46216
 Alpha  occ. eigenvalues --   -0.45827  -0.45498  -0.45143  -0.43856  -0.43748
 Alpha virt. eigenvalues --    0.19727   0.22425   0.23127   0.23915   0.25113
 Alpha virt. eigenvalues --    0.25917   0.26340   0.28615   0.28988   0.29711
 Alpha virt. eigenvalues --    0.30236   0.31202   0.31691   0.31988   0.32600

 Mulliken charges:
               1
     1  C   -0.300120
     2  C   -0.302422
     3  C   -0.475561
     4  H    0.150281
     5  H    0.148610
     6  H    0.152666
     7  H    0.153457
     8  H    0.154809
     9  H    0.155431
    10  H    0.160467
    11  C   -0.307213
    12  C   -0.304807
    13  C   -0.476576
    14  H    0.149962
    15  H    0.158340
    16  H    0.151089
    17  H    0.158665
    18  H    0.155934
    19  H    0.154741
    20  H    0.159682
    21  C   -0.297961
    22  C   -0.302404
    23  C   -0.475690
    24  H    0.149990
    25  H    0.149327
    26  H    0.152686
    27  H    0.153714
    28  H    0.155269
    29  H    0.155435
    30  H    0.160637
    31  C   -0.308012
    32  C   -0.298962
    33  C   -0.482591
    34  H    0.151421
    35  H    0.158237
    36  H    0.152390
    37  H    0.151819
    38  H    0.160764
    39  H    0.155241
    40  H    0.161255
 Sum of Mulliken charges =  -0.00000

 Dipole moment (field-independent basis, Debye):
    X=              0.0361    Y=             -0.0259    Z=              0.0049  Tot=              0.0447
 Quadrupole moment (field-independent basis, Debye-Ang):
   XX=            -84.6760   YY=            -84.6450   ZZ=            -85.4277
   XY=             -0.7641   XZ=              0.6882   YZ=             -0.2042

 Normal termination of Gaussian 16 at Thu May  6 02:14:30 2021.
