 Gaussian 16, Revision A.03,
 Gaussian 16:  EM64L-G16RevA.03 25-Dec-2016

 -------------
 #p 6-31g* mp2
 -------------

 ------------------------------------------------------
 Input file generated by CHIRIPA (05-May-2021 14:57:25)
 ------------------------------------------------------
 Symbolic Z-matrix:
 Charge =  0 Multiplicity = 1

                         Standard orientation:
 ---------------------------------------------------------------------
 Center     Atomic      Atomic             Coordinates (Angstroms)
 Number     Number       Type             X           Y           Z
 ---------------------------------------------------------------------
      1          6           0        3.584447    2.370148    0.240650
      2          6           0        2.218568    2.076534    0.172185
      3          6           0        1.783936    0.763439   -0.031343
      4          6           0        2.746832   -0.235976   -0.162844
      5          6           0        4.114761    0.024817   -0.099233
      6          6           0        4.526523    1.345160    0.104961
      7          1           0        3.913196    3.393007    0.399014
      8          1           0        1.484694    2.870537    0.277222
      9          1           0        0.732758    0.508125   -0.088407
     10          1           0        4.822660   -0.787937   -0.207534
     11          1           0        5.587936    1.570248    0.157706
     12          7           0        2.298812   -1.629927   -0.378663
     13          8           0        3.167103   -2.492470   -0.491481
     14          8           0        1.087847   -1.833568   -0.430918
     15          6           0       -2.206900   -0.648290    2.485410
     16          6           0       -1.933117   -1.517198    1.424014
     17          6           0       -2.268799   -1.164945    0.113372
     18          6           0       -2.880008    0.069513   -0.100701
     19          6           0       -3.165732    0.956872    0.935757
     20          6           0       -2.821249    0.583800    2.238330
     21          1           0       -1.942716   -0.930015    3.500415
     22          1           0       -1.456087   -2.474693    1.612931
     23          1           0       -2.068270   -1.818526   -0.726890
     24          1           0       -3.642120    1.904631    0.716151
     25          1           0       -3.035070    1.260608    3.060678
     26          7           0       -3.240037    0.453447   -1.483949
     27          8           0       -3.777786    1.546681   -1.646135
     28          8           0       -2.977661   -0.346127   -2.379759
 ---------------------------------------------------------------------

 SCF Done:  E(RHF) =  -868.339549674     A.U. after   16 cycles
 E2 =    -0.2600531475D+01 EUMP2 =    -0.87094008114860D+03

 The electronic state is 1-A.
 Alpha  occ. eigenvalues --  -20.61212 -20.61169 -20.60556 -20.60521 -15.86234
 Alpha  occ. eigenvalues --  -15.85590 -11.31390 -11.30883 -11.27954 -11.27903
 Alpha  occ. eigenvalues --  -11.27664 -11.27506 -11.27260 -11.27148 -11.26927
 Alpha  occ. eigenvalues --  -11.26895 -11.26512 -11.26244  -1.60260  -1.59626
 Alpha  occ. eigenvalues --   -1.39821  -1.39175  -1.19551  -1.19049  -1.08989
 Alpha  occ. eigenvalues --   -1.08460  -1.04921  -1.04379  -0.95859  -0.95295
 Alpha  occ. eigenvalues --   -0.86330  -0.85792  -0.82713  -0.82085  -0.77774
 Alpha  occ. eigenvalues --   -0.77143  -0.72490  -0.71796  -0.71566  -0.70967
 Alpha  occ. eigenvalues --   -0.70659  -0.70112  -0.65213  -0.64925  -0.64659
 Alpha  occ. eigenvalues --   -0.64347  -0.62269  -0.61681  -0.55442  -0.54913
 Alpha  occ. eigenvalues --   -0.53267  -0.53098  -0.52696  -0.52431  -0.49221
 Alpha  occ. eigenvalues --   -0.49199  -0.48570  -0.48546  -0.45271  -0.44592
 Alpha  occ. eigenvalues --   -0.37531  -0.37083  -0.36513  -0.35941
 Alpha virt. eigenvalues --    0.04731   0.05342   0.11131   0.11655   0.16242
 Alpha virt. eigenvalues --    0.16868   0.21232   0.21873   0.27072   0.27750
 Alpha virt. eigenvalues --    0.28080   0.28734   0.30708   0.31401   0.32044

 Mulliken charges:
               1
     1  C   -0.170039
     2  C   -0.219673
     3  C   -0.170864
     4  C    0.156407
     5  C   -0.170604
     6  C   -0.219000
     7  H    0.226441
     8  H    0.225288
     9  H    0.278513
    10  H    0.275432
    11  H    0.223934
    12  N    0.491522
    13  O   -0.458400
    14  O   -0.470472
    15  C   -0.174898
    16  C   -0.214491
    17  C   -0.164607
    18  C    0.149335
    19  C   -0.177061
    20  C   -0.221008
    21  H    0.224601
    22  H    0.233916
    23  H    0.286613
    24  H    0.272343
    25  H    0.220275
    26  N    0.487388
    27  O   -0.464768
    28  O   -0.456122
 Sum of Mulliken charges =  -0.00000

 Dipole moment (field-independent basis, Debye):
    X=              3.0330    Y=              3.2972    Z=              5.5605  Tot=              7.1407
 Quadrupole moment (field-independent basis, Debye-Ang):
   XX=            -99.3149   YY=           -103.4746   ZZ=           -107.0940
   XY=             14.6549   XZ=            -13.0851   YZ=              1.1137

 Normal termination of Gaussian 16 at Fri May  7 11:08:45 2021.
