 Gaussian 16, Revision A.03,
 Gaussian 16:  EM64L-G16RevA.03 25-Dec-2016

 -------------
 #p 6-31g* mp2
 -------------

 ------------------------------------------------------
 Input file generated by CHIRIPA (05-May-2021 14:53:15)
 ------------------------------------------------------
 Symbolic Z-matrix:
 Charge =  0 Multiplicity = 1

                         Standard orientation:
 ---------------------------------------------------------------------
 Center     Atomic      Atomic             Coordinates (Angstroms)
 Number     Number       Type             X           Y           Z
 ---------------------------------------------------------------------
      1          6           0       -2.235842    1.428942   -0.635866
      2          6           0       -0.747985    1.774103   -0.564237
      3          6           0       -0.384065    2.998541   -1.404540
      4          1           0       -2.514737    1.252363   -1.683712
      5          1           0       -2.822554    2.294329   -0.297826
      6          1           0       -0.164206    0.907841   -0.901000
      7          1           0       -0.472557    1.949693    0.483581
      8          1           0       -0.941034    3.877927   -1.065327
      9          1           0       -0.630932    2.830156   -2.457775
     10          1           0        0.684185    3.227430   -1.338869
     11          6           0       -2.615179    0.207141    0.199020
     12          6           0       -4.103036   -0.138019    0.127392
     13          6           0       -4.466956   -1.362457    0.967695
     14          1           0       -2.028467   -0.658245   -0.139019
     15          1           0       -2.336284    0.383720    1.246866
     16          1           0       -4.378464   -0.313609   -0.920427
     17          1           0       -4.686815    0.728242    0.464154
     18          1           0       -4.220089   -1.194072    2.020930
     19          1           0       -3.909987   -2.241843    0.628482
     20          1           0       -5.535206   -1.591346    0.902024
     21          6           0        0.991756   -2.545280   -1.213791
     22          6           0        1.997135   -1.720681   -1.729320
     23          6           0        2.505050   -0.661562   -0.971140
     24          6           0        1.982245   -0.454813    0.304485
     25          6           0        0.980484   -1.258922    0.845938
     26          6           0        0.487529   -2.312180    0.069930
     27          1           0        0.603006   -3.365753   -1.809689
     28          1           0        2.390614   -1.899352   -2.725963
     29          1           0        3.283312   -0.007779   -1.345699
     30          1           0        0.608154   -1.055968    1.842733
     31          1           0       -0.293269   -2.950959    0.472870
     32          7           0        2.512034    0.663328    1.116574
     33          8           0        2.034634    0.824498    2.237621
     34          8           0        3.394651    1.357384    0.616662
 ---------------------------------------------------------------------

 SCF Done:  E(RHF) =  -669.534214172     A.U. after   15 cycles
 E2 =    -0.2096063037D+01 EUMP2 =    -0.67163027720921D+03

 The electronic state is 1-A.
 Alpha  occ. eigenvalues --  -20.60853 -20.60848 -15.85880 -11.31188 -11.27814
 Alpha  occ. eigenvalues --  -11.27770 -11.27595 -11.26866 -11.26834 -11.21828
 Alpha  occ. eigenvalues --  -11.21498 -11.21472 -11.21360 -11.21289 -11.20780
 Alpha  occ. eigenvalues --   -1.59910  -1.39467  -1.19443  -1.08832  -1.08482
 Alpha  occ. eigenvalues --   -1.04838  -1.03567  -0.96029  -0.95661  -0.87047
 Alpha  occ. eigenvalues --   -0.86228  -0.82498  -0.79667  -0.78342  -0.77527
 Alpha  occ. eigenvalues --   -0.72112  -0.71214  -0.70537  -0.65169  -0.65071
 Alpha  occ. eigenvalues --   -0.64812  -0.62178  -0.60980  -0.59421  -0.57639
 Alpha  occ. eigenvalues --   -0.55348  -0.55330  -0.53368  -0.52921  -0.52641
 Alpha  occ. eigenvalues --   -0.52461  -0.49988  -0.48873  -0.48868  -0.47974
 Alpha  occ. eigenvalues --   -0.46703  -0.45846  -0.45624  -0.44815  -0.43800
 Alpha  occ. eigenvalues --   -0.37341  -0.36374
 Alpha virt. eigenvalues --    0.04969   0.11081   0.16404   0.20806   0.23018
 Alpha virt. eigenvalues --    0.23989   0.26061   0.26377   0.27767   0.28197
 Alpha virt. eigenvalues --    0.28734   0.30410   0.31385   0.31642   0.32416

 Mulliken charges:
               1
     1  C   -0.295664
     2  C   -0.314522
     3  C   -0.476524
     4  H    0.147220
     5  H    0.150756
     6  H    0.157311
     7  H    0.159654
     8  H    0.156191
     9  H    0.150925
    10  H    0.166262
    11  C   -0.304265
    12  C   -0.299143
    13  C   -0.475037
    14  H    0.148594
    15  H    0.149656
    16  H    0.151113
    17  H    0.154375
    18  H    0.156048
    19  H    0.147402
    20  H    0.162016
    21  C   -0.172804
    22  C   -0.217557
    23  C   -0.173238
    24  C    0.160135
    25  C   -0.167217
    26  C   -0.217946
    27  H    0.226100
    28  H    0.223971
    29  H    0.275873
    30  H    0.276196
    31  H    0.224940
    32  N    0.490206
    33  O   -0.460575
    34  O   -0.460456
 Sum of Mulliken charges =  -0.00000

 Dipole moment (field-independent basis, Debye):
    X=             -1.7504    Y=             -3.8989    Z=             -2.8132  Tot=              5.1166
 Quadrupole moment (field-independent basis, Debye-Ang):
   XX=           -100.9941   YY=            -91.8353   ZZ=            -93.8182
   XY=             -6.6975   XZ=             -8.9863   YZ=              0.2369

 Normal termination of Gaussian 16 at Thu May  6 07:28:25 2021.
