 Gaussian 16, Revision A.03,
 Gaussian 16:  EM64L-G16RevA.03 25-Dec-2016

 -------------
 #p 6-31g* mp2
 -------------

 ------------------------------------------------------
 Input file generated by CHIRIPA (05-May-2021 14:51:10)
 ------------------------------------------------------
 Symbolic Z-matrix:
 Charge =  0 Multiplicity = 1

                         Standard orientation:
 ---------------------------------------------------------------------
 Center     Atomic      Atomic             Coordinates (Angstroms)
 Number     Number       Type             X           Y           Z
 ---------------------------------------------------------------------
      1          6           0       -5.391063   -0.577488   -0.015057
      2          6           0       -6.609703    0.293352   -0.322533
      3          6           0       -7.892866   -0.521923   -0.485668
      4          1           0       -5.260423   -1.312069   -0.821450
      5          1           0       -5.581223   -1.151203    0.902595
      6          1           0       -6.416751    0.866289   -1.238572
      7          1           0       -6.737344    1.026069    0.484591
      8          1           0       -8.112638   -1.081578    0.429257
      9          1           0       -7.790223   -1.242267   -1.303697
     10          1           0       -8.751466    0.120395   -0.704969
     11          6           0       -4.100641    0.223158    0.150785
     12          6           0       -2.882002   -0.647682    0.458261
     13          6           0       -1.598839    0.167593    0.621396
     14          1           0       -3.910481    0.796873   -0.766867
     15          1           0       -4.231282    0.957739    0.957178
     16          1           0       -2.754361   -1.380400   -0.348863
     17          1           0       -3.074954   -1.220619    1.374300
     18          1           0       -1.701482    0.887936    1.439425
     19          1           0       -1.379067    0.727248   -0.293529
     20          1           0       -0.740239   -0.474725    0.840697
     21          6           0        4.239516    0.697663   -0.304797
     22          6           0        2.893067    0.604810    0.413840
     23          6           0        1.890677    1.652602   -0.071074
     24          1           0        4.657763    1.702876   -0.157958
     25          1           0        4.079271    0.580600   -1.385544
     26          1           0        3.055968    0.720632    1.493036
     27          1           0        2.478067   -0.400359    0.265434
     28          1           0        1.698871    1.535383   -1.142555
     29          1           0        2.280056    2.662743    0.092023
     30          1           0        0.935131    1.568162    0.455862
     31          6           0        5.252189   -0.343332    0.169069
     32          6           0        6.598637   -0.250481   -0.549568
     33          6           0        7.601028   -1.298272   -0.064652
     34          1           0        5.412434   -0.226270    1.249816
     35          1           0        4.833942   -1.348545    0.022231
     36          1           0        7.013638    0.754689   -0.401160
     37          1           0        6.435736   -0.366301   -1.628764
     38          1           0        7.211649   -2.308413   -0.227751
     39          1           0        7.792834   -1.181052    1.006828
     40          1           0        8.556574   -1.213831   -0.591590
 ---------------------------------------------------------------------

 SCF Done:  E(RHF) =  -470.733016136     A.U. after   11 cycles
 E2 =    -0.1582469977D+01 EUMP2 =    -0.47231548611306D+03

 The electronic state is 1-A.
 Alpha  occ. eigenvalues --  -11.21603 -11.21603 -11.21574 -11.21530 -11.21408
 Alpha  occ. eigenvalues --  -11.21360 -11.21349 -11.21298 -11.21079 -11.21073
 Alpha  occ. eigenvalues --  -11.21050 -11.20885  -1.08436  -1.08377  -1.03552
 Alpha  occ. eigenvalues --   -1.03454  -0.96040  -0.95868  -0.87095  -0.86852
 Alpha  occ. eigenvalues --   -0.79649  -0.79493  -0.78248  -0.78194  -0.65067
 Alpha  occ. eigenvalues --   -0.65009  -0.60955  -0.60850  -0.59502  -0.59168
 Alpha  occ. eigenvalues --   -0.57600  -0.57527  -0.55318  -0.55161  -0.52981
 Alpha  occ. eigenvalues --   -0.52535  -0.52379  -0.52125  -0.49968  -0.49812
 Alpha  occ. eigenvalues --   -0.47970  -0.47793  -0.46646  -0.46554  -0.45792
 Alpha  occ. eigenvalues --   -0.45732  -0.45713  -0.45662  -0.43872  -0.43600
 Alpha virt. eigenvalues --    0.22281   0.22965   0.23535   0.24791   0.26553
 Alpha virt. eigenvalues --    0.26610   0.26949   0.27209   0.27706   0.29110
 Alpha virt. eigenvalues --    0.30409   0.30645   0.31302   0.31662   0.32334

 Mulliken charges:
               1
     1  C   -0.298298
     2  C   -0.299628
     3  C   -0.475708
     4  H    0.149625
     5  H    0.149531
     6  H    0.151963
     7  H    0.151957
     8  H    0.155178
     9  H    0.155168
    10  H    0.160274
    11  C   -0.298458
    12  C   -0.300776
    13  C   -0.478630
    14  H    0.149664
    15  H    0.149647
    16  H    0.151948
    17  H    0.151838
    18  H    0.154671
    19  H    0.157714
    20  H    0.161768
    21  C   -0.298221
    22  C   -0.299735
    23  C   -0.483321
    24  H    0.149607
    25  H    0.149317
    26  H    0.151494
    27  H    0.151398
    28  H    0.153503
    29  H    0.153742
    30  H    0.173281
    31  C   -0.298205
    32  C   -0.299592
    33  C   -0.475667
    34  H    0.149402
    35  H    0.149427
    36  H    0.151900
    37  H    0.151841
    38  H    0.155097
    39  H    0.155133
    40  H    0.160150
 Sum of Mulliken charges =  -0.00000

 Dipole moment (field-independent basis, Debye):
    X=             -0.0417    Y=              0.0041    Z=              0.0078  Tot=              0.0427
 Quadrupole moment (field-independent basis, Debye-Ang):
   XX=            -86.5730   YY=            -85.0835   ZZ=            -83.3418
   XY=              0.2942   XZ=             -0.2670   YZ=              0.7050

 Normal termination of Gaussian 16 at Wed May  5 23:01:02 2021.
