 Gaussian 16, Revision A.03,
 Gaussian 16:  EM64L-G16RevA.03 25-Dec-2016

 -------------
 #p 6-31g* mp2
 -------------

 ------------------------------------------------------
 Input file generated by CHIRIPA (05-May-2021 14:51:12)
 ------------------------------------------------------
 Symbolic Z-matrix:
 Charge =  0 Multiplicity = 1

                         Standard orientation:
 ---------------------------------------------------------------------
 Center     Atomic      Atomic             Coordinates (Angstroms)
 Number     Number       Type             X           Y           Z
 ---------------------------------------------------------------------
      1          6           0       -3.035017   -0.584121    0.421001
      2          6           0       -1.864718   -1.024268   -0.459145
      3          6           0       -0.571586   -1.222257    0.332311
      4          1           0       -2.769482    0.351321    0.932260
      5          1           0       -3.196344   -1.334942    1.206899
      6          1           0       -1.706534   -0.273523   -1.243985
      7          1           0       -2.133143   -1.958670   -0.968515
      8          1           0       -0.705900   -1.986277    1.104861
      9          1           0       -0.276867   -0.291555    0.827826
     10          1           0        0.251945   -1.536774   -0.316331
     11          6           0       -4.334789   -0.382063   -0.355847
     12          6           0       -5.505087    0.058085    0.524299
     13          6           0       -6.798220    0.256073   -0.267157
     14          1           0       -4.173461    0.368759   -1.141745
     15          1           0       -4.600323   -1.317505   -0.867106
     16          1           0       -5.236662    0.992486    1.033669
     17          1           0       -5.663272   -0.692661    1.309139
     18          1           0       -7.092938   -0.674629   -0.762673
     19          1           0       -6.663905    1.020093   -1.039708
     20          1           0       -7.621750    0.570590    0.381485
     21          6           0        3.857598   -0.220921   -0.273354
     22          6           0        5.144747   -0.772926    0.340263
     23          6           0        5.476894   -2.182177   -0.151146
     24          1           0        3.026050   -0.898778   -0.036748
     25          1           0        3.954493   -0.215244   -1.367874
     26          1           0        5.045979   -0.776267    1.433355
     27          1           0        5.973292   -0.093576    0.102331
     28          1           0        5.602303   -2.191351   -1.238707
     29          1           0        4.669721   -2.877920    0.099880
     30          1           0        6.400751   -2.557346    0.300070
     31          6           0        3.512208    1.187105    0.208201
     32          6           0        2.225059    1.739109   -0.405418
     33          6           0        1.892911    3.148361    0.085992
     34          1           0        3.415312    1.181428    1.302720
     35          1           0        4.343756    1.864962   -0.028405
     36          1           0        1.396513    1.059760   -0.167485
     37          1           0        2.323825    1.742451   -1.498509
     38          1           0        2.700084    3.844104   -0.165034
     39          1           0        1.767503    3.157534    1.173553
     40          1           0        0.969054    3.523530   -0.365224
 ---------------------------------------------------------------------

 SCF Done:  E(RHF) =  -470.733003028     A.U. after   11 cycles
 E2 =    -0.1583046595D+01 EUMP2 =    -0.47231604962271D+03

 The electronic state is 1-A.
 Alpha  occ. eigenvalues --  -11.21653 -11.21621 -11.21563 -11.21489 -11.21437
 Alpha  occ. eigenvalues --  -11.21377 -11.21351 -11.21292 -11.21143 -11.21085
 Alpha  occ. eigenvalues --  -11.21048 -11.21043  -1.08468  -1.08377  -1.03579
 Alpha  occ. eigenvalues --   -1.03479  -0.96028  -0.95940  -0.87055  -0.86950
 Alpha  occ. eigenvalues --   -0.79666  -0.79525  -0.78284  -0.78181  -0.65151
 Alpha  occ. eigenvalues --   -0.64973  -0.61107  -0.60771  -0.59402  -0.59298
 Alpha  occ. eigenvalues --   -0.57644  -0.57540  -0.55357  -0.55201  -0.52757
 Alpha  occ. eigenvalues --   -0.52610  -0.52458  -0.52358  -0.50087  -0.49809
 Alpha  occ. eigenvalues --   -0.47982  -0.47830  -0.46803  -0.46447  -0.45850
 Alpha  occ. eigenvalues --   -0.45761  -0.45707  -0.45534  -0.43801  -0.43729
 Alpha virt. eigenvalues --    0.21290   0.23045   0.23839   0.24408   0.26051
 Alpha virt. eigenvalues --    0.26648   0.27037   0.27500   0.27878   0.29025
 Alpha virt. eigenvalues --    0.30562   0.31609   0.31655   0.31805   0.32117

 Mulliken charges:
               1
     1  C   -0.298644
     2  C   -0.300600
     3  C   -0.481529
     4  H    0.149927
     5  H    0.149582
     6  H    0.152968
     7  H    0.152419
     8  H    0.155716
     9  H    0.157516
    10  H    0.163265
    11  C   -0.298326
    12  C   -0.299693
    13  C   -0.475731
    14  H    0.149666
    15  H    0.149734
    16  H    0.152027
    17  H    0.151941
    18  H    0.155207
    19  H    0.155244
    20  H    0.160329
    21  C   -0.301868
    22  C   -0.299487
    23  C   -0.475737
    24  H    0.153367
    25  H    0.149052
    26  H    0.151980
    27  H    0.151831
    28  H    0.155001
    29  H    0.155185
    30  H    0.160143
    31  C   -0.297311
    32  C   -0.309236
    33  C   -0.475416
    34  H    0.149123
    35  H    0.149306
    36  H    0.162810
    37  H    0.151108
    38  H    0.155209
    39  H    0.154574
    40  H    0.159348
 Sum of Mulliken charges =  -0.00000

 Dipole moment (field-independent basis, Debye):
    X=             -0.0446    Y=             -0.0317    Z=              0.0021  Tot=              0.0548
 Quadrupole moment (field-independent basis, Debye-Ang):
   XX=            -85.6973   YY=            -84.8178   ZZ=            -84.4334
   XY=              0.9833   XZ=             -0.7686   YZ=             -0.6461

 Normal termination of Gaussian 16 at Thu May  6 00:43:14 2021.
