 Gaussian 16, Revision A.03,
 Gaussian 16:  EM64L-G16RevA.03 25-Dec-2016

 -------------
 #p 6-31g* mp2
 -------------

 ------------------------------------------------------
 Input file generated by CHIRIPA (05-May-2021 14:51:11)
 ------------------------------------------------------
 Symbolic Z-matrix:
 Charge =  0 Multiplicity = 1

                         Standard orientation:
 ---------------------------------------------------------------------
 Center     Atomic      Atomic             Coordinates (Angstroms)
 Number     Number       Type             X           Y           Z
 ---------------------------------------------------------------------
      1          6           0        2.979450   -0.699710    0.610922
      2          6           0        1.692592   -1.254118   -0.001134
      3          6           0        0.839119   -2.019983    1.010216
      4          1           0        3.563988   -1.528650    1.032965
      5          1           0        2.722864   -0.038924    1.450517
      6          1           0        1.951477   -1.912573   -0.840199
      7          1           0        1.111141   -0.423784   -0.421939
      8          1           0        0.552132   -1.369683    1.842892
      9          1           0        1.397243   -2.866931    1.422255
     10          1           0       -0.075873   -2.407571    0.551495
     11          6           0        3.843322    0.068466   -0.387758
     12          6           0        5.130181    0.622873    0.224298
     13          6           0        5.983654    1.388739   -0.787052
     14          1           0        4.099908   -0.592321   -1.227353
     15          1           0        3.258785    0.897405   -0.809801
     16          1           0        5.711632   -0.207460    0.645102
     17          1           0        4.871295    1.281328    1.063363
     18          1           0        5.425529    2.235687   -1.199091
     19          1           0        6.270640    0.738439   -1.619728
     20          1           0        6.898646    1.776327   -0.328331
     21          6           0       -3.629830    1.016297   -0.323171
     22          6           0       -3.099362    2.119415    0.593190
     23          6           0       -3.544881    3.515472    0.156917
     24          1           0       -3.290128    1.206822   -1.350423
     25          1           0       -4.727497    1.062288   -0.343348
     26          1           0       -2.003077    2.070480    0.612718
     27          1           0       -3.440207    1.926137    1.618414
     28          1           0       -4.637267    3.588220    0.155129
     29          1           0       -3.191971    3.733384   -0.856281
     30          1           0       -3.154465    4.288787    0.825810
     31          6           0       -3.192942   -0.385052    0.100007
     32          6           0       -3.723411   -1.488171   -0.816353
     33          6           0       -3.277891   -2.884228   -0.380081
     34          1           0       -2.095275   -0.431043    0.120183
     35          1           0       -3.532645   -0.575578    1.127259
     36          1           0       -3.382565   -1.294892   -1.841578
     37          1           0       -4.819695   -1.439236   -0.835882
     38          1           0       -3.630801   -3.102139    0.633117
     39          1           0       -2.185506   -2.956976   -0.378293
     40          1           0       -3.668308   -3.657543   -1.048974
 ---------------------------------------------------------------------

 SCF Done:  E(RHF) =  -470.733192350     A.U. after   11 cycles
 E2 =    -0.1582963652D+01 EUMP2 =    -0.47231615600247D+03

 The electronic state is 1-A.
 Alpha  occ. eigenvalues --  -11.21650 -11.21620 -11.21616 -11.21600 -11.21432
 Alpha  occ. eigenvalues --  -11.21396 -11.21373 -11.21332 -11.21086 -11.21084
 Alpha  occ. eigenvalues --  -11.21073 -11.21070  -1.08462  -1.08426  -1.03570
 Alpha  occ. eigenvalues --   -1.03524  -0.96013  -0.95977  -0.87037  -0.86986
 Alpha  occ. eigenvalues --   -0.79650  -0.79569  -0.78270  -0.78240  -0.65123
 Alpha  occ. eigenvalues --   -0.65036  -0.60988  -0.60934  -0.59480  -0.59256
 Alpha  occ. eigenvalues --   -0.57690  -0.57525  -0.55328  -0.55241  -0.52770
 Alpha  occ. eigenvalues --   -0.52676  -0.52473  -0.52320  -0.49957  -0.49909
 Alpha  occ. eigenvalues --   -0.48022  -0.47824  -0.46653  -0.46618  -0.45818
 Alpha  occ. eigenvalues --   -0.45773  -0.45749  -0.45675  -0.43799  -0.43759
 Alpha virt. eigenvalues --    0.20569   0.23168   0.23431   0.24652   0.26238
 Alpha virt. eigenvalues --    0.26524   0.27043   0.27328   0.27712   0.29315
 Alpha virt. eigenvalues --    0.30166   0.31472   0.31776   0.31880   0.31958

 Mulliken charges:
               1
     1  C   -0.298463
     2  C   -0.300447
     3  C   -0.483736
     4  H    0.149968
     5  H    0.149728
     6  H    0.152016
     7  H    0.151470
     8  H    0.155997
     9  H    0.155443
    10  H    0.167626
    11  C   -0.298240
    12  C   -0.299686
    13  C   -0.475723
    14  H    0.149571
    15  H    0.149471
    16  H    0.152030
    17  H    0.152001
    18  H    0.155169
    19  H    0.155204
    20  H    0.160343
    21  C   -0.298233
    22  C   -0.299483
    23  C   -0.475699
    24  H    0.149511
    25  H    0.149593
    26  H    0.151274
    27  H    0.152045
    28  H    0.155314
    29  H    0.155143
    30  H    0.160159
    31  C   -0.302416
    32  C   -0.299484
    33  C   -0.481551
    34  H    0.154356
    35  H    0.149670
    36  H    0.151784
    37  H    0.151987
    38  H    0.155626
    39  H    0.160164
    40  H    0.160497
 Sum of Mulliken charges =  -0.00000

 Dipole moment (field-independent basis, Debye):
    X=              0.0029    Y=             -0.0116    Z=              0.0109  Tot=              0.0162
 Quadrupole moment (field-independent basis, Debye-Ang):
   XX=            -84.3983   YY=            -85.5071   ZZ=            -84.7946
   XY=             -0.5231   XZ=             -0.2317   YZ=              0.7090

 Normal termination of Gaussian 16 at Thu May  6 05:27:01 2021.
