 Gaussian 16, Revision A.03,
 Gaussian 16:  EM64L-G16RevA.03 25-Dec-2016

 -------------
 #p 6-31g* mp2
 -------------

 ------------------------------------------------------
 Input file generated by CHIRIPA (05-May-2021 14:53:15)
 ------------------------------------------------------
 Symbolic Z-matrix:
 Charge =  0 Multiplicity = 1

                         Standard orientation:
 ---------------------------------------------------------------------
 Center     Atomic      Atomic             Coordinates (Angstroms)
 Number     Number       Type             X           Y           Z
 ---------------------------------------------------------------------
      1          6           0       -4.349489    0.764787   -0.026896
      2          6           0       -3.314037    1.805863    0.399699
      3          6           0       -3.833531    3.239057    0.281897
      4          1           0       -4.652802    0.962277   -1.064173
      5          1           0       -5.251400    0.880730    0.589959
      6          1           0       -2.413825    1.687088   -0.216846
      7          1           0       -3.013012    1.605757    1.436018
      8          1           0       -4.718714    3.380841    0.910346
      9          1           0       -4.116122    3.462635   -0.751909
     10          1           0       -3.077267    3.966958    0.591871
     11          6           0       -3.844937   -0.672771    0.085275
     12          6           0       -4.880389   -1.713847   -0.341320
     13          6           0       -4.360895   -3.147041   -0.223518
     14          1           0       -2.943026   -0.788714   -0.531580
     15          1           0       -3.541624   -0.870261    1.122552
     16          1           0       -5.181414   -1.513741   -1.377639
     17          1           0       -5.780601   -1.595072    0.275225
     18          1           0       -4.078303   -3.370619    0.810288
     19          1           0       -3.475712   -3.288825   -0.851967
     20          1           0       -5.117159   -3.874942   -0.533492
     21          6           0        0.699605    0.282394   -0.111523
     22          6           0        1.235565   -0.929624    0.336002
     23          6           0        2.619956   -1.117145    0.389351
     24          6           0        3.442768   -0.066719   -0.014227
     25          6           0        2.939107    1.152523   -0.464853
     26          6           0        1.551585    1.317774   -0.509820
     27          1           0       -0.377039    0.419416   -0.149710
     28          1           0        0.576315   -1.735457    0.645949
     29          1           0        3.061640   -2.045146    0.731623
     30          1           0        3.621654    1.937445   -0.767250
     31          1           0        1.138156    2.260124   -0.857814
     32          7           0        4.910018   -0.253452    0.037814
     33          8           0        5.613494    0.687485   -0.323289
     34          8           0        5.328790   -1.337215    0.438720
 ---------------------------------------------------------------------

 SCF Done:  E(RHF) =  -669.535584359     A.U. after   15 cycles
 E2 =    -0.2091422603D+01 EUMP2 =    -0.67162700696228D+03

 The electronic state is 1-A.
 Alpha  occ. eigenvalues --  -20.60701 -20.60696 -15.85755 -11.31101 -11.27676
 Alpha  occ. eigenvalues --  -11.27670 -11.27352 -11.26675 -11.26660 -11.22861
 Alpha  occ. eigenvalues --  -11.22550 -11.22472 -11.22423 -11.22051 -11.21876
 Alpha  occ. eigenvalues --   -1.59778  -1.39332  -1.19271  -1.09506  -1.08662
 Alpha  occ. eigenvalues --   -1.04675  -1.04534  -0.96956  -0.95504  -0.87972
 Alpha  occ. eigenvalues --   -0.86069  -0.82345  -0.80623  -0.79350  -0.77393
 Alpha  occ. eigenvalues --   -0.71973  -0.71101  -0.70384  -0.66126  -0.64920
 Alpha  occ. eigenvalues --   -0.64676  -0.62028  -0.61924  -0.60338  -0.58581
 Alpha  occ. eigenvalues --   -0.56231  -0.55198  -0.53624  -0.53380  -0.53003
 Alpha  occ. eigenvalues --   -0.52763  -0.50896  -0.48923  -0.48729  -0.48726
 Alpha  occ. eigenvalues --   -0.47654  -0.46844  -0.46778  -0.44801  -0.44741
 Alpha  occ. eigenvalues --   -0.37241  -0.36285
 Alpha virt. eigenvalues --    0.05142   0.11369   0.16629   0.19150   0.22494
 Alpha virt. eigenvalues --    0.23231   0.24799   0.25880   0.26775   0.27221
 Alpha virt. eigenvalues --    0.29773   0.30409   0.30772   0.31068   0.31884

 Mulliken charges:
               1
     1  C   -0.298385
     2  C   -0.304658
     3  C   -0.475785
     4  H    0.152597
     5  H    0.154390
     6  H    0.142727
     7  H    0.154731
     8  H    0.159683
     9  H    0.157491
    10  H    0.161424
    11  C   -0.301531
    12  C   -0.300023
    13  C   -0.476751
    14  H    0.143089
    15  H    0.149971
    16  H    0.154553
    17  H    0.155277
    18  H    0.155247
    19  H    0.154109
    20  H    0.164279
    21  C   -0.179358
    22  C   -0.221454
    23  C   -0.170695
    24  C    0.158016
    25  C   -0.170788
    26  C   -0.221672
    27  H    0.239597
    28  H    0.224155
    29  H    0.275219
    30  H    0.275229
    31  H    0.222713
    32  N    0.488023
    33  O   -0.460738
    34  O   -0.460679
 Sum of Mulliken charges =  -0.00000

 Dipole moment (field-independent basis, Debye):
    X=             -5.5090    Y=              0.6753    Z=             -0.1537  Tot=              5.5524
 Quadrupole moment (field-independent basis, Debye-Ang):
   XX=           -129.5209   YY=            -91.3914   ZZ=            -93.9754
   XY=              3.4994   XZ=             -1.2306   YZ=             -1.8377

 Normal termination of Gaussian 16 at Thu May  6 04:15:27 2021.
