 Gaussian 16, Revision A.03,
 Gaussian 16:  EM64L-G16RevA.03 25-Dec-2016

 -------------
 #p 6-31g* mp2
 -------------

 ------------------------------------------------------
 Input file generated by CHIRIPA (05-May-2021 14:57:24)
 ------------------------------------------------------
 Symbolic Z-matrix:
 Charge =  0 Multiplicity = 1

                         Standard orientation:
 ---------------------------------------------------------------------
 Center     Atomic      Atomic             Coordinates (Angstroms)
 Number     Number       Type             X           Y           Z
 ---------------------------------------------------------------------
      1          6           0        2.021260   -1.554217    1.220890
      2          6           0        3.100662   -2.189169    0.597795
      3          6           0        4.093462   -1.439533   -0.040125
      4          6           0        3.974788   -0.050581   -0.035732
      5          6           0        2.911473    0.611278    0.576308
      6          6           0        1.930271   -0.158480    1.208181
      7          1           0        1.254534   -2.144368    1.714093
      8          1           0        3.173917   -3.272963    0.606088
      9          1           0        4.939793   -1.905291   -0.530238
     10          1           0        2.865756    1.693271    0.551419
     11          1           0        1.093114    0.337337    1.691274
     12          7           0        5.019681    0.753676   -0.707869
     13          8           0        4.892075    1.975982   -0.689965
     14          8           0        5.946490    0.146518   -1.239866
     15          6           0       -2.959742    2.472246    0.569558
     16          6           0       -2.174347    1.341687    0.817568
     17          6           0       -2.631250    0.068413    0.464634
     18          6           0       -3.884059   -0.038171   -0.137362
     19          6           0       -4.689909    1.069175   -0.397521
     20          6           0       -4.212807    2.332628   -0.036129
     21          1           0       -2.596963    3.457542    0.847011
     22          1           0       -1.200797    1.447108    1.287816
     23          1           0       -2.043819   -0.823647    0.645110
     24          1           0       -5.656152    0.932390   -0.867715
     25          1           0       -4.824914    3.208874   -0.229944
     26          7           0       -4.378453   -1.380931   -0.515475
     27          8           0       -5.485758   -1.448071   -1.044628
     28          8           0       -3.649292   -2.340819   -0.275527
 ---------------------------------------------------------------------

 SCF Done:  E(RHF) =  -868.336872710     A.U. after   16 cycles
 E2 =    -0.2599576902D+01 EUMP2 =    -0.87093644961252D+03

 The electronic state is 1-A.
 Alpha  occ. eigenvalues --  -20.61311 -20.61291 -20.61127 -20.61113 -15.86363
 Alpha  occ. eigenvalues --  -15.86182 -11.31782 -11.31626 -11.28446 -11.28320
 Alpha  occ. eigenvalues --  -11.28292 -11.28174 -11.28109 -11.27991 -11.27500
 Alpha  occ. eigenvalues --  -11.27398 -11.27323 -11.27167  -1.60376  -1.60196
 Alpha  occ. eigenvalues --   -1.39930  -1.39748  -1.19966  -1.19822  -1.09344
 Alpha  occ. eigenvalues --   -1.09200  -1.05400  -1.05251  -0.96170  -0.96016
 Alpha  occ. eigenvalues --   -0.86797  -0.86646  -0.83024  -0.82855  -0.78079
 Alpha  occ. eigenvalues --   -0.77880  -0.72581  -0.72399  -0.71698  -0.71520
 Alpha  occ. eigenvalues --   -0.71068  -0.70918  -0.65634  -0.65553  -0.65483
 Alpha  occ. eigenvalues --   -0.65188  -0.62848  -0.62512  -0.55873  -0.55736
 Alpha  occ. eigenvalues --   -0.53697  -0.53616  -0.53547  -0.53254  -0.49344
 Alpha  occ. eigenvalues --   -0.49330  -0.49164  -0.49148  -0.45324  -0.45137
 Alpha  occ. eigenvalues --   -0.37927  -0.37795  -0.37004  -0.36836
 Alpha virt. eigenvalues --    0.04507   0.04667   0.10658   0.10753   0.15968
 Alpha virt. eigenvalues --    0.16122   0.17833   0.22153   0.24466   0.26328
 Alpha virt. eigenvalues --    0.28031   0.29029   0.29626   0.31469   0.32518

 Mulliken charges:
               1
     1  C   -0.171375
     2  C   -0.217707
     3  C   -0.169380
     4  C    0.158934
     5  C   -0.170357
     6  C   -0.221891
     7  H    0.228509
     8  H    0.227516
     9  H    0.277923
    10  H    0.273828
    11  H    0.215905
    12  N    0.488214
    13  O   -0.460934
    14  O   -0.458316
    15  C   -0.170369
    16  C   -0.218981
    17  C   -0.169832
    18  C    0.159030
    19  C   -0.169674
    20  C   -0.218108
    21  H    0.228178
    22  H    0.216902
    23  H    0.269658
    24  H    0.277739
    25  H    0.226239
    26  N    0.488429
    27  O   -0.457816
    28  O   -0.462261
 Sum of Mulliken charges =  -0.00000

 Dipole moment (field-independent basis, Debye):
    X=             -1.9568    Y=              1.8368    Z=              3.5701  Tot=              4.4664
 Quadrupole moment (field-independent basis, Debye-Ang):
   XX=           -142.0664   YY=           -100.6987   ZZ=           -106.0793
   XY=            -34.7541   XZ=              5.2414   YZ=             -0.4438

 Normal termination of Gaussian 16 at Fri May  7 00:21:00 2021.
