 Gaussian 16, Revision A.03,
 Gaussian 16:  EM64L-G16RevA.03 25-Dec-2016

 -------------
 #p 6-31g* mp2
 -------------

 ------------------------------------------------------
 Input file generated by CHIRIPA (05-May-2021 14:53:17)
 ------------------------------------------------------
 Symbolic Z-matrix:
 Charge =  0 Multiplicity = 1

                         Standard orientation:
 ---------------------------------------------------------------------
 Center     Atomic      Atomic             Coordinates (Angstroms)
 Number     Number       Type             X           Y           Z
 ---------------------------------------------------------------------
      1          6           0        3.997162   -0.231981   -0.046989
      2          6           0        3.511215   -1.559145   -0.630493
      3          6           0        4.482816   -2.710591   -0.369805
      4          1           0        4.979517    0.011390   -0.474416
      5          1           0        4.147334   -0.348357    1.035278
      6          1           0        3.360681   -1.439913   -1.711112
      7          1           0        2.529816   -1.799289   -0.201771
      8          1           0        4.625527   -2.858253    0.705569
      9          1           0        5.461113   -2.496835   -0.812348
     10          1           0        4.115810   -3.649738   -0.795447
     11          6           0        3.036541    0.928711   -0.299431
     12          6           0        3.522488    2.255875    0.284073
     13          6           0        2.550887    3.407321    0.023386
     14          1           0        2.886369    1.045086   -1.381697
     15          1           0        2.054186    0.685340    0.127996
     16          1           0        4.503887    2.496019   -0.144649
     17          1           0        3.673022    2.136643    1.364693
     18          1           0        1.572590    3.193565    0.465929
     19          1           0        2.408176    3.554983   -1.051989
     20          1           0        2.917893    4.346467    0.449027
     21          6           0       -0.661136   -0.935425    1.389481
     22          6           0       -1.817952   -0.582700    2.092248
     23          6           0       -2.979725   -0.213523    1.407748
     24          6           0       -2.949246   -0.208038    0.014072
     25          6           0       -1.812337   -0.554285   -0.714516
     26          6           0       -0.662019   -0.920118   -0.009192
     27          1           0        0.236908   -1.220912    1.929305
     28          1           0       -1.820167   -0.593684    3.178489
     29          1           0       -3.889109    0.064116    1.926744
     30          1           0       -1.840691   -0.533820   -1.797195
     31          1           0        0.234932   -1.193571   -0.557597
     32          7           0       -4.173100    0.181023   -0.721599
     33          8           0       -4.120446    0.177822   -1.949547
     34          8           0       -5.161836    0.481805   -0.056342
 ---------------------------------------------------------------------

 SCF Done:  E(RHF) =  -669.535297183     A.U. after   15 cycles
 E2 =    -0.2092487439D+01 EUMP2 =    -0.67162778462230D+03

 The electronic state is 1-A.
 Alpha  occ. eigenvalues --  -20.60756 -20.60751 -15.85808 -11.31185 -11.27749
 Alpha  occ. eigenvalues --  -11.27729 -11.27499 -11.26775 -11.26707 -11.22759
 Alpha  occ. eigenvalues --  -11.22296 -11.22229 -11.22156 -11.21966 -11.21514
 Alpha  occ. eigenvalues --   -1.59831  -1.39384  -1.19354  -1.09302  -1.08749
 Alpha  occ. eigenvalues --   -1.04752  -1.04326  -0.96737  -0.95584  -0.87754
 Alpha  occ. eigenvalues --   -0.86160  -0.82411  -0.80434  -0.79120  -0.77448
 Alpha  occ. eigenvalues --   -0.72027  -0.71153  -0.70470  -0.66000  -0.65000
 Alpha  occ. eigenvalues --   -0.64717  -0.62120  -0.61707  -0.60121  -0.58357
 Alpha  occ. eigenvalues --   -0.56017  -0.55262  -0.53443  -0.53202  -0.53038
 Alpha  occ. eigenvalues --   -0.52848  -0.50685  -0.48819  -0.48781  -0.48692
 Alpha  occ. eigenvalues --   -0.47478  -0.46599  -0.46539  -0.44787  -0.44583
 Alpha  occ. eigenvalues --   -0.37326  -0.36337
 Alpha virt. eigenvalues --    0.05065   0.11164   0.16553   0.19282   0.22622
 Alpha virt. eigenvalues --    0.23680   0.25072   0.25760   0.27251   0.27967
 Alpha virt. eigenvalues --    0.29584   0.30183   0.30922   0.31364   0.31636

 Mulliken charges:
               1
     1  C   -0.298269
     2  C   -0.304329
     3  C   -0.475423
     4  H    0.154319
     5  H    0.148702
     6  H    0.154842
     7  H    0.141624
     8  H    0.155669
     9  H    0.159591
    10  H    0.162424
    11  C   -0.304336
    12  C   -0.299679
    13  C   -0.476661
    14  H    0.150990
    15  H    0.148128
    16  H    0.154018
    17  H    0.151178
    18  H    0.156928
    19  H    0.157013
    20  H    0.162255
    21  C   -0.174201
    22  C   -0.218562
    23  C   -0.171306
    24  C    0.158937
    25  C   -0.172646
    26  C   -0.222601
    27  H    0.225170
    28  H    0.223346
    29  H    0.275609
    30  H    0.276180
    31  H    0.233803
    32  N    0.487945
    33  O   -0.460221
    34  O   -0.460436
 Sum of Mulliken charges =  -0.00000

 Dipole moment (field-independent basis, Debye):
    X=              4.4714    Y=             -1.3150    Z=              2.5435  Tot=              5.3096
 Quadrupole moment (field-independent basis, Debye-Ang):
   XX=           -118.9468   YY=            -95.4255   ZZ=            -90.2510
   XY=              3.4031   XZ=            -10.6940   YZ=              0.0725

 Normal termination of Gaussian 16 at Thu May  6 01:11:25 2021.
