 Gaussian 16, Revision A.03,
 Gaussian 16:  EM64L-G16RevA.03 25-Dec-2016

 -------------
 #p 6-31g* mp2
 -------------

 ------------------------------------------------------
 Input file generated by CHIRIPA (05-May-2021 14:51:07)
 ------------------------------------------------------
 Symbolic Z-matrix:
 Charge =  0 Multiplicity = 1

                         Standard orientation:
 ---------------------------------------------------------------------
 Center     Atomic      Atomic             Coordinates (Angstroms)
 Number     Number       Type             X           Y           Z
 ---------------------------------------------------------------------
      1          6           0        4.466295   -0.242825    0.265946
      2          6           0        5.301557   -1.192672   -0.593189
      3          6           0        6.187957   -2.118671    0.240246
      4          1           0        5.137129    0.357934    0.895244
      5          1           0        3.840786   -0.832696    0.950188
      6          1           0        5.924286   -0.601213   -1.276564
      7          1           0        4.628666   -1.791106   -1.220654
      8          1           0        5.579328   -2.733462    0.911220
      9          1           0        6.882309   -1.536809    0.854992
     10          1           0        6.776331   -2.789123   -0.393922
     11          6           0        3.574958    0.689236   -0.552899
     12          6           0        2.739696    1.639082    0.306237
     13          6           0        1.853296    2.565082   -0.527199
     14          1           0        4.200466    1.279106   -1.237140
     15          1           0        2.904124    0.088476   -1.182196
     16          1           0        3.412586    2.237516    0.933701
     17          1           0        2.116967    1.047624    0.989611
     18          1           0        1.158944    1.983219   -1.141944
     19          1           0        2.461925    3.179872   -1.198172
     20          1           0        1.264922    3.235533    0.106970
     21          6           0       -4.759118   -0.063370    0.255347
     22          6           0       -5.699214   -0.904161   -0.609105
     23          6           0       -7.173235   -0.572853   -0.373972
     24          1           0       -5.007106   -0.219419    1.314165
     25          1           0       -4.934404    1.001151    0.046866
     26          1           0       -5.521240   -1.966821   -0.400065
     27          1           0       -5.448832   -0.746241   -1.665980
     28          1           0       -7.372579    0.479391   -0.601228
     29          1           0       -7.445398   -0.748123    0.671881
     30          1           0       -7.827547   -1.185439   -1.002045
     31          6           0       -3.282135   -0.383040    0.031606
     32          6           0       -2.342040    0.457752    0.896057
     33          6           0       -0.868018    0.126443    0.660925
     34          1           0       -3.106849   -1.447561    0.240087
     35          1           0       -3.034146   -0.226992   -1.027212
     36          1           0       -2.592420    0.299830    1.952933
     37          1           0       -2.520013    1.520410    0.687017
     38          1           0       -0.595854    0.301713   -0.384928
     39          1           0       -0.668674   -0.925802    0.888180
     40          1           0       -0.213706    0.739028    1.288997
 ---------------------------------------------------------------------

 SCF Done:  E(RHF) =  -470.732526279     A.U. after   11 cycles
 E2 =    -0.1583239035D+01 EUMP2 =    -0.47231576531453D+03

 The electronic state is 1-A.
 Alpha  occ. eigenvalues --  -11.21618 -11.21613 -11.21561 -11.21488 -11.21421
 Alpha  occ. eigenvalues --  -11.21362 -11.21344 -11.21282 -11.21080 -11.21079
 Alpha  occ. eigenvalues --  -11.21041 -11.20984  -1.08450  -1.08364  -1.03578
 Alpha  occ. eigenvalues --   -1.03442  -0.96050  -0.95877  -0.87039  -0.86924
 Alpha  occ. eigenvalues --   -0.79628  -0.79528  -0.78261  -0.78183  -0.65106
 Alpha  occ. eigenvalues --   -0.64986  -0.61107  -0.60793  -0.59447  -0.59190
 Alpha  occ. eigenvalues --   -0.57690  -0.57449  -0.55489  -0.55031  -0.52688
 Alpha  occ. eigenvalues --   -0.52595  -0.52457  -0.52319  -0.50090  -0.49707
 Alpha  occ. eigenvalues --   -0.47944  -0.47850  -0.46691  -0.46493  -0.45814
 Alpha  occ. eigenvalues --   -0.45736  -0.45705  -0.45635  -0.43773  -0.43693
 Alpha virt. eigenvalues --    0.21437   0.23015   0.23600   0.25126   0.26062
 Alpha virt. eigenvalues --    0.26402   0.26869   0.27645   0.27752   0.29343
 Alpha virt. eigenvalues --    0.29598   0.30817   0.31509   0.32057   0.32459

 Mulliken charges:
               1
     1  C   -0.298363
     2  C   -0.299622
     3  C   -0.475668
     4  H    0.149398
     5  H    0.149754
     6  H    0.151784
     7  H    0.151935
     8  H    0.155115
     9  H    0.155083
    10  H    0.160095
    11  C   -0.297970
    12  C   -0.304556
    13  C   -0.476328
    14  H    0.149092
    15  H    0.149726
    16  H    0.151200
    17  H    0.157483
    18  H    0.157382
    19  H    0.154379
    20  H    0.159106
    21  C   -0.298285
    22  C   -0.299634
    23  C   -0.475712
    24  H    0.149666
    25  H    0.149655
    26  H    0.151889
    27  H    0.151958
    28  H    0.155240
    29  H    0.155186
    30  H    0.160282
    31  C   -0.298722
    32  C   -0.299794
    33  C   -0.479903
    34  H    0.149412
    35  H    0.149589
    36  H    0.151866
    37  H    0.152425
    38  H    0.156815
    39  H    0.154149
    40  H    0.164894
 Sum of Mulliken charges =  -0.00000

 Dipole moment (field-independent basis, Debye):
    X=             -0.0320    Y=             -0.0053    Z=              0.0091  Tot=              0.0336
 Quadrupole moment (field-independent basis, Debye-Ang):
   XX=            -86.0970   YY=            -84.4514   ZZ=            -84.4617
   XY=              1.1386   XZ=             -0.2951   YZ=             -0.2064

 Normal termination of Gaussian 16 at Thu May  6 08:25:18 2021.
