 Gaussian 16, Revision A.03,
 Gaussian 16:  EM64L-G16RevA.03 25-Dec-2016

 -------------
 #p 6-31g* mp2
 -------------

 ------------------------------------------------------
 Input file generated by CHIRIPA (05-May-2021 14:51:10)
 ------------------------------------------------------
 Symbolic Z-matrix:
 Charge =  0 Multiplicity = 1

                         Standard orientation:
 ---------------------------------------------------------------------
 Center     Atomic      Atomic             Coordinates (Angstroms)
 Number     Number       Type             X           Y           Z
 ---------------------------------------------------------------------
      1          6           0       -4.229810   -0.255891   -0.235868
      2          6           0       -3.916133   -1.705229    0.136976
      3          6           0       -5.080875   -2.654103   -0.147292
      4          1           0       -5.118062    0.074904    0.319585
      5          1           0       -4.491752   -0.207314   -1.301899
      6          1           0       -3.653517   -1.750848    1.201667
      7          1           0       -3.028412   -2.032550   -0.419286
      8          1           0       -5.339955   -2.638204   -1.210884
      9          1           0       -5.968612   -2.354901    0.419279
     10          1           0       -4.835049   -3.684827    0.126636
     11          6           0       -3.075085    0.704762    0.042491
     12          6           0       -3.388762    2.154100   -0.330353
     13          6           0       -2.224020    3.102974   -0.046085
     14          1           0       -2.813143    0.656185    1.108521
     15          1           0       -2.186833    0.373967   -0.512963
     16          1           0       -4.276483    2.481421    0.225908
     17          1           0       -3.651378    2.199719   -1.395045
     18          1           0       -1.336283    2.803772   -0.612657
     19          1           0       -1.964940    3.087075    1.017506
     20          1           0       -2.469846    4.133698   -0.320013
     21          6           0        2.951200   -0.500385   -0.027953
     22          6           0        1.857480    0.262761    0.719959
     23          6           0        0.460160   -0.301137    0.460515
     24          1           0        2.737395   -0.473010   -1.105210
     25          1           0        2.920263   -1.557556    0.270087
     26          1           0        1.891368    1.318446    0.421634
     27          1           0        2.074016    0.233729    1.795545
     28          1           0        0.402732   -1.348167    0.775207
     29          1           0        0.219046   -0.257287   -0.606510
     30          1           0       -0.306348    0.259248    1.004844
     31          6           0        4.353695    0.051514    0.221331
     32          6           0        5.447415   -0.711632   -0.526581
     33          6           0        6.844734   -0.147735   -0.267138
     34          1           0        4.384632    1.108684   -0.076710
     35          1           0        4.567499    0.024139    1.298587
     36          1           0        5.230879   -0.682601   -1.602167
     37          1           0        5.413527   -1.767317   -0.228256
     38          1           0        7.085849   -0.191584    0.799888
     39          1           0        6.902164    0.899295   -0.581830
     40          1           0        7.611242   -0.708120   -0.811467
 ---------------------------------------------------------------------

 SCF Done:  E(RHF) =  -470.731781095     A.U. after   11 cycles
 E2 =    -0.1583772826D+01 EUMP2 =    -0.47231555392121D+03

 The electronic state is 1-A.
 Alpha  occ. eigenvalues --  -11.21587 -11.21555 -11.21541 -11.21538 -11.21378
 Alpha  occ. eigenvalues --  -11.21318 -11.21313 -11.21214 -11.21067 -11.21060
 Alpha  occ. eigenvalues --  -11.21028 -11.20941  -1.08417  -1.08355  -1.03523
 Alpha  occ. eigenvalues --   -1.03461  -0.95994  -0.95894  -0.87044  -0.86892
 Alpha  occ. eigenvalues --   -0.79666  -0.79491  -0.78272  -0.78101  -0.65079
 Alpha  occ. eigenvalues --   -0.64966  -0.60963  -0.60826  -0.59483  -0.59169
 Alpha  occ. eigenvalues --   -0.57585  -0.57518  -0.55316  -0.55164  -0.52860
 Alpha  occ. eigenvalues --   -0.52602  -0.52376  -0.52225  -0.49992  -0.49809
 Alpha  occ. eigenvalues --   -0.47944  -0.47790  -0.46691  -0.46526  -0.45852
 Alpha  occ. eigenvalues --   -0.45712  -0.45695  -0.45468  -0.43740  -0.43577
 Alpha virt. eigenvalues --    0.21658   0.23059   0.23594   0.25009   0.25486
 Alpha virt. eigenvalues --    0.26407   0.26726   0.27402   0.28071   0.29778
 Alpha virt. eigenvalues --    0.30248   0.31195   0.31705   0.31897   0.32269

 Mulliken charges:
               1
     1  C   -0.297519
     2  C   -0.299927
     3  C   -0.475600
     4  H    0.148888
     5  H    0.148867
     6  H    0.151684
     7  H    0.152710
     8  H    0.154975
     9  H    0.155012
    10  H    0.160026
    11  C   -0.304784
    12  C   -0.298858
    13  C   -0.477001
    14  H    0.148037
    15  H    0.160327
    16  H    0.151386
    17  H    0.151384
    18  H    0.155990
    19  H    0.154629
    20  H    0.160266
    21  C   -0.298532
    22  C   -0.300156
    23  C   -0.479697
    24  H    0.149205
    25  H    0.149368
    26  H    0.151914
    27  H    0.151535
    28  H    0.154463
    29  H    0.152534
    30  H    0.169066
    31  C   -0.298171
    32  C   -0.299576
    33  C   -0.475678
    34  H    0.149475
    35  H    0.149603
    36  H    0.151794
    37  H    0.151860
    38  H    0.155162
    39  H    0.155167
    40  H    0.160170
 Sum of Mulliken charges =  -0.00000

 Dipole moment (field-independent basis, Debye):
    X=             -0.0025    Y=             -0.0011    Z=              0.0034  Tot=              0.0044
 Quadrupole moment (field-independent basis, Debye-Ang):
   XX=            -86.6965   YY=            -85.1954   ZZ=            -83.2658
   XY=             -1.0186   XZ=             -0.4513   YZ=             -0.5148

 Normal termination of Gaussian 16 at Wed May  5 15:11:58 2021.
