 Gaussian 16, Revision A.03,
 Gaussian 16:  EM64L-G16RevA.03 25-Dec-2016

 -------------
 #p 6-31g* mp2
 -------------

 ------------------------------------------------------
 Input file generated by CHIRIPA (05-May-2021 14:53:17)
 ------------------------------------------------------
 Symbolic Z-matrix:
 Charge =  0 Multiplicity = 1

                         Standard orientation:
 ---------------------------------------------------------------------
 Center     Atomic      Atomic             Coordinates (Angstroms)
 Number     Number       Type             X           Y           Z
 ---------------------------------------------------------------------
      1          6           0        5.251137   -0.338924   -0.262769
      2          6           0        6.460816   -0.647554    0.620072
      3          6           0        7.354519   -1.742393    0.036620
      4          1           0        4.664298   -1.256917   -0.403671
      5          1           0        5.601066   -0.035607   -1.259235
      6          1           0        6.108742   -0.948866    1.614996
      7          1           0        7.044739    0.271323    0.759046
      8          1           0        7.733723   -1.446704   -0.946931
      9          1           0        6.792408   -2.673826   -0.086118
     10          1           0        8.213116   -1.947058    0.683755
     11          6           0        4.348157    0.753557    0.307178
     12          6           0        3.138478    1.062188   -0.575664
     13          6           0        2.244774    2.157027    0.007788
     14          1           0        3.998228    0.450241    1.303643
     15          1           0        4.934996    1.671550    0.448079
     16          1           0        2.554554    0.143311   -0.714638
     17          1           0        3.490551    1.363499   -1.570587
     18          1           0        2.806886    3.088459    0.130527
     19          1           0        1.865570    1.861338    0.991339
     20          1           0        1.386177    2.361691   -0.639347
     21          6           0       -1.301899    0.384080   -0.292867
     22          6           0       -2.223962    1.406878   -0.047499
     23          6           0       -3.582672    1.115959    0.106836
     24          6           0       -3.986371   -0.214756    0.009289
     25          6           0       -3.091977   -1.255900   -0.234366
     26          6           0       -1.738081   -0.941708   -0.385354
     27          1           0       -0.248291    0.619113   -0.411458
     28          1           0       -1.888073    2.437409    0.024826
     29          1           0       -4.317925    1.888271    0.297504
     30          1           0       -3.456901   -2.273633   -0.301203
     31          1           0       -1.024241   -1.738071   -0.575834
     32          7           0       -5.422228   -0.535059    0.170905
     33          8           0       -5.752479   -1.715483    0.080524
     34          8           0       -6.190214    0.400378    0.384900
 ---------------------------------------------------------------------

 SCF Done:  E(RHF) =  -669.535386963     A.U. after   15 cycles
 E2 =    -0.2091238738D+01 EUMP2 =    -0.67162662570091D+03

 The electronic state is 1-A.
 Alpha  occ. eigenvalues --  -20.60707 -20.60702 -15.85761 -11.31108 -11.27683
 Alpha  occ. eigenvalues --  -11.27679 -11.27343 -11.26682 -11.26669 -11.22839
 Alpha  occ. eigenvalues --  -11.22477 -11.22319 -11.22223 -11.22130 -11.21588
 Alpha  occ. eigenvalues --   -1.59783  -1.39337  -1.19278  -1.09334  -1.08669
 Alpha  occ. eigenvalues --   -1.04683  -1.04468  -0.96924  -0.95506  -0.87938
 Alpha  occ. eigenvalues --   -0.86077  -0.82347  -0.80542  -0.79085  -0.77401
 Alpha  occ. eigenvalues --   -0.71978  -0.71107  -0.70414  -0.65960  -0.64928
 Alpha  occ. eigenvalues --   -0.64695  -0.62036  -0.61862  -0.60364  -0.58521
 Alpha  occ. eigenvalues --   -0.56256  -0.55087  -0.53594  -0.53306  -0.53009
 Alpha  occ. eigenvalues --   -0.52772  -0.50840  -0.48849  -0.48735  -0.48734
 Alpha  occ. eigenvalues --   -0.47572  -0.46638  -0.46527  -0.44747  -0.44701
 Alpha  occ. eigenvalues --   -0.37247  -0.36294
 Alpha virt. eigenvalues --    0.05133   0.11357   0.16611   0.19335   0.22453
 Alpha virt. eigenvalues --    0.23881   0.25470   0.26047   0.26464   0.27330
 Alpha virt. eigenvalues --    0.29337   0.30063   0.30555   0.31180   0.31622

 Mulliken charges:
               1
     1  C   -0.298790
     2  C   -0.300394
     3  C   -0.476159
     4  H    0.148941
     5  H    0.151138
     6  H    0.152826
     7  H    0.153285
     8  H    0.156048
     9  H    0.155470
    10  H    0.162297
    11  C   -0.298914
    12  C   -0.302148
    13  C   -0.485237
    14  H    0.151037
    15  H    0.152909
    16  H    0.146062
    17  H    0.157178
    18  H    0.165048
    19  H    0.157609
    20  H    0.152640
    21  C   -0.179567
    22  C   -0.222479
    23  C   -0.170668
    24  C    0.157973
    25  C   -0.170639
    26  C   -0.221066
    27  H    0.242093
    28  H    0.223519
    29  H    0.275315
    30  H    0.275173
    31  H    0.222849
    32  N    0.488029
    33  O   -0.460711
    34  O   -0.460668
 Sum of Mulliken charges =  -0.00000

 Dipole moment (field-independent basis, Debye):
    X=              5.3863    Y=              1.1737    Z=             -0.5404  Tot=              5.5391
 Quadrupole moment (field-independent basis, Debye-Ang):
   XX=           -134.6536   YY=            -90.4886   ZZ=            -95.3932
   XY=             -5.6223   XZ=              2.1540   YZ=              0.3710

 Normal termination of Gaussian 16 at Thu May  6 17:17:13 2021.
