 Gaussian 16, Revision A.03,
 Gaussian 16:  EM64L-G16RevA.03 25-Dec-2016

 -------------
 #p 6-31g* mp2
 -------------

 ------------------------------------------------------
 Input file generated by CHIRIPA (05-May-2021 14:53:16)
 ------------------------------------------------------
 Symbolic Z-matrix:
 Charge =  0 Multiplicity = 1

                         Standard orientation:
 ---------------------------------------------------------------------
 Center     Atomic      Atomic             Coordinates (Angstroms)
 Number     Number       Type             X           Y           Z
 ---------------------------------------------------------------------
      1          6           0       -3.532478   -0.402815   -0.105728
      2          6           0       -4.956872    0.136804    0.028054
      3          6           0       -5.829026   -0.189645   -1.184618
      4          1           0       -3.072981    0.013869   -1.012470
      5          1           0       -3.572165   -1.491720   -0.247527
      6          1           0       -4.914447    1.224185    0.170943
      7          1           0       -5.412964   -0.281064    0.934686
      8          1           0       -5.901090   -1.272767   -1.326935
      9          1           0       -5.399740    0.241035   -2.095019
     10          1           0       -6.843014    0.205402   -1.067886
     11          6           0       -2.648418   -0.084457    1.098770
     12          6           0       -1.224024   -0.624076    0.964988
     13          6           0       -0.351870   -0.297628    2.177659
     14          1           0       -2.608731    1.004447    1.240568
     15          1           0       -3.107915   -0.501142    2.005512
     16          1           0       -0.767931   -0.206209    0.058355
     17          1           0       -1.266449   -1.711458    0.822099
     18          1           0       -0.781156   -0.728308    3.088060
     19          1           0       -0.279805    0.785494    2.319977
     20          1           0        0.662118   -0.692675    2.060928
     21          6           0        3.265791   -2.184733   -0.398012
     22          6           0        2.179999   -1.826900   -1.203948
     23          6           0        1.699844   -0.513891   -1.206363
     24          6           0        2.332104    0.419955   -0.386930
     25          6           0        3.415854    0.094287    0.427144
     26          6           0        3.879171   -1.224690    0.413531
     27          1           0        3.632246   -3.207028   -0.402362
     28          1           0        1.701685   -2.570386   -1.835209
     29          1           0        0.860980   -0.209647   -1.820498
     30          1           0        3.872065    0.857523    1.045820
     31          1           0        4.722591   -1.499735    1.040459
     32          7           0        1.832699    1.813137   -0.381003
     33          8           0        2.407109    2.617204    0.349865
     34          8           0        0.876311    2.074667   -1.107336
 ---------------------------------------------------------------------

 SCF Done:  E(RHF) =  -669.534740372     A.U. after   15 cycles
 E2 =    -0.2094752230D+01 EUMP2 =    -0.67162949260183D+03

 The electronic state is 1-A.
 Alpha  occ. eigenvalues --  -20.60895 -20.60882 -15.85919 -11.31214 -11.27812
 Alpha  occ. eigenvalues --  -11.27804 -11.27563 -11.26820 -11.26801 -11.21360
 Alpha  occ. eigenvalues --  -11.21355 -11.21153 -11.21045 -11.20878 -11.20830
 Alpha  occ. eigenvalues --   -1.59950  -1.39508  -1.19427  -1.08823  -1.08176
 Alpha  occ. eigenvalues --   -1.04826  -1.03306  -0.95766  -0.95655  -0.86776
 Alpha  occ. eigenvalues --   -0.86225  -0.82497  -0.79393  -0.78027  -0.77532
 Alpha  occ. eigenvalues --   -0.72146  -0.71282  -0.70544  -0.65084  -0.64890
 Alpha  occ. eigenvalues --   -0.64723  -0.62188  -0.60691  -0.59178  -0.57434
 Alpha  occ. eigenvalues --   -0.55333  -0.55039  -0.53227  -0.52919  -0.52349
 Alpha  occ. eigenvalues --   -0.52081  -0.49696  -0.48916  -0.48896  -0.47712
 Alpha  occ. eigenvalues --   -0.46437  -0.45591  -0.45475  -0.44793  -0.43554
 Alpha  occ. eigenvalues --   -0.37365  -0.36353
 Alpha virt. eigenvalues --    0.04957   0.11175   0.16463   0.21174   0.23102
 Alpha virt. eigenvalues --    0.24437   0.26095   0.27134   0.27789   0.28000
 Alpha virt. eigenvalues --    0.28922   0.30724   0.31639   0.31805   0.31918

 Mulliken charges:
               1
     1  C   -0.298908
     2  C   -0.299711
     3  C   -0.475792
     4  H    0.151685
     5  H    0.145072
     6  H    0.155160
     7  H    0.150845
     8  H    0.152982
     9  H    0.155948
    10  H    0.160147
    11  C   -0.297264
    12  C   -0.303355
    13  C   -0.484610
    14  H    0.156614
    15  H    0.147412
    16  H    0.155643
    17  H    0.145217
    18  H    0.154335
    19  H    0.162248
    20  H    0.160017
    21  C   -0.170884
    22  C   -0.218316
    23  C   -0.171268
    24  C    0.164509
    25  C   -0.171978
    26  C   -0.218979
    27  H    0.225996
    28  H    0.224023
    29  H    0.275488
    30  H    0.275990
    31  H    0.223814
    32  N    0.489047
    33  O   -0.459292
    34  O   -0.461835
 Sum of Mulliken charges =  -0.00000

 Dipole moment (field-independent basis, Debye):
    X=              1.8539    Y=             -4.7939    Z=             -0.0486  Tot=              5.1401
 Quadrupole moment (field-independent basis, Debye-Ang):
   XX=            -85.0027   YY=            -98.4727   ZZ=            -93.5250
   XY=            -10.0891   XZ=              1.2614   YZ=              2.5275

 Normal termination of Gaussian 16 at Wed May  5 18:43:28 2021.
