 Gaussian 16, Revision A.03,
 Gaussian 16:  EM64L-G16RevA.03 25-Dec-2016

 -------------
 #p 6-31g* mp2
 -------------

 ------------------------------------------------------
 Input file generated by CHIRIPA (05-May-2021 14:57:24)
 ------------------------------------------------------
 Symbolic Z-matrix:
 Charge =  0 Multiplicity = 1

                         Standard orientation:
 ---------------------------------------------------------------------
 Center     Atomic      Atomic             Coordinates (Angstroms)
 Number     Number       Type             X           Y           Z
 ---------------------------------------------------------------------
      1          6           0       -3.440296   -2.311862    0.632290
      2          6           0       -3.040935   -1.920763   -0.649924
      3          6           0       -2.769849   -0.578262   -0.930548
      4          6           0       -2.908945    0.350833    0.099367
      5          6           0       -3.304979   -0.007635    1.386980
      6          6           0       -3.570814   -1.355735    1.644865
      7          1           0       -3.648842   -3.356925    0.841453
      8          1           0       -2.938735   -2.661129   -1.438251
      9          1           0       -2.459036   -0.247962   -1.914273
     10          1           0       -3.398029    0.753318    2.152297
     11          1           0       -3.880791   -1.656583    2.641584
     12          7           0       -2.624739    1.775044   -0.185680
     13          8           0       -2.754735    2.574227    0.739005
     14          8           0       -2.277363    2.065189   -1.328389
     15          6           0        5.216143    0.191509    0.931654
     16          6           0        4.350891    1.282173    0.796328
     17          6           0        3.096100    1.123381    0.200646
     18          6           0        2.737263   -0.145845   -0.250564
     19          6           0        3.577103   -1.251942   -0.130104
     20          6           0        4.827173   -1.069843    0.468822
     21          1           0        6.189060    0.323915    1.395654
     22          1           0        4.650315    2.262913    1.154851
     23          1           0        2.406634    1.950581    0.083201
     24          1           0        3.250649   -2.217401   -0.497167
     25          1           0        5.497082   -1.918665    0.572589
     26          7           0        1.411372   -0.326289   -0.882902
     27          8           0        1.118851   -1.454771   -1.272256
     28          8           0        0.689764    0.664180   -0.977203
 ---------------------------------------------------------------------

 SCF Done:  E(RHF) =  -868.338789194     A.U. after   16 cycles
 E2 =    -0.2600538733D+01 EUMP2 =    -0.87093932792688D+03

 The electronic state is 1-A.
 Alpha  occ. eigenvalues --  -20.60842 -20.60788 -20.59454 -20.59338 -15.85831
 Alpha  occ. eigenvalues --  -15.84440 -11.31133 -11.29797 -11.27735 -11.27643
 Alpha  occ. eigenvalues --  -11.27447 -11.26730 -11.26669 -11.26507 -11.26289
 Alpha  occ. eigenvalues --  -11.26252 -11.25553 -11.25379  -1.59885  -1.58451
 Alpha  occ. eigenvalues --   -1.39435  -1.38007  -1.19306  -1.18008  -1.08721
 Alpha  occ. eigenvalues --   -1.07421  -1.04695  -1.03420  -0.95563  -0.94251
 Alpha  occ. eigenvalues --   -0.86098  -0.84827  -0.82391  -0.81092  -0.77443
 Alpha  occ. eigenvalues --   -0.76110  -0.72086  -0.71201  -0.70693  -0.70416
 Alpha  occ. eigenvalues --   -0.69692  -0.69170  -0.64957  -0.64700  -0.63681
 Alpha  occ. eigenvalues --   -0.63461  -0.62035  -0.60771  -0.55213  -0.53997
 Alpha  occ. eigenvalues --   -0.53037  -0.52784  -0.51759  -0.51538  -0.48852
 Alpha  occ. eigenvalues --   -0.48815  -0.47464  -0.47404  -0.44861  -0.43384
 Alpha  occ. eigenvalues --   -0.37296  -0.36297  -0.36016  -0.34987
 Alpha virt. eigenvalues --    0.05070   0.06457   0.11358   0.12653   0.16576
 Alpha virt. eigenvalues --    0.17897   0.21506   0.22603   0.27426   0.28405
 Alpha virt. eigenvalues --    0.28529   0.29524   0.31059   0.32069   0.32689

 Mulliken charges:
               1
     1  C   -0.172268
     2  C   -0.216365
     3  C   -0.154401
     4  C    0.158934
     5  C   -0.174020
     6  C   -0.220522
     7  H    0.220016
     8  H    0.222387
     9  H    0.281202
    10  H    0.270090
    11  H    0.216860
    12  N    0.490647
    13  O   -0.471881
    14  O   -0.451898
    15  C   -0.170645
    16  C   -0.218938
    17  C   -0.171034
    18  C    0.157584
    19  C   -0.171282
    20  C   -0.218874
    21  H    0.225508
    22  H    0.225099
    23  H    0.281863
    24  H    0.273409
    25  H    0.222439
    26  N    0.489109
    27  O   -0.467649
    28  O   -0.455370
 Sum of Mulliken charges =  -0.00000

 Dipole moment (field-independent basis, Debye):
    X=              3.9514    Y=             -4.2191    Z=              2.9143  Tot=              6.4736
 Quadrupole moment (field-independent basis, Debye-Ang):
   XX=            -75.5267   YY=           -104.6514   ZZ=           -102.2259
   XY=             14.2874   XZ=              1.6913   YZ=              1.3547

 Normal termination of Gaussian 16 at Thu May  6 03:29:29 2021.
