 Gaussian 16, Revision A.03,
 Gaussian 16:  EM64L-G16RevA.03 25-Dec-2016

 -------------
 #p 6-31g* mp2
 -------------

 ------------------------------------------------------
 Input file generated by CHIRIPA (05-May-2021 14:53:15)
 ------------------------------------------------------
 Symbolic Z-matrix:
 Charge =  0 Multiplicity = 1

                         Standard orientation:
 ---------------------------------------------------------------------
 Center     Atomic      Atomic             Coordinates (Angstroms)
 Number     Number       Type             X           Y           Z
 ---------------------------------------------------------------------
      1          6           0        3.643070   -0.250347   -0.220791
      2          6           0        4.113065    1.130467    0.237950
      3          6           0        5.513696    1.104795    0.850622
      4          1           0        3.657822   -0.938775    0.635243
      5          1           0        4.357906   -0.648311   -0.954296
      6          1           0        3.396822    1.526299    0.969339
      7          1           0        4.097010    1.815736   -0.619234
      8          1           0        6.244894    0.734286    0.124899
      9          1           0        5.540728    0.443204    1.722498
     10          1           0        5.829795    2.102224    1.171678
     11          6           0        2.244576   -0.240964   -0.835489
     12          6           0        1.774581   -1.621778   -1.294230
     13          6           0        0.373950   -1.596106   -1.906902
     14          1           0        1.529740    0.156999   -0.101984
     15          1           0        2.229824    0.447464   -1.691523
     16          1           0        1.790636   -2.307047   -0.437046
     17          1           0        2.490824   -2.017610   -2.025619
     18          1           0        0.346918   -0.934515   -2.778778
     19          1           0       -0.357248   -1.225597   -1.181179
     20          1           0        0.057852   -2.593535   -2.227959
     21          6           0       -1.578833   -1.856263    1.697519
     22          6           0       -1.071711   -0.599108    2.042352
     23          6           0       -1.464216    0.542586    1.337352
     24          6           0       -2.369568    0.389929    0.288389
     25          6           0       -2.892556   -0.848888   -0.079180
     26          6           0       -2.486037   -1.976928    0.639718
     27          1           0       -1.268483   -2.737855    2.250579
     28          1           0       -0.367027   -0.502398    2.863395
     29          1           0       -1.087265    1.527938    1.583130
     30          1           0       -3.593575   -0.913682   -0.902461
     31          1           0       -2.881513   -2.951983    0.369697
     32          7           0       -2.792513    1.591362   -0.465320
     33          8           0       -3.591350    1.430184   -1.385384
     34          8           0       -2.317172    2.671474   -0.121740
 ---------------------------------------------------------------------

 SCF Done:  E(RHF) =  -669.534372200     A.U. after   15 cycles
 E2 =    -0.2094689424D+01 EUMP2 =    -0.67162906162350D+03

 The electronic state is 1-A.
 Alpha  occ. eigenvalues --  -20.60834 -20.60829 -15.85891 -11.31310 -11.27923
 Alpha  occ. eigenvalues --  -11.27852 -11.27644 -11.26962 -11.26886 -11.21753
 Alpha  occ. eigenvalues --  -11.21693 -11.21544 -11.21421 -11.21229 -11.20937
 Alpha  occ. eigenvalues --   -1.59908  -1.39460  -1.19530  -1.08887  -1.08540
 Alpha  occ. eigenvalues --   -1.04927  -1.03622  -0.96068  -0.95709  -0.87087
 Alpha  occ. eigenvalues --   -0.86302  -0.82536  -0.79700  -0.78358  -0.77576
 Alpha  occ. eigenvalues --   -0.72108  -0.71236  -0.70597  -0.65199  -0.65151
 Alpha  occ. eigenvalues --   -0.64903  -0.62255  -0.61077  -0.59444  -0.57706
 Alpha  occ. eigenvalues --   -0.55537  -0.55400  -0.53393  -0.52993  -0.52760
 Alpha  occ. eigenvalues --   -0.52331  -0.49925  -0.48873  -0.48858  -0.47961
 Alpha  occ. eigenvalues --   -0.46685  -0.45878  -0.45774  -0.44851  -0.43888
 Alpha  occ. eigenvalues --   -0.37499  -0.36462
 Alpha virt. eigenvalues --    0.04937   0.11093   0.16380   0.21128   0.22779
 Alpha virt. eigenvalues --    0.24201   0.26189   0.26993   0.27465   0.28135
 Alpha virt. eigenvalues --    0.28448   0.30784   0.31380   0.31779   0.31873

 Mulliken charges:
               1
     1  C   -0.297950
     2  C   -0.298922
     3  C   -0.475640
     4  H    0.145299
     5  H    0.150453
     6  H    0.148648
     7  H    0.155186
     8  H    0.156049
     9  H    0.153035
    10  H    0.161233
    11  C   -0.300677
    12  C   -0.296760
    13  C   -0.484079
    14  H    0.147741
    15  H    0.153186
    16  H    0.145340
    17  H    0.151559
    18  H    0.157235
    19  H    0.167813
    20  H    0.153974
    21  C   -0.171249
    22  C   -0.217226
    23  C   -0.172257
    24  C    0.161995
    25  C   -0.176988
    26  C   -0.214530
    27  H    0.226547
    28  H    0.224512
    29  H    0.276681
    30  H    0.276615
    31  H    0.224680
    32  N    0.488446
    33  O   -0.459839
    34  O   -0.460112
 Sum of Mulliken charges =  -0.00000

 Dipole moment (field-independent basis, Debye):
    X=              1.3457    Y=             -4.1763    Z=              2.6727  Tot=              5.1377
 Quadrupole moment (field-independent basis, Debye-Ang):
   XX=           -101.4355   YY=            -96.9873   ZZ=            -91.4079
   XY=             12.8489   XZ=             -4.9065   YZ=              1.2264

 Normal termination of Gaussian 16 at Thu May  6 10:36:10 2021.
