 Gaussian 16, Revision A.03,
 Gaussian 16:  EM64L-G16RevA.03 25-Dec-2016

 -------------
 #p 6-31g* mp2
 -------------

 ------------------------------------------------------
 Input file generated by CHIRIPA (05-May-2021 14:53:14)
 ------------------------------------------------------
 Symbolic Z-matrix:
 Charge =  0 Multiplicity = 1

                         Standard orientation:
 ---------------------------------------------------------------------
 Center     Atomic      Atomic             Coordinates (Angstroms)
 Number     Number       Type             X           Y           Z
 ---------------------------------------------------------------------
      1          6           0       -4.480305   -0.379617    0.121290
      2          6           0       -5.920128   -0.442670   -0.389514
      3          6           0       -6.502298   -1.855741   -0.343662
      4          1           0       -3.855176   -1.054920   -0.478814
      5          1           0       -4.447631   -0.757357    1.152619
      6          1           0       -5.950301   -0.063630   -1.419093
      7          1           0       -6.541864    0.233005    0.211754
      8          1           0       -6.501351   -2.239700    0.681606
      9          1           0       -5.906427   -2.538021   -0.958506
     10          1           0       -7.532241   -1.877805   -0.713244
     11          6           0       -3.884469    1.026490    0.081663
     12          6           0       -2.444646    1.089543    0.592466
     13          6           0       -1.862476    2.502614    0.546615
     14          1           0       -3.917142    1.404230   -0.949667
     15          1           0       -4.509598    1.701792    0.681767
     16          1           0       -1.822909    0.413867   -0.008801
     17          1           0       -2.414472    0.710503    1.622046
     18          1           0       -2.458347    3.184893    1.161459
     19          1           0       -1.863423    2.886573   -0.478654
     20          1           0       -0.832533    2.524678    0.916196
     21          6           0        5.789499   -0.205211   -0.023260
     22          6           0        5.100348   -1.334171    0.431756
     23          6           0        3.703044   -1.371531    0.405380
     24          6           0        3.023671   -0.257274   -0.084694
     25          6           0        3.681732    0.882159   -0.545061
     26          6           0        5.079243    0.897407   -0.509360
     27          1           0        6.875039   -0.184777    0.000852
     28          1           0        5.649326   -2.191930    0.809800
     29          1           0        3.144327   -2.232633    0.751441
     30          1           0        3.106929    1.721922   -0.916300
     31          1           0        5.611807    1.775525   -0.863381
     32          7           0        1.544298   -0.285122   -0.117554
     33          8           0        0.969032    0.709452   -0.554049
     34          8           0        0.988044   -1.300995    0.293810
 ---------------------------------------------------------------------

 SCF Done:  E(RHF) =  -669.536446664     A.U. after   15 cycles
 E2 =    -0.2091985795D+01 EUMP2 =    -0.67162843245900D+03

 The electronic state is 1-A.
 Alpha  occ. eigenvalues --  -20.61101 -20.61094 -15.86092 -11.31377 -11.27929
 Alpha  occ. eigenvalues --  -11.27925 -11.27658 -11.26924 -11.26915 -11.20634
 Alpha  occ. eigenvalues --  -11.20261 -11.20142 -11.19927 -11.19567 -11.19305
 Alpha  occ. eigenvalues --   -1.60136  -1.39695  -1.19536  -1.08951  -1.07069
 Alpha  occ. eigenvalues --   -1.04924  -1.02122  -0.95801  -0.94629  -0.86327
 Alpha  occ. eigenvalues --   -0.85670  -0.82632  -0.78247  -0.77692  -0.76790
 Alpha  occ. eigenvalues --   -0.72310  -0.71441  -0.70644  -0.65192  -0.64928
 Alpha  occ. eigenvalues --   -0.63710  -0.62270  -0.59524  -0.58051  -0.56207
 Alpha  occ. eigenvalues --   -0.55424  -0.53952  -0.53258  -0.53013  -0.51352
 Alpha  occ. eigenvalues --   -0.51061  -0.49081  -0.49069  -0.48620  -0.46548
 Alpha  occ. eigenvalues --   -0.45272  -0.45092  -0.44364  -0.44137  -0.42390
 Alpha  occ. eigenvalues --   -0.37512  -0.36522
 Alpha virt. eigenvalues --    0.04817   0.11134   0.16313   0.21266   0.24130
 Alpha virt. eigenvalues --    0.25730   0.27197   0.27960   0.28145   0.28916
 Alpha virt. eigenvalues --    0.29282   0.30852   0.32349   0.32692   0.33023

 Mulliken charges:
               1
     1  C   -0.297377
     2  C   -0.298517
     3  C   -0.474871
     4  H    0.152942
     5  H    0.147572
     6  H    0.150048
     7  H    0.149255
     8  H    0.153876
     9  H    0.154892
    10  H    0.156709
    11  C   -0.297864
    12  C   -0.305299
    13  C   -0.469195
    14  H    0.146049
    15  H    0.142821
    16  H    0.179528
    17  H    0.144350
    18  H    0.142216
    19  H    0.150805
    20  H    0.163374
    21  C   -0.170403
    22  C   -0.218615
    23  C   -0.170597
    24  C    0.158293
    25  C   -0.170778
    26  C   -0.218566
    27  H    0.226308
    28  H    0.224114
    29  H    0.276059
    30  H    0.276173
    31  H    0.224180
    32  N    0.489148
    33  O   -0.458318
    34  O   -0.458313
 Sum of Mulliken charges =  -0.00000

 Dipole moment (field-independent basis, Debye):
    X=              5.7319    Y=             -0.0541    Z=              0.0309  Tot=              5.7322
 Quadrupole moment (field-independent basis, Debye-Ang):
   XX=            -65.7048   YY=            -92.1826   ZZ=            -94.0949
   XY=             -1.3039   XZ=             -0.2091   YZ=             -2.2630

 Normal termination of Gaussian 16 at Thu May  6 04:12:42 2021.
