 Gaussian 16, Revision A.03,
 Gaussian 16:  EM64L-G16RevA.03 25-Dec-2016

 -------------
 #p 6-31g* mp2
 -------------

 ------------------------------------------------------
 Input file generated by CHIRIPA (05-May-2021 14:55:20)
 ------------------------------------------------------
 Symbolic Z-matrix:
 Charge =  0 Multiplicity = 1

                         Standard orientation:
 ---------------------------------------------------------------------
 Center     Atomic      Atomic             Coordinates (Angstroms)
 Number     Number       Type             X           Y           Z
 ---------------------------------------------------------------------
      1          6           0       -1.480610   -2.859291    0.555598
      2          6           0       -2.620990   -2.193273    1.016545
      3          6           0       -2.888793   -0.881664    0.613419
      4          6           0       -1.990825   -0.263463   -0.255358
      5          6           0       -0.846140   -0.900491   -0.731991
      6          6           0       -0.598379   -2.211916   -0.315663
      7          1           0       -1.280359   -3.878109    0.873884
      8          1           0       -3.307898   -2.693555    1.693244
      9          1           0       -3.764141   -0.342635    0.954933
     10          1           0       -0.179893   -0.375672   -1.405859
     11          1           0        0.288041   -2.726699   -0.675249
     12          7           0       -2.263727    1.124981   -0.689117
     13          8           0       -1.457000    1.647569   -1.455100
     14          8           0       -3.279188    1.664364   -0.254902
     15          6           0        2.054843    1.043313    0.707327
     16          6           0        1.739692    2.441206    0.173885
     17          6           0        0.866936    3.255644    1.129281
     18          1           0        1.113697    0.507888    0.893095
     19          1           0        2.559656    1.134463    1.679052
     20          1           0        1.236861    2.347476   -0.797193
     21          1           0        2.681700    2.973296   -0.010817
     22          1           0        1.365394    3.378713    2.096231
     23          1           0       -0.087655    2.749338    1.305386
     24          1           0        0.653876    4.251456    0.728251
     25          6           0        2.926528    0.216965   -0.236623
     26          6           0        3.241679   -1.180928    0.296819
     27          6           0        4.114434   -1.995367   -0.658577
     28          1           0        2.421714    0.125814   -1.208349
     29          1           0        3.867674    0.752389   -0.422392
     30          1           0        2.299670   -1.713019    0.481520
     31          1           0        3.744509   -1.087199    1.267897
     32          1           0        5.069025   -1.489061   -0.834683
     33          1           0        3.615976   -2.118436   -1.625528
     34          1           0        4.327495   -2.991178   -0.257547
 ---------------------------------------------------------------------

 SCF Done:  E(RHF) =  -669.534769638     A.U. after   15 cycles
 E2 =    -0.2096005572D+01 EUMP2 =    -0.67163077521048D+03

 The electronic state is 1-A.
 Alpha  occ. eigenvalues --  -20.60985 -20.60977 -15.86011 -11.31332 -11.27903
 Alpha  occ. eigenvalues --  -11.27896 -11.27632 -11.26891 -11.26876 -11.22013
 Alpha  occ. eigenvalues --  -11.21614 -11.21595 -11.21169 -11.20904 -11.20360
 Alpha  occ. eigenvalues --   -1.60042  -1.39598  -1.19516  -1.08910  -1.08450
 Alpha  occ. eigenvalues --   -1.04909  -1.03434  -0.95919  -0.95750  -0.86938
 Alpha  occ. eigenvalues --   -0.86303  -0.82589  -0.79591  -0.78138  -0.77647
 Alpha  occ. eigenvalues --   -0.72240  -0.71379  -0.70625  -0.65209  -0.65140
 Alpha  occ. eigenvalues --   -0.64919  -0.62188  -0.60806  -0.59358  -0.57478
 Alpha  occ. eigenvalues --   -0.55422  -0.55246  -0.53246  -0.52989  -0.52586
 Alpha  occ. eigenvalues --   -0.52305  -0.49902  -0.49005  -0.48986  -0.47862
 Alpha  occ. eigenvalues --   -0.46659  -0.45725  -0.45569  -0.44884  -0.43692
 Alpha  occ. eigenvalues --   -0.37470  -0.36423
 Alpha virt. eigenvalues --    0.04837   0.11025   0.16203   0.19365   0.23308
 Alpha virt. eigenvalues --    0.23814   0.25551   0.26563   0.27957   0.28213
 Alpha virt. eigenvalues --    0.29624   0.30792   0.31442   0.31986   0.32351

 Mulliken charges:
               1
     1  C   -0.171314
     2  C   -0.218575
     3  C   -0.170145
     4  C    0.157739
     5  C   -0.173613
     6  C   -0.219132
     7  H    0.226691
     8  H    0.224175
     9  H    0.276183
    10  H    0.280290
    11  H    0.226846
    12  N    0.489324
    13  O   -0.460485
    14  O   -0.458546
    15  C   -0.303968
    16  C   -0.307636
    17  C   -0.470923
    18  H    0.150130
    19  H    0.148686
    20  H    0.171474
    21  H    0.147768
    22  H    0.148944
    23  H    0.153699
    24  H    0.165246
    25  C   -0.299525
    26  C   -0.304567
    27  C   -0.476188
    28  H    0.142487
    29  H    0.153710
    30  H    0.146722
    31  H    0.155344
    32  H    0.159770
    33  H    0.150523
    34  H    0.158869
 Sum of Mulliken charges =  -0.00000

 Dipole moment (field-independent basis, Debye):
    X=              0.7918    Y=             -4.7886    Z=              1.4806  Tot=              5.0744
 Quadrupole moment (field-independent basis, Debye-Ang):
   XX=            -94.9351   YY=            -92.8921   ZZ=            -94.8980
   XY=             10.4086   XZ=             -5.3097   YZ=              0.2701

 Normal termination of Gaussian 16 at Thu May  6 04:33:41 2021.
