 Gaussian 16, Revision A.03,
 Gaussian 16:  EM64L-G16RevA.03 25-Dec-2016

 -------------
 #p 6-31g* mp2
 -------------

 ------------------------------------------------------
 Input file generated by CHIRIPA (05-May-2021 14:57:26)
 ------------------------------------------------------
 Symbolic Z-matrix:
 Charge =  0 Multiplicity = 1

                         Standard orientation:
 ---------------------------------------------------------------------
 Center     Atomic      Atomic             Coordinates (Angstroms)
 Number     Number       Type             X           Y           Z
 ---------------------------------------------------------------------
      1          6           0       -2.633435    2.757414   -0.117692
      2          6           0       -3.573775    2.181404    0.742828
      3          6           0       -3.811035    0.803901    0.715603
      4          6           0       -3.086839    0.028740   -0.188806
      5          6           0       -2.143396    0.573047   -1.058828
      6          6           0       -1.922500    1.952815   -1.014192
      7          1           0       -2.455482    3.828371   -0.089781
      8          1           0       -4.127365    2.803817    1.440098
      9          1           0       -4.533228    0.331868    1.370614
     10          1           0       -1.607021   -0.073213   -1.742983
     11          1           0       -1.191613    2.397415   -1.683655
     12          7           0       -3.329353   -1.430759   -0.226843
     13          8           0       -2.678274   -2.091888   -1.032847
     14          8           0       -4.165922   -1.885951    0.550067
     15          6           0        5.272908    0.724442   -0.467988
     16          6           0        4.859183    0.748478    0.867966
     17          6           0        3.627788    0.200839    1.239862
     18          6           0        2.831664   -0.365354    0.245428
     19          6           0        3.216019   -0.404569   -1.093984
     20          6           0        4.451453    0.149010   -1.442982
     21          1           0        6.231054    1.152168   -0.747991
     22          1           0        5.495073    1.194707    1.627288
     23          1           0        3.282923    0.205975    2.266731
     24          1           0        2.560389   -0.856335   -1.828474
     25          1           0        4.770182    0.128932   -2.481275
     26          7           0        1.525903   -0.948258    0.627015
     27          8           0        0.842874   -1.441212   -0.268029
     28          8           0        1.210201   -0.901147    1.813924
 ---------------------------------------------------------------------

 SCF Done:  E(RHF) =  -868.337117270     A.U. after   16 cycles
 E2 =    -0.2600308305D+01 EUMP2 =    -0.87093742557514D+03

 The electronic state is 1-A.
 Alpha  occ. eigenvalues --  -20.60853 -20.60848 -20.59548 -20.59471 -15.85894
 Alpha  occ. eigenvalues --  -15.84572 -11.31365 -11.30118 -11.27949 -11.27933
 Alpha  occ. eigenvalues --  -11.27695 -11.26980 -11.26966 -11.26789 -11.26706
 Alpha  occ. eigenvalues --  -11.26637 -11.25865 -11.25856  -1.59920  -1.58570
 Alpha  occ. eigenvalues --   -1.39472  -1.38119  -1.19546  -1.18348  -1.08919
 Alpha  occ. eigenvalues --   -1.07723  -1.04962  -1.03802  -0.95734  -0.94520
 Alpha  occ. eigenvalues --   -0.86353  -0.85192  -0.82561  -0.81367  -0.77602
 Alpha  occ. eigenvalues --   -0.76351  -0.72099  -0.71256  -0.70809  -0.70646
 Alpha  occ. eigenvalues --   -0.69864  -0.69496  -0.65192  -0.64959  -0.64023
 Alpha  occ. eigenvalues --   -0.63844  -0.62306  -0.61145  -0.55452  -0.54353
 Alpha  occ. eigenvalues --   -0.53292  -0.53050  -0.52103  -0.51921  -0.48872
 Alpha  occ. eigenvalues --   -0.48861  -0.47588  -0.47527  -0.44854  -0.43474
 Alpha  occ. eigenvalues --   -0.37534  -0.36575  -0.36358  -0.35397
 Alpha virt. eigenvalues --    0.04905   0.06226   0.11077   0.12254   0.16391
 Alpha virt. eigenvalues --    0.17630   0.21207   0.22223   0.27103   0.27851
 Alpha virt. eigenvalues --    0.28265   0.29190   0.30772   0.31680   0.32338

 Mulliken charges:
               1
     1  C   -0.171055
     2  C   -0.219121
     3  C   -0.169565
     4  C    0.161287
     5  C   -0.162116
     6  C   -0.222265
     7  H    0.220349
     8  H    0.219508
     9  H    0.273946
    10  H    0.280240
    11  H    0.216618
    12  N    0.489903
    13  O   -0.453204
    14  O   -0.465985
    15  C   -0.171274
    16  C   -0.218630
    17  C   -0.171285
    18  C    0.158347
    19  C   -0.173135
    20  C   -0.218758
    21  H    0.225827
    22  H    0.223742
    23  H    0.276187
    24  H    0.275358
    25  H    0.223604
    26  N    0.488006
    27  O   -0.457862
    28  O   -0.458666
 Sum of Mulliken charges =  -0.00000

 Dipole moment (field-independent basis, Debye):
    X=              5.6205    Y=              6.9126    Z=             -1.2032  Tot=              8.9901
 Quadrupole moment (field-independent basis, Debye-Ang):
   XX=            -83.2866   YY=           -107.5696   ZZ=            -98.8148
   XY=            -11.3334   XZ=             -5.1645   YZ=              1.9717

 Normal termination of Gaussian 16 at Fri May  7 09:43:35 2021.
