 Gaussian 16, Revision A.03,
 Gaussian 16:  EM64L-G16RevA.03 25-Dec-2016

 -------------
 #p 6-31g* mp2
 -------------

 ------------------------------------------------------
 Input file generated by CHIRIPA (05-May-2021 14:55:25)
 ------------------------------------------------------
 Symbolic Z-matrix:
 Charge =  0 Multiplicity = 1

                         Standard orientation:
 ---------------------------------------------------------------------
 Center     Atomic      Atomic             Coordinates (Angstroms)
 Number     Number       Type             X           Y           Z
 ---------------------------------------------------------------------
      1          6           0       -0.917355    0.845469    1.386580
      2          6           0       -0.786795   -0.357897    0.685592
      3          6           0       -1.892440   -0.935363    0.054221
      4          6           0       -3.119197   -0.279463    0.144520
      5          6           0       -3.281239    0.920405    0.835425
      6          6           0       -2.161967    1.479662    1.459131
      7          1           0       -0.053170    1.286986    1.874067
      8          1           0        0.178558   -0.852643    0.627582
      9          1           0       -1.819567   -1.866154   -0.495083
     10          1           0       -4.256494    1.390165    0.875696
     11          1           0       -2.266318    2.414298    2.002832
     12          7           0       -4.296907   -0.881161   -0.519827
     13          8           0       -5.366754   -0.283534   -0.425451
     14          8           0       -4.127850   -1.939007   -1.122338
     15          6           0        3.029864    0.498024   -0.282164
     16          6           0        2.773010    1.692459   -1.201585
     17          6           0        1.339685    2.215834   -1.104357
     18          1           0        2.326082   -0.307482   -0.532753
     19          1           0        2.814610    0.789701    0.755133
     20          1           0        2.990013    1.399022   -2.236679
     21          1           0        3.477613    2.495145   -0.948905
     22          1           0        1.114790    2.535369   -0.081655
     23          1           0        0.624420    1.433018   -1.376746
     24          1           0        1.178026    3.069574   -1.769830
     25          6           0        4.458381   -0.036467   -0.368108
     26          6           0        4.715234   -1.230903    0.551312
     27          6           0        6.148560   -1.754277    0.454085
     28          1           0        4.673636   -0.328144   -1.405405
     29          1           0        5.162163    0.769039   -0.117519
     30          1           0        4.010632   -2.033589    0.298633
     31          1           0        4.498232   -0.937466    1.586407
     32          1           0        6.863826   -0.971461    0.726474
     33          1           0        6.373456   -2.073812   -0.568617
     34          1           0        6.310220   -2.608017    1.119558
 ---------------------------------------------------------------------

 SCF Done:  E(RHF) =  -669.534094211     A.U. after   15 cycles
 E2 =    -0.2093483645D+01 EUMP2 =    -0.67162757785520D+03

 The electronic state is 1-A.
 Alpha  occ. eigenvalues --  -20.60715 -20.60709 -15.85769 -11.31113 -11.27701
 Alpha  occ. eigenvalues --  -11.27691 -11.27412 -11.26693 -11.26634 -11.22485
 Alpha  occ. eigenvalues --  -11.22375 -11.22371 -11.22184 -11.21722 -11.21670
 Alpha  occ. eigenvalues --   -1.59791  -1.39345  -1.19297  -1.09302  -1.08688
 Alpha  occ. eigenvalues --   -1.04703  -1.04283  -0.96743  -0.95528  -0.87752
 Alpha  occ. eigenvalues --   -0.86099  -0.82365  -0.80362  -0.79168  -0.77403
 Alpha  occ. eigenvalues --   -0.71988  -0.71115  -0.70422  -0.65934  -0.64945
 Alpha  occ. eigenvalues --   -0.64698  -0.62065  -0.61669  -0.60103  -0.58393
 Alpha  occ. eigenvalues --   -0.56049  -0.55203  -0.53473  -0.53379  -0.52875
 Alpha  occ. eigenvalues --   -0.52662  -0.50676  -0.48751  -0.48745  -0.48639
 Alpha  occ. eigenvalues --   -0.47386  -0.46645  -0.46595  -0.44756  -0.44576
 Alpha  occ. eigenvalues --   -0.37182  -0.36286
 Alpha virt. eigenvalues --    0.05107   0.11262   0.16503   0.19608   0.22601
 Alpha virt. eigenvalues --    0.23622   0.24447   0.25612   0.27120   0.28369
 Alpha virt. eigenvalues --    0.29161   0.30381   0.31027   0.31397   0.31805

 Mulliken charges:
               1
     1  C   -0.166363
     2  C   -0.221651
     3  C   -0.173395
     4  C    0.158510
     5  C   -0.170541
     6  C   -0.219878
     7  H    0.225704
     8  H    0.229309
     9  H    0.275092
    10  H    0.275381
    11  H    0.222993
    12  N    0.488127
    13  O   -0.460700
    14  O   -0.460856
    15  C   -0.302003
    16  C   -0.300133
    17  C   -0.477070
    18  H    0.146297
    19  H    0.142029
    20  H    0.155866
    21  H    0.153728
    22  H    0.145616
    23  H    0.162695
    24  H    0.163609
    25  C   -0.297949
    26  C   -0.300372
    27  C   -0.476114
    28  H    0.153161
    29  H    0.152356
    30  H    0.150113
    31  H    0.150517
    32  H    0.156580
    33  H    0.157181
    34  H    0.162157
 Sum of Mulliken charges =  -0.00000

 Dipole moment (field-independent basis, Debye):
    X=              4.3198    Y=              2.1483    Z=              2.2556  Tot=              5.3258
 Quadrupole moment (field-independent basis, Debye-Ang):
   XX=           -119.7784   YY=            -93.2045   ZZ=            -93.6248
   XY=             -9.7846   XZ=             -7.8569   YZ=              1.4768

 Normal termination of Gaussian 16 at Thu May  6 00:02:18 2021.
