 Gaussian 16, Revision A.03,
 Gaussian 16:  EM64L-G16RevA.03 25-Dec-2016

 -------------
 #p 6-31g* mp2
 -------------

 ------------------------------------------------------
 Input file generated by CHIRIPA (05-May-2021 14:53:15)
 ------------------------------------------------------
 Symbolic Z-matrix:
 Charge =  0 Multiplicity = 1

                         Standard orientation:
 ---------------------------------------------------------------------
 Center     Atomic      Atomic             Coordinates (Angstroms)
 Number     Number       Type             X           Y           Z
 ---------------------------------------------------------------------
      1          6           0       -3.638047   -0.505838   -0.071213
      2          6           0       -2.426025    0.325456   -0.493040
      3          6           0       -1.106610   -0.430908   -0.335390
      4          1           0       -3.514957   -0.817111    0.975163
      5          1           0       -3.668507   -1.426814   -0.669770
      6          1           0       -2.398641    1.245240    0.105176
      7          1           0       -2.552105    0.634946   -1.538475
      8          1           0       -1.108519   -1.340108   -0.945268
      9          1           0       -0.954183   -0.726346    0.707723
     10          1           0       -0.253389    0.181879   -0.642583
     11          6           0       -4.964446    0.236680   -0.223071
     12          6           0       -6.176468   -0.594614    0.198756
     13          6           0       -7.495883    0.161749    0.041106
     14          1           0       -4.933985    1.157656    0.375486
     15          1           0       -5.087536    0.547952   -1.269447
     16          1           0       -6.050388   -0.904104    1.244191
     17          1           0       -6.203852   -1.514399   -0.399460
     18          1           0       -7.648309    0.457188   -1.002007
     19          1           0       -7.493974    1.070950    0.650984
     20          1           0       -8.349103   -0.451037    0.348299
     21          6           0        2.604651    2.507301    0.271372
     22          6           0        3.757686    2.181804   -0.450487
     23          6           0        4.185756    0.854181   -0.543879
     24          6           0        3.433407   -0.127092    0.099833
     25          6           0        2.280308    0.165512    0.826494
     26          6           0        1.870935    1.499892    0.906439
     27          1           0        2.279378    3.541255    0.338698
     28          1           0        4.329472    2.962095   -0.944704
     29          1           0        5.074603    0.574224   -1.096141
     30          1           0        1.731111   -0.634185    1.308453
     31          1           0        0.975074    1.749745    1.467734
     32          7           0        3.876688   -1.536164    0.008081
     33          8           0        3.196318   -2.382208    0.584225
     34          8           0        4.896108   -1.767869   -0.638241
 ---------------------------------------------------------------------

 SCF Done:  E(RHF) =  -669.534494458     A.U. after   15 cycles
 E2 =    -0.2092300730D+01 EUMP2 =    -0.67162679518823D+03

 The electronic state is 1-A.
 Alpha  occ. eigenvalues --  -20.60734 -20.60729 -15.85788 -11.31154 -11.27736
 Alpha  occ. eigenvalues --  -11.27709 -11.27490 -11.26751 -11.26724 -11.22009
 Alpha  occ. eigenvalues --  -11.21798 -11.21680 -11.21614 -11.21394 -11.21249
 Alpha  occ. eigenvalues --   -1.59809  -1.39362  -1.19348  -1.08740  -1.08714
 Alpha  occ. eigenvalues --   -1.04762  -1.03818  -0.96274  -0.95566  -0.87295
 Alpha  occ. eigenvalues --   -0.86141  -0.82402  -0.79897  -0.78523  -0.77438
 Alpha  occ. eigenvalues --   -0.72007  -0.71133  -0.70451  -0.65356  -0.64995
 Alpha  occ. eigenvalues --   -0.64746  -0.62134  -0.61203  -0.59656  -0.57887
 Alpha  occ. eigenvalues --   -0.55573  -0.55236  -0.53473  -0.52902  -0.52678
 Alpha  occ. eigenvalues --   -0.52497  -0.50211  -0.48767  -0.48759  -0.48197
 Alpha  occ. eigenvalues --   -0.46932  -0.46063  -0.45989  -0.44768  -0.44079
 Alpha  occ. eigenvalues --   -0.37340  -0.36249
 Alpha virt. eigenvalues --    0.05089   0.11241   0.16518   0.20639   0.22700
 Alpha virt. eigenvalues --    0.24007   0.25811   0.26589   0.27147   0.28078
 Alpha virt. eigenvalues --    0.28926   0.30280   0.31364   0.31517   0.32027

 Mulliken charges:
               1
     1  C   -0.298443
     2  C   -0.299387
     3  C   -0.483515
     4  H    0.149403
     5  H    0.152521
     6  H    0.145413
     7  H    0.153795
     8  H    0.162568
     9  H    0.147240
    10  H    0.166626
    11  C   -0.298264
    12  C   -0.299906
    13  C   -0.475813
    14  H    0.147885
    15  H    0.150096
    16  H    0.152183
    17  H    0.153292
    18  H    0.155428
    19  H    0.154586
    20  H    0.161187
    21  C   -0.171633
    22  C   -0.218895
    23  C   -0.171140
    24  C    0.158110
    25  C   -0.168694
    26  C   -0.219586
    27  H    0.225570
    28  H    0.223305
    29  H    0.275530
    30  H    0.278232
    31  H    0.224953
    32  N    0.488204
    33  O   -0.460132
    34  O   -0.460719
 Sum of Mulliken charges =  -0.00000

 Dipole moment (field-independent basis, Debye):
    X=             -1.5958    Y=              4.9170    Z=              0.2742  Tot=              5.1767
 Quadrupole moment (field-independent basis, Debye-Ang):
   XX=           -103.7309   YY=            -96.2741   ZZ=            -92.7788
   XY=             19.2676   XZ=             -1.4163   YZ=             -0.0374

 Normal termination of Gaussian 16 at Thu May  6 01:05:46 2021.
