 Gaussian 16, Revision A.03,
 Gaussian 16:  EM64L-G16RevA.03 25-Dec-2016

 -------------
 #p 6-31g* mp2
 -------------

 ------------------------------------------------------
 Input file generated by CHIRIPA (05-May-2021 14:53:16)
 ------------------------------------------------------
 Symbolic Z-matrix:
 Charge =  0 Multiplicity = 1

                         Standard orientation:
 ---------------------------------------------------------------------
 Center     Atomic      Atomic             Coordinates (Angstroms)
 Number     Number       Type             X           Y           Z
 ---------------------------------------------------------------------
      1          6           0       -4.950829   -0.487777    0.269769
      2          6           0       -5.512222   -1.394232   -0.826206
      3          6           0       -6.369554   -2.531924   -0.270840
      4          1           0       -4.353984   -1.092087    0.966569
      5          1           0       -5.783416   -0.069916    0.852509
      6          1           0       -4.678884   -1.809167   -1.407577
      7          1           0       -6.107643   -0.787661   -1.520585
      8          1           0       -7.219762   -2.133960    0.292519
      9          1           0       -5.782884   -3.161271    0.406169
     10          1           0       -6.760667   -3.167530   -1.071400
     11          6           0       -4.091604    0.654316   -0.269752
     12          6           0       -3.530211    1.560771    0.826224
     13          6           0       -2.672879    2.698463    0.270858
     14          1           0       -3.259017    0.236455   -0.852492
     15          1           0       -4.688450    1.258627   -0.966551
     16          1           0       -2.934790    0.954200    1.520602
     17          1           0       -4.363550    1.975706    1.407594
     18          1           0       -3.259549    3.327810   -0.406152
     19          1           0       -1.822672    2.300499   -0.292502
     20          1           0       -2.281766    3.334069    1.071417
     21          6           0        1.434575    1.337046    0.002143
     22          6           0        2.445644    1.591445   -0.930350
     23          6           0        3.612158    0.820938   -0.940776
     24          6           0        3.734991   -0.200604   -0.000215
     25          6           0        2.745444   -0.478606    0.941486
     26          6           0        1.587433    0.304653    0.933443
     27          1           0        0.531701    1.940548    0.003069
     28          1           0        2.329658    2.392563   -1.654783
     29          1           0        4.410604    0.996233   -1.651531
     30          1           0        2.889779   -1.284077    1.651276
     31          1           0        0.803870    0.104813    1.658798
     32          7           0        4.965427   -1.023056   -0.001476
     33          8           0        5.049401   -1.917228    0.837595
     34          8           0        5.822571   -0.757946   -0.841511
 ---------------------------------------------------------------------

 SCF Done:  E(RHF) =  -669.535571293     A.U. after   15 cycles
 E2 =    -0.2090834308D+01 EUMP2 =    -0.67162640560046D+03

 The electronic state is 1-A.
 Alpha  occ. eigenvalues --  -20.60744 -20.60739 -15.85798 -11.31159 -11.27730
 Alpha  occ. eigenvalues --  -11.27725 -11.27429 -11.26741 -11.26728 -11.22612
 Alpha  occ. eigenvalues --  -11.22332 -11.22182 -11.22111 -11.22004 -11.21483
 Alpha  occ. eigenvalues --   -1.59820  -1.39373  -1.19330  -1.09187  -1.08722
 Alpha  occ. eigenvalues --   -1.04734  -1.04313  -0.96775  -0.95558  -0.87795
 Alpha  occ. eigenvalues --   -0.86129  -0.82395  -0.80387  -0.78952  -0.77443
 Alpha  occ. eigenvalues --   -0.72015  -0.71143  -0.70452  -0.65822  -0.64980
 Alpha  occ. eigenvalues --   -0.64739  -0.62084  -0.61722  -0.60159  -0.58359
 Alpha  occ. eigenvalues --   -0.56188  -0.55146  -0.53467  -0.53181  -0.53059
 Alpha  occ. eigenvalues --   -0.52825  -0.50707  -0.48777  -0.48771  -0.48688
 Alpha  occ. eigenvalues --   -0.47414  -0.46504  -0.46401  -0.44780  -0.44544
 Alpha  occ. eigenvalues --   -0.37304  -0.36342
 Alpha virt. eigenvalues --    0.05084   0.11311   0.16538   0.19561   0.22574
 Alpha virt. eigenvalues --    0.23833   0.25603   0.25862   0.26899   0.27559
 Alpha virt. eigenvalues --    0.28957   0.30265   0.30853   0.31422   0.32146

 Mulliken charges:
               1
     1  C   -0.298650
     2  C   -0.300304
     3  C   -0.476116
     4  H    0.149340
     5  H    0.151014
     6  H    0.152779
     7  H    0.152832
     8  H    0.155827
     9  H    0.155744
    10  H    0.162090
    11  C   -0.299203
    12  C   -0.299002
    13  C   -0.482324
    14  H    0.149361
    15  H    0.151880
    16  H    0.148152
    17  H    0.156705
    18  H    0.161830
    19  H    0.147847
    20  H    0.161424
    21  C   -0.177871
    22  C   -0.220423
    23  C   -0.170750
    24  C    0.158346
    25  C   -0.170853
    26  C   -0.221209
    27  H    0.236626
    28  H    0.223838
    29  H    0.275478
    30  H    0.275401
    31  H    0.223222
    32  N    0.488023
    33  O   -0.460571
    34  O   -0.460483
 Sum of Mulliken charges =  -0.00000

 Dipole moment (field-independent basis, Debye):
    X=             -4.5771    Y=              2.8996    Z=             -0.0109  Tot=              5.4183
 Quadrupole moment (field-independent basis, Debye-Ang):
   XX=           -125.9295   YY=            -95.3009   ZZ=            -92.2151
   XY=             11.7083   XZ=             -1.3372   YZ=             -2.2274

 Normal termination of Gaussian 16 at Wed May  5 23:34:03 2021.
