 Gaussian 16, Revision A.03,
 Gaussian 16:  EM64L-G16RevA.03 25-Dec-2016

 -------------
 #p 6-31g* mp2
 -------------

 ------------------------------------------------------
 Input file generated by CHIRIPA (05-May-2021 14:57:24)
 ------------------------------------------------------
 Symbolic Z-matrix:
 Charge =  0 Multiplicity = 1

                         Standard orientation:
 ---------------------------------------------------------------------
 Center     Atomic      Atomic             Coordinates (Angstroms)
 Number     Number       Type             X           Y           Z
 ---------------------------------------------------------------------
      1          6           0       -2.163620    2.452683    0.880847
      2          6           0       -2.579103    2.285926   -0.444328
      3          6           0       -3.093766    1.060602   -0.878208
      4          6           0       -3.179160    0.018648    0.043925
      5          6           0       -2.773484    0.153686    1.370756
      6          6           0       -2.261963    1.387909    1.782570
      7          1           0       -1.765038    3.408001    1.209324
      8          1           0       -2.503893    3.111095   -1.146812
      9          1           0       -3.422724    0.904057   -1.898354
     10          1           0       -2.860725   -0.687310    2.047907
     11          1           0       -1.940060    1.514538    2.812321
     12          7           0       -3.722348   -1.283258   -0.403723
     13          8           0       -3.787223   -2.185664    0.428197
     14          8           0       -4.072937   -1.376633   -1.578034
     15          6           0        0.598637   -0.609690   -0.255952
     16          6           0        1.220347    0.288715   -1.129375
     17          6           0        2.599886    0.505180   -1.061808
     18          6           0        3.330457   -0.196821   -0.104338
     19          6           0        2.740040   -1.098468    0.779817
     20          6           0        1.359127   -1.299199    0.694180
     21          1           0       -0.473556   -0.771734   -0.315460
     22          1           0        0.632249    0.825586   -1.868262
     23          1           0        3.106789    1.194921   -1.725678
     24          1           0        3.352719   -1.619004    1.505825
     25          1           0        0.878981   -1.997517    1.373781
     26          7           0        4.791640    0.024012   -0.023242
     27          8           0        5.412959   -0.606818    0.829199
     28          8           0        5.287930    0.823748   -0.813657
 ---------------------------------------------------------------------

 SCF Done:  E(RHF) =  -868.337246754     A.U. after   16 cycles
 E2 =    -0.2602320526D+01 EUMP2 =    -0.87093956727970D+03

 The electronic state is 1-A.
 Alpha  occ. eigenvalues --  -20.61908 -20.61899 -20.60835 -20.60829 -15.86964
 Alpha  occ. eigenvalues --  -15.85889 -11.32389 -11.31212 -11.28966 -11.28934
 Alpha  occ. eigenvalues --  -11.28609 -11.27947 -11.27893 -11.27807 -11.27787
 Alpha  occ. eigenvalues --  -11.27407 -11.26772 -11.26741  -1.60996  -1.59913
 Alpha  occ. eigenvalues --   -1.40539  -1.39467  -1.20592  -1.19383  -1.09932
 Alpha  occ. eigenvalues --   -1.08767  -1.05956  -1.04789  -0.96751  -0.95613
 Alpha  occ. eigenvalues --   -0.87332  -0.86176  -0.83560  -0.82459  -0.78623
 Alpha  occ. eigenvalues --   -0.77521  -0.73152  -0.72411  -0.72105  -0.71588
 Alpha  occ. eigenvalues --   -0.71239  -0.70459  -0.66182  -0.65895  -0.65026
 Alpha  occ. eigenvalues --   -0.64795  -0.63274  -0.62145  -0.56370  -0.55667
 Alpha  occ. eigenvalues --   -0.53996  -0.53943  -0.53050  -0.52872  -0.49927
 Alpha  occ. eigenvalues --   -0.49916  -0.48864  -0.48861  -0.45912  -0.44883
 Alpha  occ. eigenvalues --   -0.38529  -0.37709  -0.37190  -0.36399
 Alpha virt. eigenvalues --    0.03837   0.05039   0.10040   0.11247   0.15355
 Alpha virt. eigenvalues --    0.16529   0.20377   0.21377   0.26102   0.27216
 Alpha virt. eigenvalues --    0.27472   0.27871   0.30078   0.30973   0.31500

 Mulliken charges:
               1
     1  C   -0.168689
     2  C   -0.219229
     3  C   -0.178094
     4  C    0.147577
     5  C   -0.179016
     6  C   -0.212514
     7  H    0.231727
     8  H    0.227517
     9  H    0.278471
    10  H    0.277010
    11  H    0.228926
    12  N    0.488499
    13  O   -0.459049
    14  O   -0.456982
    15  C   -0.167403
    16  C   -0.222328
    17  C   -0.171799
    18  C    0.157449
    19  C   -0.171071
    20  C   -0.224074
    21  H    0.232778
    22  H    0.220017
    23  H    0.274109
    24  H    0.275344
    25  H    0.224668
    26  N    0.488040
    27  O   -0.460512
    28  O   -0.461370
 Sum of Mulliken charges =  -0.00000

 Dipole moment (field-independent basis, Debye):
    X=             -3.4906    Y=              3.9715    Z=              1.4109  Tot=              5.4725
 Quadrupole moment (field-independent basis, Debye-Ang):
   XX=           -152.6727   YY=           -101.9288   ZZ=            -97.7606
   XY=            -17.1041   XZ=             -4.5118   YZ=             -4.2236

 Normal termination of Gaussian 16 at Fri May  7 03:26:49 2021.
