 Gaussian 16, Revision A.03,
 Gaussian 16:  EM64L-G16RevA.03 25-Dec-2016

 -------------
 #p 6-31g* mp2
 -------------

 ------------------------------------------------------
 Input file generated by CHIRIPA (05-May-2021 14:55:22)
 ------------------------------------------------------
 Symbolic Z-matrix:
 Charge =  0 Multiplicity = 1

                         Standard orientation:
 ---------------------------------------------------------------------
 Center     Atomic      Atomic             Coordinates (Angstroms)
 Number     Number       Type             X           Y           Z
 ---------------------------------------------------------------------
      1          6           0       -1.153297   -0.738921    2.289242
      2          6           0       -1.661796   -1.824950    1.569179
      3          6           0       -2.405367   -1.618341    0.403434
      4          6           0       -2.622331   -0.306544   -0.015379
      5          6           0       -2.128934    0.796175    0.680222
      6          6           0       -1.388075    0.565875    1.843252
      7          1           0       -0.576727   -0.908621    3.193767
      8          1           0       -1.481031   -2.839363    1.913180
      9          1           0       -2.810706   -2.440861   -0.173264
     10          1           0       -2.325649    1.795895    0.312416
     11          1           0       -0.994393    1.411213    2.400444
     12          7           0       -3.408080   -0.075277   -1.248064
     13          8           0       -3.585278    1.090125   -1.596026
     14          8           0       -3.831875   -1.063790   -1.842940
     15          6           0        3.471183   -0.232002   -0.013037
     16          6           0        4.427727   -0.863423   -1.025124
     17          6           0        4.980274   -2.209708   -0.556083
     18          1           0        3.994069   -0.101886    0.944357
     19          1           0        2.639572   -0.924713    0.176623
     20          1           0        5.256564   -0.169144   -1.213863
     21          1           0        3.902560   -0.991873   -1.980276
     22          1           0        4.166435   -2.921986   -0.386002
     23          1           0        5.528133   -2.094582    0.384766
     24          1           0        5.661762   -2.643265   -1.294638
     25          6           0        2.910460    1.114331   -0.467685
     26          6           0        1.953917    1.745751    0.544402
     27          6           0        1.401369    3.092038    0.075361
     28          1           0        3.742071    1.807041   -0.657344
     29          1           0        2.387574    0.984216   -1.425079
     30          1           0        2.479084    1.874203    1.499554
     31          1           0        1.125080    1.051473    0.733141
     32          1           0        0.853512    2.976911   -0.865488
     33          1           0        2.215208    3.804315   -0.094721
     34          1           0        0.719881    3.525594    0.813917
 ---------------------------------------------------------------------

 SCF Done:  E(RHF) =  -669.535051227     A.U. after   15 cycles
 E2 =    -0.2092877779D+01 EUMP2 =    -0.67162792900541D+03

 The electronic state is 1-A.
 Alpha  occ. eigenvalues --  -20.60827 -20.60822 -15.85881 -11.31270 -11.27829
 Alpha  occ. eigenvalues --  -11.27818 -11.27571 -11.26859 -11.26834 -11.21902
 Alpha  occ. eigenvalues --  -11.21846 -11.21707 -11.21636 -11.21529 -11.21339
 Alpha  occ. eigenvalues --   -1.59903  -1.39455  -1.19450  -1.08847  -1.08729
 Alpha  occ. eigenvalues --   -1.04860  -1.03855  -0.96317  -0.95663  -0.87329
 Alpha  occ. eigenvalues --   -0.86245  -0.82495  -0.79928  -0.78561  -0.77535
 Alpha  occ. eigenvalues --   -0.72098  -0.71227  -0.70534  -0.65379  -0.65093
 Alpha  occ. eigenvalues --   -0.64843  -0.62212  -0.61252  -0.59701  -0.57940
 Alpha  occ. eigenvalues --   -0.55603  -0.55331  -0.53229  -0.53011  -0.52930
 Alpha  occ. eigenvalues --   -0.52731  -0.50236  -0.48860  -0.48851  -0.48244
 Alpha  occ. eigenvalues --   -0.46941  -0.46098  -0.46008  -0.44854  -0.44113
 Alpha  occ. eigenvalues --   -0.37398  -0.36378
 Alpha virt. eigenvalues --    0.04980   0.11143   0.16425   0.20495   0.22701
 Alpha virt. eigenvalues --    0.23856   0.26143   0.26382   0.27091   0.28226
 Alpha virt. eigenvalues --    0.29059   0.29976   0.31204   0.31649   0.32202

 Mulliken charges:
               1
     1  C   -0.171002
     2  C   -0.218583
     3  C   -0.171244
     4  C    0.158583
     5  C   -0.170964
     6  C   -0.219360
     7  H    0.226836
     8  H    0.223940
     9  H    0.275857
    10  H    0.276901
    11  H    0.227030
    12  N    0.488023
    13  O   -0.460039
    14  O   -0.460244
    15  C   -0.298597
    16  C   -0.300037
    17  C   -0.475684
    18  H    0.147512
    19  H    0.148567
    20  H    0.152789
    21  H    0.154170
    22  H    0.153905
    23  H    0.154283
    24  H    0.161736
    25  C   -0.297529
    26  C   -0.310382
    27  C   -0.476759
    28  H    0.150065
    29  H    0.153025
    30  H    0.147047
    31  H    0.159952
    32  H    0.160810
    33  H    0.158485
    34  H    0.150905
 Sum of Mulliken charges =  -0.00000

 Dipole moment (field-independent basis, Debye):
    X=              2.7366    Y=             -0.8571    Z=              4.2877  Tot=              5.1583
 Quadrupole moment (field-independent basis, Debye-Ang):
   XX=           -109.6677   YY=            -90.2491   ZZ=            -95.2604
   XY=              2.7567   XZ=            -11.4425   YZ=             -0.4676

 Normal termination of Gaussian 16 at Wed May  5 22:19:12 2021.
