 Gaussian 16, Revision A.03,
 Gaussian 16:  EM64L-G16RevA.03 25-Dec-2016

 -------------
 #p 6-31g* mp2
 -------------

 ------------------------------------------------------
 Input file generated by CHIRIPA (05-May-2021 14:51:10)
 ------------------------------------------------------
 Symbolic Z-matrix:
 Charge =  0 Multiplicity = 1

                         Standard orientation:
 ---------------------------------------------------------------------
 Center     Atomic      Atomic             Coordinates (Angstroms)
 Number     Number       Type             X           Y           Z
 ---------------------------------------------------------------------
      1          6           0        3.622622    0.906542   -0.548008
      2          6           0        2.271608    1.372788   -0.004540
      3          6           0        1.837573    2.722109   -0.577900
      4          1           0        4.383854    1.665250   -0.320339
      5          1           0        3.565987    0.839439   -1.643310
      6          1           0        2.330359    1.437662    1.089515
      7          1           0        1.513541    0.612794   -0.233361
      8          1           0        1.751022    2.667623   -1.667919
      9          1           0        2.572481    3.497178   -0.337526
     10          1           0        0.869293    3.036353   -0.175973
     11          6           0        4.070092   -0.440877    0.015871
     12          6           0        5.421107   -0.907123   -0.527598
     13          6           0        5.855141   -2.256444    0.045762
     14          1           0        4.126728   -0.373774    1.111172
     15          1           0        3.308860   -1.199585   -0.211798
     16          1           0        6.179174   -0.147129   -0.298777
     17          1           0        5.362356   -0.971997   -1.621653
     18          1           0        5.120233   -3.031512   -0.194611
     19          1           0        5.941692   -2.201957    1.135781
     20          1           0        6.823421   -2.570687   -0.356164
     21          6           0       -4.609653   -0.256407    0.282060
     22          6           0       -5.232742   -0.639413   -1.060717
     23          6           0       -6.760372   -0.682315   -1.012770
     24          1           0       -4.933872   -0.974525    1.047653
     25          1           0       -4.995444    0.725055    0.590756
     26          1           0       -4.844834   -1.619236   -1.367456
     27          1           0       -4.906849    0.079590   -1.823242
     28          1           0       -7.164567    0.295375   -0.731077
     29          1           0       -7.102198   -1.413105   -0.272700
     30          1           0       -7.184903   -0.958148   -1.983104
     31          6           0       -3.083061   -0.209259    0.250078
     32          6           0       -2.459972    0.173747    1.592855
     33          6           0       -0.932342    0.216650    1.544907
     34          1           0       -2.697271   -1.190721   -0.058617
     35          1           0       -2.758843    0.508860   -0.515515
     36          1           0       -2.785866   -0.545256    2.355380
     37          1           0       -2.847881    1.153571    1.899594
     38          1           0       -0.590517    0.947439    0.804838
     39          1           0       -0.528148   -0.761041    1.263215
     40          1           0       -0.507812    0.492483    2.515243
 ---------------------------------------------------------------------

 SCF Done:  E(RHF) =  -470.732501705     A.U. after   11 cycles
 E2 =    -0.1583107231D+01 EUMP2 =    -0.47231560893544D+03

 The electronic state is 1-A.
 Alpha  occ. eigenvalues --  -11.21602 -11.21567 -11.21565 -11.21465 -11.21401
 Alpha  occ. eigenvalues --  -11.21347 -11.21342 -11.21283 -11.21071 -11.21057
 Alpha  occ. eigenvalues --  -11.21047 -11.20992  -1.08428  -1.08370  -1.03556
 Alpha  occ. eigenvalues --   -1.03448  -0.96012  -0.95902  -0.87005  -0.86943
 Alpha  occ. eigenvalues --   -0.79726  -0.79422  -0.78283  -0.78124  -0.65063
 Alpha  occ. eigenvalues --   -0.65003  -0.60979  -0.60853  -0.59341  -0.59330
 Alpha  occ. eigenvalues --   -0.57732  -0.57429  -0.55275  -0.55182  -0.52691
 Alpha  occ. eigenvalues --   -0.52629  -0.52381  -0.52365  -0.49916  -0.49860
 Alpha  occ. eigenvalues --   -0.48097  -0.47701  -0.46649  -0.46509  -0.45893
 Alpha  occ. eigenvalues --   -0.45706  -0.45672  -0.45479  -0.43781  -0.43721
 Alpha virt. eigenvalues --    0.21926   0.23054   0.23497   0.24972   0.26252
 Alpha virt. eigenvalues --    0.26426   0.26797   0.27462   0.27716   0.29231
 Alpha virt. eigenvalues --    0.30690   0.31068   0.31387   0.31884   0.32461

 Mulliken charges:
               1
     1  C   -0.297870
     2  C   -0.302484
     3  C   -0.478550
     4  H    0.148998
     5  H    0.148949
     6  H    0.152893
     7  H    0.156966
     8  H    0.154970
     9  H    0.155499
    10  H    0.160308
    11  C   -0.298069
    12  C   -0.299584
    13  C   -0.475645
    14  H    0.149518
    15  H    0.149421
    16  H    0.151867
    17  H    0.151795
    18  H    0.155034
    19  H    0.155135
    20  H    0.160118
    21  C   -0.298184
    22  C   -0.299644
    23  C   -0.475700
    24  H    0.149692
    25  H    0.149542
    26  H    0.151825
    27  H    0.151917
    28  H    0.155206
    29  H    0.155183
    30  H    0.160227
    31  C   -0.298327
    32  C   -0.300267
    33  C   -0.479029
    34  H    0.149178
    35  H    0.149368
    36  H    0.151549
    37  H    0.151510
    38  H    0.162433
    39  H    0.154435
    40  H    0.159815
 Sum of Mulliken charges =  -0.00000

 Dipole moment (field-independent basis, Debye):
    X=             -0.0022    Y=             -0.0009    Z=              0.0096  Tot=              0.0099
 Quadrupole moment (field-independent basis, Debye-Ang):
   XX=            -86.2021   YY=            -84.5636   ZZ=            -84.2789
   XY=              0.5389   XZ=              0.1664   YZ=              0.4388

 Normal termination of Gaussian 16 at Wed May  5 23:02:41 2021.
