 Gaussian 16, Revision A.03,
 Gaussian 16:  EM64L-G16RevA.03 25-Dec-2016

 -------------
 #p 6-31g* mp2
 -------------

 ------------------------------------------------------
 Input file generated by CHIRIPA (05-May-2021 14:51:08)
 ------------------------------------------------------
 Symbolic Z-matrix:
 Charge =  0 Multiplicity = 1

                         Standard orientation:
 ---------------------------------------------------------------------
 Center     Atomic      Atomic             Coordinates (Angstroms)
 Number     Number       Type             X           Y           Z
 ---------------------------------------------------------------------
      1          6           0        2.110464   -0.547903    0.397560
      2          6           0        2.325633   -1.881179    1.114541
      3          6           0        1.012799   -2.575778    1.477575
      4          1           0        1.509345    0.112458    1.037501
      5          1           0        1.521644   -0.720567   -0.513963
      6          1           0        2.915051   -1.706250    2.023718
      7          1           0        2.926471   -2.538374    0.472899
      8          1           0        0.422935   -2.779090    0.577950
      9          1           0        0.411449   -1.942238    2.137580
     10          1           0        1.189958   -3.526923    1.989237
     11          6           0        3.413626    0.158503    0.028119
     12          6           0        3.198457    1.491779   -0.688862
     13          6           0        4.511291    2.186378   -1.051896
     14          1           0        4.002445    0.331166    0.939642
     15          1           0        4.014745   -0.501858   -0.611822
     16          1           0        2.597618    2.148973   -0.047220
     17          1           0        2.609039    1.316849   -1.598039
     18          1           0        5.112640    1.552838   -1.711901
     19          1           0        5.101155    2.389690   -0.152271
     20          1           0        4.334131    3.137523   -1.563557
     21          6           0       -2.598124    0.747817    0.287783
     22          6           0       -3.459513    1.998949    0.112671
     23          6           0       -3.119747    3.096533    1.121463
     24          1           0       -2.726205    0.362124    1.308461
     25          1           0       -1.539086    1.023412    0.188385
     26          1           0       -4.516680    1.720837    0.210996
     27          1           0       -3.329514    2.381599   -0.907768
     28          1           0       -2.073428    3.402402    1.020155
     29          1           0       -3.267339    2.737885    2.145274
     30          1           0       -3.747345    3.981676    0.978275
     31          6           0       -2.925965   -0.358417   -0.713463
     32          6           0       -2.064576   -1.609549   -0.538350
     33          6           0       -2.404343   -2.707133   -1.547143
     34          1           0       -3.985004   -0.634011   -0.614064
     35          1           0       -2.797884    0.027277   -1.734139
     36          1           0       -2.194575   -1.992198    0.482089
     37          1           0       -1.007410   -1.331436   -0.636675
     38          1           0       -2.256751   -2.348485   -2.570954
     39          1           0       -3.450662   -3.013001   -1.445833
     40          1           0       -1.776745   -3.592275   -1.403953
 ---------------------------------------------------------------------

 SCF Done:  E(RHF) =  -470.732324015     A.U. after   11 cycles
 E2 =    -0.1584128897D+01 EUMP2 =    -0.47231645291226D+03

 The electronic state is 1-A.
 Alpha  occ. eigenvalues --  -11.21645 -11.21588 -11.21577 -11.21490 -11.21439
 Alpha  occ. eigenvalues --  -11.21380 -11.21357 -11.21297 -11.21102 -11.21065
 Alpha  occ. eigenvalues --  -11.21061 -11.20947  -1.08469  -1.08377  -1.03576
 Alpha  occ. eigenvalues --   -1.03463  -0.96008  -0.95930  -0.87015  -0.86955
 Alpha  occ. eigenvalues --   -0.79765  -0.79441  -0.78404  -0.78053  -0.65133
 Alpha  occ. eigenvalues --   -0.64983  -0.61029  -0.60826  -0.59458  -0.59243
 Alpha  occ. eigenvalues --   -0.57748  -0.57422  -0.55263  -0.55234  -0.52671
 Alpha  occ. eigenvalues --   -0.52659  -0.52424  -0.52359  -0.49926  -0.49898
 Alpha  occ. eigenvalues --   -0.48251  -0.47630  -0.46797  -0.46497  -0.46131
 Alpha  occ. eigenvalues --   -0.45745  -0.45658  -0.45162  -0.43796  -0.43741
 Alpha virt. eigenvalues --    0.21224   0.23202   0.23355   0.24546   0.25433
 Alpha virt. eigenvalues --    0.26021   0.26545   0.27216   0.28538   0.29802
 Alpha virt. eigenvalues --    0.30497   0.30865   0.31572   0.31883   0.32124

 Mulliken charges:
               1
     1  C   -0.302444
     2  C   -0.299923
     3  C   -0.480092
     4  H    0.151008
     5  H    0.151291
     6  H    0.151726
     7  H    0.151514
     8  H    0.163275
     9  H    0.155141
    10  H    0.159004
    11  C   -0.297991
    12  C   -0.299695
    13  C   -0.475692
    14  H    0.149909
    15  H    0.149776
    16  H    0.151715
    17  H    0.151467
    18  H    0.155303
    19  H    0.155387
    20  H    0.160296
    21  C   -0.299721
    22  C   -0.299522
    23  C   -0.475665
    24  H    0.149143
    25  H    0.151245
    26  H    0.151879
    27  H    0.151918
    28  H    0.154989
    29  H    0.154975
    30  H    0.160206
    31  C   -0.297426
    32  C   -0.306951
    33  C   -0.477664
    34  H    0.149081
    35  H    0.148984
    36  H    0.154160
    37  H    0.158774
    38  H    0.154796
    39  H    0.155622
    40  H    0.160202
 Sum of Mulliken charges =  -0.00000

 Dipole moment (field-independent basis, Debye):
    X=              0.0133    Y=             -0.0060    Z=              0.0068  Tot=              0.0161
 Quadrupole moment (field-independent basis, Debye-Ang):
   XX=            -85.1487   YY=            -85.6507   ZZ=            -84.1433
   XY=             -0.3332   XZ=             -0.3236   YZ=             -0.1893

 Normal termination of Gaussian 16 at Wed May  5 18:07:54 2021.
