 Gaussian 16, Revision A.03,
 Gaussian 16:  EM64L-G16RevA.03 25-Dec-2016

 -------------
 #p 6-31g* mp2
 -------------

 ------------------------------------------------------
 Input file generated by CHIRIPA (05-May-2021 14:57:25)
 ------------------------------------------------------
 Symbolic Z-matrix:
 Charge =  0 Multiplicity = 1

                         Standard orientation:
 ---------------------------------------------------------------------
 Center     Atomic      Atomic             Coordinates (Angstroms)
 Number     Number       Type             X           Y           Z
 ---------------------------------------------------------------------
      1          6           0        2.184711    1.966381   -0.091564
      2          6           0        3.438551    2.102341   -0.696478
      3          6           0        4.337704    1.031955   -0.715106
      4          6           0        3.948525   -0.165430   -0.116693
      5          6           0        2.706442   -0.331965    0.493871
      6          6           0        1.823296    0.751803    0.500636
      7          1           0        1.492444    2.803080   -0.081702
      8          1           0        3.721922    3.044421   -1.157165
      9          1           0        5.314693    1.109791   -1.176463
     10          1           0        2.452317   -1.283482    0.944930
     11          1           0        0.850208    0.643341    0.971148
     12          7           0        4.891945   -1.305683   -0.130133
     13          8           0        4.525141   -2.350108    0.403972
     14          8           0        5.980338   -1.133398   -0.674518
     15          6           0       -2.017833    1.240183    1.387352
     16          6           0       -2.696096    1.858865    0.332027
     17          6           0       -3.681551    1.168835   -0.380212
     18          6           0       -3.964658   -0.144569   -0.008579
     19          6           0       -3.306365   -0.788367    1.038065
     20          6           0       -2.324591   -0.079133    1.736387
     21          1           0       -1.253737    1.783673    1.935231
     22          1           0       -2.459946    2.883366    0.058753
     23          1           0       -4.222061    1.623631   -1.201447
     24          1           0       -3.563722   -1.810676    1.287205
     25          1           0       -1.799459   -0.562144    2.555523
     26          7           0       -5.005966   -0.885239   -0.755228
     27          8           0       -5.236851   -2.041474   -0.408171
     28          8           0       -5.571543   -0.295515   -1.673371
 ---------------------------------------------------------------------

 SCF Done:  E(RHF) =  -868.336425874     A.U. after   16 cycles
 E2 =    -0.2600780469D+01 EUMP2 =    -0.87093720634252D+03

 The electronic state is 1-A.
 Alpha  occ. eigenvalues --  -20.61388 -20.61381 -20.61147 -20.61141 -15.86447
 Alpha  occ. eigenvalues --  -15.86203 -11.32045 -11.31673 -11.28619 -11.28606
 Alpha  occ. eigenvalues --  -11.28522 -11.28268 -11.28232 -11.28084 -11.27754
 Alpha  occ. eigenvalues --  -11.27744 -11.27317 -11.27291  -1.60456  -1.60219
 Alpha  occ. eigenvalues --   -1.40003  -1.39770  -1.20251  -1.19862  -1.09642
 Alpha  occ. eigenvalues --   -1.09252  -1.05671  -1.05282  -0.96427  -0.96067
 Alpha  occ. eigenvalues --   -0.87079  -0.86690  -0.83238  -0.82894  -0.78216
 Alpha  occ. eigenvalues --   -0.77918  -0.72663  -0.72423  -0.71780  -0.71543
 Alpha  occ. eigenvalues --   -0.71444  -0.71004  -0.65915  -0.65711  -0.65523
 Alpha  occ. eigenvalues --   -0.65286  -0.62998  -0.62637  -0.56275  -0.55826
 Alpha  occ. eigenvalues --   -0.54066  -0.53769  -0.53600  -0.53300  -0.49441
 Alpha  occ. eigenvalues --   -0.49401  -0.49188  -0.49169  -0.45356  -0.45152
 Alpha  occ. eigenvalues --   -0.38294  -0.37860  -0.37259  -0.36872
 Alpha virt. eigenvalues --    0.04250   0.04625   0.10285   0.10751   0.15543
 Alpha virt. eigenvalues --    0.16085   0.18960   0.21996   0.25565   0.25878
 Alpha virt. eigenvalues --    0.27780   0.29296   0.29802   0.30510   0.32237

 Mulliken charges:
               1
     1  C   -0.172058
     2  C   -0.217782
     3  C   -0.170503
     4  C    0.159639
     5  C   -0.171808
     6  C   -0.220282
     7  H    0.219317
     8  H    0.224516
     9  H    0.277316
    10  H    0.275712
    11  H    0.221159
    12  N    0.488003
    13  O   -0.459603
    14  O   -0.458846
    15  C   -0.178539
    16  C   -0.218427
    17  C   -0.169523
    18  C    0.160399
    19  C   -0.168913
    20  C   -0.220445
    21  H    0.221722
    22  H    0.222711
    23  H    0.278512
    24  H    0.279599
    25  H    0.225518
    26  N    0.487886
    27  O   -0.457206
    28  O   -0.458072
 Sum of Mulliken charges =  -0.00000

 Dipole moment (field-independent basis, Debye):
    X=              0.1537    Y=              6.4883    Z=              2.5543  Tot=              6.9747
 Quadrupole moment (field-independent basis, Debye-Ang):
   XX=           -157.1832   YY=           -102.8211   ZZ=           -103.1402
   XY=              7.1760   XZ=            -11.3603   YZ=             -5.4068

 Normal termination of Gaussian 16 at Thu May  6 05:07:39 2021.
