 Gaussian 16, Revision A.03,
 Gaussian 16:  EM64L-G16RevA.03 25-Dec-2016

 -------------
 #p 6-31g* mp2
 -------------

 ------------------------------------------------------
 Input file generated by CHIRIPA (05-May-2021 14:57:26)
 ------------------------------------------------------
 Symbolic Z-matrix:
 Charge =  0 Multiplicity = 1

                         Standard orientation:
 ---------------------------------------------------------------------
 Center     Atomic      Atomic             Coordinates (Angstroms)
 Number     Number       Type             X           Y           Z
 ---------------------------------------------------------------------
      1          6           0       -4.756018    1.173375    0.595874
      2          6           0       -3.487280    1.752382    0.488283
      3          6           0       -2.396765    0.996277    0.048251
      4          6           0       -2.611854   -0.342026   -0.277285
      5          6           0       -3.863767   -0.947547   -0.180599
      6          6           0       -4.939888   -0.172369    0.261679
      7          1           0       -5.597566    1.768144    0.938574
      8          1           0       -3.341535    2.797273    0.747137
      9          1           0       -1.403819    1.419251   -0.044315
     10          1           0       -3.977969   -1.991578   -0.445879
     11          1           0       -5.924082   -0.624682    0.344263
     12          7           0       -1.464993   -1.152576   -0.744316
     13          8           0       -1.680729   -2.329569   -1.024999
     14          8           0       -0.372063   -0.595545   -0.820848
     15          6           0        2.647855    2.596922   -0.598216
     16          6           0        2.130483    2.242318    0.652025
     17          6           0        2.209719    0.921946    1.104671
     18          6           0        2.815663   -0.022473    0.277511
     19          6           0        3.340463    0.299732   -0.973112
     20          6           0        3.250132    1.626209   -1.405371
     21          1           0        2.581994    3.624991   -0.941924
     22          1           0        1.662203    2.994085    1.280998
     23          1           0        1.817418    0.619987    2.068174
     24          1           0        3.801536   -0.471814   -1.577716
     25          1           0        3.652793    1.898723   -2.376785
     26          7           0        2.905419   -1.423522    0.745916
     27          8           0        3.444095   -2.236858   -0.001714
     28          8           0        2.435394   -1.681801    1.851812
 ---------------------------------------------------------------------

 SCF Done:  E(RHF) =  -868.337428460     A.U. after   16 cycles
 E2 =    -0.2601334753D+01 EUMP2 =    -0.87093876321369D+03

 The electronic state is 1-A.
 Alpha  occ. eigenvalues --  -20.60800 -20.60758 -20.59700 -20.59670 -15.85828
 Alpha  occ. eigenvalues --  -15.84750 -11.31270 -11.30209 -11.27873 -11.27823
 Alpha  occ. eigenvalues --  -11.27615 -11.26935 -11.26920 -11.26858 -11.26828
 Alpha  occ. eigenvalues --  -11.26765 -11.26073 -11.25930  -1.59842  -1.58736
 Alpha  occ. eigenvalues --   -1.39400  -1.38302  -1.19452  -1.18445  -1.08833
 Alpha  occ. eigenvalues --   -1.07843  -1.04873  -1.03929  -0.95658  -0.94661
 Alpha  occ. eigenvalues --   -0.86265  -0.85332  -0.82497  -0.81528  -0.77528
 Alpha  occ. eigenvalues --   -0.76520  -0.72089  -0.71167  -0.71005  -0.70563
 Alpha  occ. eigenvalues --   -0.69972  -0.69660  -0.65110  -0.64883  -0.64161
 Alpha  occ. eigenvalues --   -0.64005  -0.62223  -0.61307  -0.55370  -0.54500
 Alpha  occ. eigenvalues --   -0.53192  -0.52974  -0.52155  -0.52079  -0.48828
 Alpha  occ. eigenvalues --   -0.48779  -0.47759  -0.47731  -0.44804  -0.43697
 Alpha  occ. eigenvalues --   -0.37437  -0.36484  -0.36390  -0.35502
 Alpha virt. eigenvalues --    0.05002   0.06091   0.11172   0.12116   0.16490
 Alpha virt. eigenvalues --    0.17468   0.21220   0.22035   0.26998   0.27769
 Alpha virt. eigenvalues --    0.28360   0.28967   0.30769   0.31478   0.32340

 Mulliken charges:
               1
     1  C   -0.170664
     2  C   -0.218740
     3  C   -0.173212
     4  C    0.158941
     5  C   -0.169856
     6  C   -0.218486
     7  H    0.225406
     8  H    0.220416
     9  H    0.273341
    10  H    0.277359
    11  H    0.224243
    12  N    0.491885
    13  O   -0.454793
    14  O   -0.467121
    15  C   -0.171664
    16  C   -0.224938
    17  C   -0.165690
    18  C    0.177819
    19  C   -0.163660
    20  C   -0.217644
    21  H    0.219748
    22  H    0.214307
    23  H    0.271135
    24  H    0.275570
    25  H    0.220238
    26  N    0.491001
    27  O   -0.459646
    28  O   -0.465292
 Sum of Mulliken charges =  -0.00000

 Dipole moment (field-independent basis, Debye):
    X=             -4.4275    Y=              7.3929    Z=             -0.1405  Tot=              8.6185
 Quadrupole moment (field-independent basis, Debye-Ang):
   XX=            -83.5163   YY=           -104.9976   ZZ=           -104.2813
   XY=              9.5738   XZ=            -10.2551   YZ=              1.7900

 Normal termination of Gaussian 16 at Thu May  6 05:11:42 2021.
