 Gaussian 16, Revision A.03,
 Gaussian 16:  EM64L-G16RevA.03 25-Dec-2016

 -------------
 #p 6-31g* mp2
 -------------

 ------------------------------------------------------
 Input file generated by CHIRIPA (05-May-2021 14:53:13)
 ------------------------------------------------------
 Symbolic Z-matrix:
 Charge =  0 Multiplicity = 1

                         Standard orientation:
 ---------------------------------------------------------------------
 Center     Atomic      Atomic             Coordinates (Angstroms)
 Number     Number       Type             X           Y           Z
 ---------------------------------------------------------------------
      1          6           0        2.476857    0.716985   -0.495528
      2          6           0        3.255730   -0.495815    0.014824
      3          6           0        4.072633   -1.178345   -1.082725
      4          1           0        1.809100    0.400362   -1.308422
      5          1           0        3.180814    1.438723   -0.932486
      6          1           0        2.550653   -1.214435    0.451936
      7          1           0        3.921570   -0.176303    0.826726
      8          1           0        4.798154   -0.480609   -1.513289
      9          1           0        3.419448   -1.524640   -1.890209
     10          1           0        4.621447   -2.042701   -0.696007
     11          6           0        1.655297    1.409979    0.590071
     12          6           0        0.876423    2.622778    0.079718
     13          6           0        0.059520    3.305308    1.177268
     14          1           0        0.951339    0.688240    1.027029
     15          1           0        2.323053    1.726602    1.402964
     16          1           0        0.210583    2.303266   -0.732184
     17          1           0        1.581500    3.341399   -0.357394
     18          1           0        0.712706    3.651603    1.984751
     19          1           0       -0.666001    2.607573    1.607832
     20          1           0       -0.489294    4.169665    0.790549
     21          6           0       -0.217960   -2.338719    1.426959
     22          6           0       -1.221015   -1.545693    1.993979
     23          6           0       -2.000708   -0.706490    1.192504
     24          6           0       -1.749098   -0.685069   -0.178454
     25          6           0       -0.757096   -1.463282   -0.773104
     26          6           0        0.010395   -2.295059    0.047658
     27          1           0        0.382986   -2.987748    2.057055
     28          1           0       -1.400587   -1.577558    3.064858
     29          1           0       -2.783739   -0.082056    1.605254
     30          1           0       -0.601572   -1.410000   -1.843801
     31          1           0        0.788699   -2.909833   -0.395446
     32          7           0       -2.568066    0.199427   -1.037150
     33          8           0       -2.326573    0.200132   -2.242270
     34          8           0       -3.435960    0.875242   -0.488814
 ---------------------------------------------------------------------

 SCF Done:  E(RHF) =  -669.534479103     A.U. after   15 cycles
 E2 =    -0.2097232504D+01 EUMP2 =    -0.67163171160731D+03

 The electronic state is 1-A.
 Alpha  occ. eigenvalues --  -20.60930 -20.60924 -15.85982 -11.31399 -11.27954
 Alpha  occ. eigenvalues --  -11.27937 -11.27683 -11.26985 -11.26959 -11.21890
 Alpha  occ. eigenvalues --  -11.21568 -11.21498 -11.21416 -11.21275 -11.20864
 Alpha  occ. eigenvalues --   -1.60002  -1.39553  -1.19582  -1.08963  -1.08500
 Alpha  occ. eigenvalues --   -1.04983  -1.03629  -0.96082  -0.95778  -0.87103
 Alpha  occ. eigenvalues --   -0.86371  -0.82605  -0.79712  -0.78286  -0.77652
 Alpha  occ. eigenvalues --   -0.72194  -0.71336  -0.70657  -0.65288  -0.65218
 Alpha  occ. eigenvalues --   -0.64920  -0.62339  -0.61016  -0.59472  -0.57672
 Alpha  occ. eigenvalues --   -0.55493  -0.55403  -0.53301  -0.53051  -0.52760
 Alpha  occ. eigenvalues --   -0.52491  -0.50058  -0.48960  -0.48947  -0.48032
 Alpha  occ. eigenvalues --   -0.46784  -0.45817  -0.45652  -0.44926  -0.43847
 Alpha  occ. eigenvalues --   -0.37485  -0.36511
 Alpha virt. eigenvalues --    0.04841   0.10906   0.16300   0.20207   0.22976
 Alpha virt. eigenvalues --    0.23614   0.25930   0.27095   0.27546   0.27829
 Alpha virt. eigenvalues --    0.28707   0.30471   0.31261   0.31876   0.32145

 Mulliken charges:
               1
     1  C   -0.296479
     2  C   -0.304130
     3  C   -0.476130
     4  H    0.147786
     5  H    0.150935
     6  H    0.148332
     7  H    0.152188
     8  H    0.159695
     9  H    0.149852
    10  H    0.157685
    11  C   -0.304676
    12  C   -0.302214
    13  C   -0.474850
    14  H    0.155764
    15  H    0.146904
    16  H    0.156049
    17  H    0.152228
    18  H    0.152096
    19  H    0.151984
    20  H    0.165336
    21  C   -0.170808
    22  C   -0.217740
    23  C   -0.172933
    24  C    0.160051
    25  C   -0.172025
    26  C   -0.216813
    27  H    0.227436
    28  H    0.225073
    29  H    0.276802
    30  H    0.276276
    31  H    0.227226
    32  N    0.488444
    33  O   -0.460113
    34  O   -0.459231
 Sum of Mulliken charges =  -0.00000

 Dipole moment (field-independent basis, Debye):
    X=              2.7100    Y=             -3.1292    Z=              3.0282  Tot=              5.1290
 Quadrupole moment (field-independent basis, Debye-Ang):
   XX=           -104.1850   YY=            -90.4399   ZZ=            -93.2875
   XY=              3.5650   XZ=             -7.6634   YZ=             -0.6865

 Normal termination of Gaussian 16 at Wed May  5 15:34:12 2021.
