 Gaussian 16, Revision A.03,
 Gaussian 16:  EM64L-G16RevA.03 25-Dec-2016

 -------------
 #p 6-31g* mp2
 -------------

 ------------------------------------------------------
 Input file generated by CHIRIPA (05-May-2021 14:51:08)
 ------------------------------------------------------
 Symbolic Z-matrix:
 Charge =  0 Multiplicity = 1

                         Standard orientation:
 ---------------------------------------------------------------------
 Center     Atomic      Atomic             Coordinates (Angstroms)
 Number     Number       Type             X           Y           Z
 ---------------------------------------------------------------------
      1          6           0        3.954814   -0.268761   -0.120670
      2          6           0        3.007014    0.856783    0.295034
      3          6           0        1.542000    0.536250   -0.002936
      4          1           0        3.832022   -0.465022   -1.194611
      5          1           0        3.667173   -1.192233    0.400729
      6          1           0        3.297215    1.778187   -0.225940
      7          1           0        3.132215    1.050517    1.368071
      8          1           0        1.229647   -0.368233    0.528990
      9          1           0        1.395584    0.363571   -1.074078
     10          1           0        0.881976    1.354260    0.302167
     11          6           0        5.422929    0.036861    0.170814
     12          6           0        6.370729   -1.088684   -0.244890
     13          6           0        7.835743   -0.768151    0.053080
     14          1           0        5.710570    0.960332   -0.350585
     15          1           0        5.545721    0.233121    1.244755
     16          1           0        6.245528   -1.282418   -1.317927
     17          1           0        6.080529   -2.010088    0.276084
     18          1           0        7.982159   -0.595472    1.124222
     19          1           0        8.148096    0.136333   -0.478846
     20          1           0        8.495767   -1.586161   -0.252023
     21          6           0       -3.933398    0.208267   -0.089641
     22          6           0       -3.494508    1.671949   -0.034906
     23          6           0       -1.980441    1.840382   -0.165395
     24          1           0       -3.430553   -0.348934    0.712618
     25          1           0       -3.594664   -0.233666   -1.036926
     26          1           0       -3.835170    2.111372    0.911388
     27          1           0       -3.998603    2.225770   -0.837269
     28          1           0       -1.627460    1.427897   -1.116112
     29          1           0       -1.463097    1.312849    0.642482
     30          1           0       -1.688685    2.894423   -0.123708
     31          6           0       -5.444346    0.023634    0.039497
     32          6           0       -5.883235   -1.440048   -0.015238
     33          6           0       -7.397302   -1.608481    0.115251
     34          1           0       -5.783079    0.465567    0.986782
     35          1           0       -5.947190    0.580835   -0.762762
     36          1           0       -5.379139   -1.993869    0.787125
     37          1           0       -5.542573   -1.879471   -0.961532
     38          1           0       -7.914645   -1.080949   -0.692625
     39          1           0       -7.750284   -1.195996    1.065967
     40          1           0       -7.689058   -2.662522    0.073564
 ---------------------------------------------------------------------

 SCF Done:  E(RHF) =  -470.732642713     A.U. after   11 cycles
 E2 =    -0.1582482982D+01 EUMP2 =    -0.47231512569504D+03

 The electronic state is 1-A.
 Alpha  occ. eigenvalues --  -11.21581 -11.21572 -11.21547 -11.21515 -11.21373
 Alpha  occ. eigenvalues --  -11.21357 -11.21312 -11.21295 -11.21056 -11.21048
 Alpha  occ. eigenvalues --  -11.20986 -11.20907  -1.08399  -1.08374  -1.03519
 Alpha  occ. eigenvalues --   -1.03447  -0.96018  -0.95852  -0.87097  -0.86813
 Alpha  occ. eigenvalues --   -0.79673  -0.79430  -0.78221  -0.78177  -0.65032
 Alpha  occ. eigenvalues --   -0.65006  -0.60926  -0.60846  -0.59348  -0.59292
 Alpha  occ. eigenvalues --   -0.57620  -0.57470  -0.55294  -0.55151  -0.52986
 Alpha  occ. eigenvalues --   -0.52594  -0.52336  -0.52053  -0.49953  -0.49784
 Alpha  occ. eigenvalues --   -0.47897  -0.47811  -0.46633  -0.46525  -0.45768
 Alpha  occ. eigenvalues --   -0.45719  -0.45682  -0.45653  -0.43812  -0.43594
 Alpha virt. eigenvalues --    0.22662   0.22976   0.23743   0.24690   0.26498
 Alpha virt. eigenvalues --    0.26664   0.26835   0.27504   0.27653   0.29121
 Alpha virt. eigenvalues --    0.30325   0.31130   0.31549   0.31876   0.32233

 Mulliken charges:
               1
     1  C   -0.298450
     2  C   -0.299854
     3  C   -0.479527
     4  H    0.149406
     5  H    0.149235
     6  H    0.151567
     7  H    0.151258
     8  H    0.153498
     9  H    0.154227
    10  H    0.169437
    11  C   -0.298143
    12  C   -0.299549
    13  C   -0.475658
    14  H    0.149404
    15  H    0.149477
    16  H    0.151853
    17  H    0.151825
    18  H    0.155109
    19  H    0.155130
    20  H    0.160132
    21  C   -0.298164
    22  C   -0.300570
    23  C   -0.477401
    24  H    0.149675
    25  H    0.149569
    26  H    0.151469
    27  H    0.151475
    28  H    0.157087
    29  H    0.157884
    30  H    0.158891
    31  C   -0.298243
    32  C   -0.299594
    33  C   -0.475681
    34  H    0.149408
    35  H    0.149570
    36  H    0.151881
    37  H    0.151918
    38  H    0.155143
    39  H    0.155131
    40  H    0.160178
 Sum of Mulliken charges =  -0.00000

 Dipole moment (field-independent basis, Debye):
    X=             -0.0186    Y=              0.0115    Z=             -0.0015  Tot=              0.0219
 Quadrupole moment (field-independent basis, Debye-Ang):
   XX=            -87.4866   YY=            -84.7433   ZZ=            -82.8870
   XY=             -0.3120   XZ=             -0.0724   YZ=             -0.4613

 Normal termination of Gaussian 16 at Wed May  5 21:19:19 2021.
