 Gaussian 16, Revision A.03,
 Gaussian 16:  EM64L-G16RevA.03 25-Dec-2016

 -------------
 #p 6-31g* mp2
 -------------

 ------------------------------------------------------
 Input file generated by CHIRIPA (05-May-2021 14:51:10)
 ------------------------------------------------------
 Symbolic Z-matrix:
 Charge =  0 Multiplicity = 1

                         Standard orientation:
 ---------------------------------------------------------------------
 Center     Atomic      Atomic             Coordinates (Angstroms)
 Number     Number       Type             X           Y           Z
 ---------------------------------------------------------------------
      1          6           0        2.453718    0.457948   -0.367300
      2          6           0        2.235318    1.967447   -0.475466
      3          6           0        2.693582    2.536308   -1.818666
      4          1           0        3.519367    0.236441   -0.516542
      5          1           0        1.913205   -0.043039   -1.182317
      6          1           0        2.774953    2.465332    0.340328
      7          1           0        1.170096    2.185404   -0.325759
      8          1           0        2.147003    2.066372   -2.642688
      9          1           0        3.760979    2.347890   -1.972816
     10          1           0        2.528279    3.616781   -1.874464
     11          6           0        2.000507   -0.125467    0.969844
     12          6           0        2.218907   -1.634965    1.078010
     13          6           0        1.760643   -2.203827    2.421210
     14          1           0        2.541020    0.375520    1.784860
     15          1           0        0.934858    0.096040    1.119086
     16          1           0        3.284129   -1.852922    0.928303
     17          1           0        1.679272   -2.132850    0.262216
     18          1           0        0.693246   -2.015408    2.575360
     19          1           0        2.307222   -1.733890    3.245232
     20          1           0        1.925946   -3.284299    2.477007
     21          6           0       -2.102832    0.327583    0.268047
     22          6           0       -3.326785    1.177112    0.611885
     23          6           0       -3.062470    2.160183    1.752719
     24          1           0       -1.784240   -0.224188    1.163029
     25          1           0       -1.269640    0.990470   -0.003553
     26          1           0       -4.157825    0.512778    0.881419
     27          1           0       -3.642617    1.726779   -0.284068
     28          1           0       -2.250890    2.846319    1.489741
     29          1           0       -2.769026    1.625420    2.661851
     30          1           0       -3.950602    2.757254    1.982042
     31          6           0       -2.351393   -0.660065   -0.870591
     32          6           0       -1.127440   -1.509594   -1.214429
     33          6           0       -1.391756   -2.492664   -2.355263
     34          1           0       -3.184585   -1.322951   -0.598990
     35          1           0       -2.669985   -0.108293   -1.765572
     36          1           0       -0.811609   -2.059261   -0.318475
     37          1           0       -0.296400   -0.845259   -1.483962
     38          1           0       -1.685199   -1.957902   -3.264394
     39          1           0       -2.203335   -3.178801   -2.092285
     40          1           0       -0.503624   -3.089735   -2.584585
 ---------------------------------------------------------------------

 SCF Done:  E(RHF) =  -470.732193088     A.U. after   11 cycles
 E2 =    -0.1586101283D+01 EUMP2 =    -0.47231829437053D+03

 The electronic state is 1-A.
 Alpha  occ. eigenvalues --  -11.21683 -11.21680 -11.21610 -11.21518 -11.21483
 Alpha  occ. eigenvalues --  -11.21455 -11.21324 -11.21212 -11.21154 -11.21126
 Alpha  occ. eigenvalues --  -11.21091 -11.21045  -1.08577  -1.08338  -1.03627
 Alpha  occ. eigenvalues --   -1.03490  -0.96071  -0.95945  -0.87084  -0.86963
 Alpha  occ. eigenvalues --   -0.79722  -0.79555  -0.78413  -0.78151  -0.65277
 Alpha  occ. eigenvalues --   -0.64932  -0.61098  -0.60842  -0.59429  -0.59307
 Alpha  occ. eigenvalues --   -0.57714  -0.57537  -0.55369  -0.55239  -0.52752
 Alpha  occ. eigenvalues --   -0.52656  -0.52497  -0.52370  -0.50041  -0.49883
 Alpha  occ. eigenvalues --   -0.48101  -0.47897  -0.46941  -0.46380  -0.46362
 Alpha  occ. eigenvalues --   -0.45800  -0.45472  -0.45183  -0.43873  -0.43726
 Alpha virt. eigenvalues --    0.19738   0.21949   0.23039   0.23931   0.25491
 Alpha virt. eigenvalues --    0.26353   0.26604   0.28058   0.28388   0.30207
 Alpha virt. eigenvalues --    0.30838   0.31273   0.31539   0.31757   0.32323

 Mulliken charges:
               1
     1  C   -0.302698
     2  C   -0.303510
     3  C   -0.475377
     4  H    0.149841
     5  H    0.153087
     6  H    0.152529
     7  H    0.153470
     8  H    0.154394
     9  H    0.155595
    10  H    0.160123
    11  C   -0.305103
    12  C   -0.303115
    13  C   -0.476696
    14  H    0.148764
    15  H    0.158927
    16  H    0.151279
    17  H    0.156532
    18  H    0.154273
    19  H    0.155349
    20  H    0.159877
    21  C   -0.306357
    22  C   -0.299125
    23  C   -0.476044
    24  H    0.150646
    25  H    0.155058
    26  H    0.152330
    27  H    0.152217
    28  H    0.155297
    29  H    0.155488
    30  H    0.160690
    31  C   -0.297296
    32  C   -0.309868
    33  C   -0.475849
    34  H    0.149979
    35  H    0.149793
    36  H    0.155551
    37  H    0.158366
    38  H    0.155402
    39  H    0.155671
    40  H    0.160511
 Sum of Mulliken charges =  -0.00000

 Dipole moment (field-independent basis, Debye):
    X=             -0.0604    Y=             -0.0003    Z=             -0.0150  Tot=              0.0623
 Quadrupole moment (field-independent basis, Debye-Ang):
   XX=            -83.9311   YY=            -85.1726   ZZ=            -85.7140
   XY=              0.1890   XZ=              0.3528   YZ=             -0.4451

 Normal termination of Gaussian 16 at Wed May  5 18:13:54 2021.
