 Gaussian 16, Revision A.03,
 Gaussian 16:  EM64L-G16RevA.03 25-Dec-2016

 -------------
 #p 6-31g* mp2
 -------------

 ------------------------------------------------------
 Input file generated by CHIRIPA (05-May-2021 14:57:22)
 ------------------------------------------------------
 Symbolic Z-matrix:
 Charge =  0 Multiplicity = 1

                         Standard orientation:
 ---------------------------------------------------------------------
 Center     Atomic      Atomic             Coordinates (Angstroms)
 Number     Number       Type             X           Y           Z
 ---------------------------------------------------------------------
      1          6           0       -2.548011    1.963559    1.635868
      2          6           0       -2.156916    0.693473    2.072271
      3          6           0       -2.448411   -0.440656    1.308511
      4          6           0       -3.135540   -0.267333    0.108052
      5          6           0       -3.538566    0.984753   -0.353623
      6          6           0       -3.236374    2.104896    0.426446
      7          1           0       -2.317417    2.839145    2.235510
      8          1           0       -1.622205    0.580702    3.011107
      9          1           0       -2.157434   -1.435679    1.622646
     10          1           0       -4.070330    1.065488   -1.293903
     11          1           0       -3.541340    3.090028    0.085044
     12          7           0       -3.449794   -1.460581   -0.709139
     13          8           0       -4.056222   -1.281137   -1.763029
     14          8           0       -3.083729   -2.552700   -0.280291
     15          6           0        1.096402    1.170395   -1.341364
     16          6           0        2.392099    1.597394   -1.650170
     17          6           0        3.500633    0.995307   -1.047516
     18          6           0        3.275876   -0.035647   -0.136524
     19          6           0        1.997221   -0.483411    0.191861
     20          6           0        0.903438    0.133184   -0.422954
     21          1           0        0.240995    1.643746   -1.814244
     22          1           0        2.544964    2.402679   -2.363046
     23          1           0        4.514555    1.306167   -1.268306
     24          1           0        1.876514   -1.288543    0.906431
     25          1           0       -0.101682   -0.200495   -0.181215
     26          7           0        4.441624   -0.680729    0.507917
     27          8           0        4.216869   -1.586988    1.307176
     28          8           0        5.558016   -0.267870    0.201566
 ---------------------------------------------------------------------

 SCF Done:  E(RHF) =  -868.337115294     A.U. after   16 cycles
 E2 =    -0.2601947242D+01 EUMP2 =    -0.87093906253564D+03

 The electronic state is 1-A.
 Alpha  occ. eigenvalues --  -20.61712 -20.61707 -20.60808 -20.60803 -15.86772
 Alpha  occ. eigenvalues --  -15.85859 -11.32322 -11.31210 -11.28858 -11.28825
 Alpha  occ. eigenvalues --  -11.28532 -11.27876 -11.27836 -11.27765 -11.27746
 Alpha  occ. eigenvalues --  -11.27477 -11.26795 -11.26645  -1.60792  -1.59884
 Alpha  occ. eigenvalues --   -1.40337  -1.39438  -1.20499  -1.19365  -1.09817
 Alpha  occ. eigenvalues --   -1.08762  -1.05892  -1.04760  -0.96629  -0.95605
 Alpha  occ. eigenvalues --   -0.87252  -0.86161  -0.83437  -0.82438  -0.78484
 Alpha  occ. eigenvalues --   -0.77498  -0.72965  -0.72151  -0.72073  -0.71499
 Alpha  occ. eigenvalues --   -0.71207  -0.70480  -0.66090  -0.65817  -0.65012
 Alpha  occ. eigenvalues --   -0.64801  -0.63194  -0.62151  -0.56292  -0.55293
 Alpha  occ. eigenvalues --   -0.54357  -0.53916  -0.53094  -0.52664  -0.49744
 Alpha  occ. eigenvalues --   -0.49724  -0.48836  -0.48830  -0.45695  -0.44847
 Alpha  occ. eigenvalues --   -0.38463  -0.37554  -0.37310  -0.36323
 Alpha virt. eigenvalues --    0.04004   0.05037   0.10040   0.11294   0.15487
 Alpha virt. eigenvalues --    0.16562   0.20440   0.21504   0.26195   0.27151
 Alpha virt. eigenvalues --    0.27674   0.28286   0.30113   0.31083   0.31751

 Mulliken charges:
               1
     1  C   -0.171035
     2  C   -0.211923
     3  C   -0.192698
     4  C    0.159714
     5  C   -0.175960
     6  C   -0.219423
     7  H    0.230808
     8  H    0.230059
     9  H    0.278901
    10  H    0.278238
    11  H    0.226918
    12  N    0.487821
    13  O   -0.457623
    14  O   -0.457490
    15  C   -0.174488
    16  C   -0.218474
    17  C   -0.171966
    18  C    0.159090
    19  C   -0.175916
    20  C   -0.220605
    21  H    0.224446
    22  H    0.222489
    23  H    0.275193
    24  H    0.273783
    25  H    0.233427
    26  N    0.488053
    27  O   -0.460817
    28  O   -0.460523
 Sum of Mulliken charges =  -0.00000

 Dipole moment (field-independent basis, Debye):
    X=             -3.2710    Y=              6.5467    Z=              0.7118  Tot=              7.3529
 Quadrupole moment (field-independent basis, Debye-Ang):
   XX=           -136.4969   YY=           -104.2761   ZZ=           -100.5705
   XY=             -5.5248   XZ=            -16.1217   YZ=             -4.3707

 Normal termination of Gaussian 16 at Thu May  6 12:52:57 2021.
