 Gaussian 16, Revision A.03,
 Gaussian 16:  EM64L-G16RevA.03 25-Dec-2016

 -------------
 #p 6-31g* mp2
 -------------

 ------------------------------------------------------
 Input file generated by CHIRIPA (05-May-2021 14:55:23)
 ------------------------------------------------------
 Symbolic Z-matrix:
 Charge =  0 Multiplicity = 1

                         Standard orientation:
 ---------------------------------------------------------------------
 Center     Atomic      Atomic             Coordinates (Angstroms)
 Number     Number       Type             X           Y           Z
 ---------------------------------------------------------------------
      1          6           0       -1.020297    0.982329    0.005187
      2          6           0       -1.970467    1.380233    0.951427
      3          6           0       -3.242596    0.800592    0.967316
      4          6           0       -3.531993   -0.178492    0.018141
      5          6           0       -2.606844   -0.596254   -0.937298
      6          6           0       -1.340953   -0.002907   -0.934499
      7          1           0       -0.034500    1.437932    0.000102
      8          1           0       -1.724224    2.145147    1.682396
      9          1           0       -3.997182    1.089824    1.688678
     10          1           0       -2.881626   -1.361225   -1.653351
     11          1           0       -0.605029   -0.313897   -1.670534
     12          7           0       -4.875437   -0.799387    0.025070
     13          8           0       -5.105646   -1.659879   -0.821804
     14          8           0       -5.672781   -0.413796    0.877243
     15          6           0        4.063006    0.814629    0.174904
     16          6           0        3.070397    1.480413   -0.778745
     17          6           0        2.731090    2.914729   -0.372050
     18          1           0        3.645470    0.820112    1.191063
     19          1           0        4.983397    1.413715    0.211927
     20          1           0        2.152676    0.879507   -0.815020
     21          1           0        3.490261    1.473173   -1.792785
     22          1           0        3.633825    3.533884   -0.354198
     23          1           0        2.288639    2.936845    0.629123
     24          1           0        2.020022    3.371636   -1.067377
     25          6           0        4.412072   -0.619657   -0.218421
     26          6           0        5.404680   -1.285441    0.735228
     27          6           0        5.743987   -2.719757    0.328533
     28          1           0        3.491680   -1.218742   -0.255443
     29          1           0        4.829607   -0.625139   -1.234580
     30          1           0        4.984816   -1.278200    1.749268
     31          1           0        6.322401   -0.684535    0.771503
     32          1           0        6.186438   -2.741873   -0.672640
     33          1           0        4.841252   -3.338911    0.310681
     34          1           0        6.455055   -3.176663    1.023859
 ---------------------------------------------------------------------

 SCF Done:  E(RHF) =  -669.535417151     A.U. after   15 cycles
 E2 =    -0.2091522852D+01 EUMP2 =    -0.67162694000355D+03

 The electronic state is 1-A.
 Alpha  occ. eigenvalues --  -20.60730 -20.60725 -15.85784 -11.31140 -11.27714
 Alpha  occ. eigenvalues --  -11.27710 -11.27397 -11.26717 -11.26707 -11.22903
 Alpha  occ. eigenvalues --  -11.22372 -11.22365 -11.22243 -11.22167 -11.21586
 Alpha  occ. eigenvalues --   -1.59806  -1.39359  -1.19311  -1.09371  -1.08703
 Alpha  occ. eigenvalues --   -1.04716  -1.04474  -0.96902  -0.95540  -0.87914
 Alpha  occ. eigenvalues --   -0.86112  -0.82379  -0.80561  -0.79130  -0.77427
 Alpha  occ. eigenvalues --   -0.72001  -0.71129  -0.70458  -0.66010  -0.64961
 Alpha  occ. eigenvalues --   -0.64720  -0.62072  -0.61879  -0.60303  -0.58497
 Alpha  occ. eigenvalues --   -0.56261  -0.55083  -0.53601  -0.53311  -0.53043
 Alpha  occ. eigenvalues --   -0.52806  -0.50857  -0.48854  -0.48759  -0.48756
 Alpha  occ. eigenvalues --   -0.47612  -0.46672  -0.46570  -0.44767  -0.44698
 Alpha  occ. eigenvalues --   -0.37284  -0.36325
 Alpha virt. eigenvalues --    0.05106   0.11320   0.16583   0.18931   0.22641
 Alpha virt. eigenvalues --    0.23626   0.24958   0.25883   0.26748   0.27929
 Alpha virt. eigenvalues --    0.29236   0.30514   0.30779   0.31182   0.31952

 Mulliken charges:
               1
     1  C   -0.179081
     2  C   -0.220467
     3  C   -0.170607
     4  C    0.158041
     5  C   -0.170646
     6  C   -0.222258
     7  H    0.239580
     8  H    0.223502
     9  H    0.275371
    10  H    0.275415
    11  H    0.223701
    12  N    0.488030
    13  O   -0.460595
    14  O   -0.460560
    15  C   -0.298059
    16  C   -0.304814
    17  C   -0.481361
    18  H    0.149993
    19  H    0.153506
    20  H    0.142041
    21  H    0.157919
    22  H    0.163890
    23  H    0.151201
    24  H    0.161448
    25  C   -0.298978
    26  C   -0.300357
    27  C   -0.476312
    28  H    0.148523
    29  H    0.151177
    30  H    0.153017
    31  H    0.153306
    32  H    0.155943
    33  H    0.155959
    34  H    0.162530
 Sum of Mulliken charges =  -0.00000

 Dipole moment (field-independent basis, Debye):
    X=              5.0214    Y=              2.2032    Z=             -0.0232  Tot=              5.4835
 Quadrupole moment (field-independent basis, Debye-Ang):
   XX=           -126.9068   YY=            -95.1274   ZZ=            -91.7417
   XY=             -8.7164   XZ=             -1.4227   YZ=              2.2168

 Normal termination of Gaussian 16 at Thu May  6 17:37:05 2021.
