 Gaussian 16, Revision A.03,
 Gaussian 16:  EM64L-G16RevA.03 25-Dec-2016

 -------------
 #p 6-31g* mp2
 -------------

 ------------------------------------------------------
 Input file generated by CHIRIPA (05-May-2021 14:53:15)
 ------------------------------------------------------
 Symbolic Z-matrix:
 Charge =  0 Multiplicity = 1

                         Standard orientation:
 ---------------------------------------------------------------------
 Center     Atomic      Atomic             Coordinates (Angstroms)
 Number     Number       Type             X           Y           Z
 ---------------------------------------------------------------------
      1          6           0       -3.180048    1.044485    0.493735
      2          6           0       -2.680315    2.161430   -0.423154
      3          6           0       -1.809669    3.182644    0.309576
      4          1           0       -3.749688    1.486508    1.322633
      5          1           0       -2.316658    0.535539    0.944209
      6          1           0       -3.544361    2.667222   -0.872836
      7          1           0       -2.111961    1.716683   -1.250069
      8          1           0       -0.929798    2.697391    0.744267
      9          1           0       -2.370337    3.653330    1.123644
     10          1           0       -1.463298    3.972166   -0.364621
     11          6           0       -4.051793    0.015774   -0.224277
     12          6           0       -4.551527   -1.101171    0.692612
     13          6           0       -5.422172   -2.122385   -0.040118
     14          1           0       -4.915184    0.524719   -0.674751
     15          1           0       -3.482153   -0.426249   -1.053175
     16          1           0       -5.119881   -0.656424    1.519527
     17          1           0       -3.687480   -1.606963    1.142294
     18          1           0       -4.861504   -2.593071   -0.854186
     19          1           0       -6.302043   -1.637132   -0.474809
     20          1           0       -5.768543   -2.911907    0.634079
     21          6           0        0.574645   -1.450911   -0.581977
     22          6           0        1.617529   -2.239510   -0.084958
     23          6           0        2.868530   -1.675728    0.182801
     24          6           0        3.042488   -0.313934   -0.059169
     25          6           0        2.023105    0.498066   -0.553946
     26          6           0        0.780399   -0.087045   -0.814475
     27          1           0       -0.393940   -1.897154   -0.787169
     28          1           0        1.460609   -3.298977    0.096558
     29          1           0        3.693250   -2.263027    0.567943
     30          1           0        2.209782    1.551332   -0.724827
     31          1           0       -0.027699    0.527823   -1.200428
     32          7           0        4.362476    0.294206    0.220467
     33          8           0        4.490194    1.496366   -0.001205
     34          8           0        5.244371   -0.442808    0.656023
 ---------------------------------------------------------------------

 SCF Done:  E(RHF) =  -669.535601487     A.U. after   15 cycles
 E2 =    -0.2092100080D+01 EUMP2 =    -0.67162770156742D+03

 The electronic state is 1-A.
 Alpha  occ. eigenvalues --  -20.60772 -20.60767 -15.85825 -11.31206 -11.27780
 Alpha  occ. eigenvalues --  -11.27769 -11.27527 -11.26797 -11.26765 -11.22615
 Alpha  occ. eigenvalues --  -11.22443 -11.22334 -11.22258 -11.21855 -11.21829
 Alpha  occ. eigenvalues --   -1.59847  -1.39400  -1.19381  -1.09355  -1.08772
 Alpha  occ. eigenvalues --   -1.04788  -1.04403  -0.96825  -0.95605  -0.87836
 Alpha  occ. eigenvalues --   -0.86183  -0.82436  -0.80466  -0.79154  -0.77483
 Alpha  occ. eigenvalues --   -0.72044  -0.71170  -0.70490  -0.66106  -0.65031
 Alpha  occ. eigenvalues --   -0.64739  -0.62278  -0.61645  -0.60188  -0.58431
 Alpha  occ. eigenvalues --   -0.56129  -0.55275  -0.53500  -0.53234  -0.53111
 Alpha  occ. eigenvalues --   -0.52871  -0.50768  -0.48830  -0.48798  -0.48735
 Alpha  occ. eigenvalues --   -0.47522  -0.46693  -0.46624  -0.44802  -0.44657
 Alpha  occ. eigenvalues --   -0.37360  -0.36380
 Alpha virt. eigenvalues --    0.05036   0.11182   0.16465   0.18328   0.22483
 Alpha virt. eigenvalues --    0.23550   0.25196   0.26261   0.26529   0.28210
 Alpha virt. eigenvalues --    0.29538   0.30352   0.30904   0.31114   0.32375

 Mulliken charges:
               1
     1  C   -0.301875
     2  C   -0.303061
     3  C   -0.479427
     4  H    0.154810
     5  H    0.150136
     6  H    0.157727
     7  H    0.141932
     8  H    0.156129
     9  H    0.160601
    10  H    0.162790
    11  C   -0.297881
    12  C   -0.300271
    13  C   -0.475713
    14  H    0.153554
    15  H    0.141547
    16  H    0.155804
    17  H    0.149364
    18  H    0.152405
    19  H    0.157848
    20  H    0.162735
    21  C   -0.174374
    22  C   -0.218478
    23  C   -0.170917
    24  C    0.158940
    25  C   -0.173813
    26  C   -0.224888
    27  H    0.226422
    28  H    0.223570
    29  H    0.275734
    30  H    0.276658
    31  H    0.234537
    32  N    0.488054
    33  O   -0.460145
    34  O   -0.460455
 Sum of Mulliken charges =  -0.00000

 Dipole moment (field-independent basis, Debye):
    X=             -4.8213    Y=             -2.0619    Z=             -0.8824  Tot=              5.3174
 Quadrupole moment (field-independent basis, Debye-Ang):
   XX=           -121.8625   YY=            -89.5456   ZZ=            -95.1137
   XY=             -8.1038   XZ=             -2.8761   YZ=             -1.2083

 Normal termination of Gaussian 16 at Thu May  6 20:25:02 2021.
