 Gaussian 16, Revision A.03,
 Gaussian 16:  EM64L-G16RevA.03 25-Dec-2016

 -------------
 #p 6-31g* mp2
 -------------

 ------------------------------------------------------
 Input file generated by CHIRIPA (05-May-2021 14:51:12)
 ------------------------------------------------------
 Symbolic Z-matrix:
 Charge =  0 Multiplicity = 1

                         Standard orientation:
 ---------------------------------------------------------------------
 Center     Atomic      Atomic             Coordinates (Angstroms)
 Number     Number       Type             X           Y           Z
 ---------------------------------------------------------------------
      1          6           0        4.910567    0.078321    0.194712
      2          6           0        6.089403   -0.798533   -0.228912
      3          6           0        7.441431   -0.199255    0.159263
      4          1           0        5.017784    1.071592   -0.262304
      5          1           0        4.947093    0.229170    1.282510
      6          1           0        6.049880   -0.948825   -1.315405
      7          1           0        5.979267   -1.789892    0.229011
      8          1           0        7.506180   -0.064997    1.243875
      9          1           0        7.577194    0.780849   -0.309316
     10          1           0        8.270148   -0.842329   -0.153056
     11          6           0        3.552121   -0.507436   -0.186393
     12          6           0        2.373285    0.369419    0.237231
     13          6           0        1.021257   -0.229860   -0.150944
     14          1           0        3.515596   -0.658285   -1.274192
     15          1           0        3.444905   -1.500706    0.270623
     16          1           0        2.483421    1.360778   -0.220692
     17          1           0        2.412808    0.519711    1.323724
     18          1           0        0.885494   -1.209963    0.317635
     19          1           0        0.956508   -0.364117   -1.235556
     20          1           0        0.192540    0.413215    0.161375
     21          6           0       -4.207830    0.966947    0.125412
     22          6           0       -2.877150    1.608807   -0.268657
     23          6           0       -2.845511    3.114284   -0.003459
     24          1           0       -5.021415    1.455396   -0.428161
     25          1           0       -4.397034    1.156530    1.191083
     26          1           0       -2.689845    1.416886   -1.332940
     27          1           0       -2.066618    1.118643    0.285776
     28          1           0       -3.007249    3.321728    1.059277
     29          1           0       -3.634018    3.621665   -0.568636
     30          1           0       -1.885232    3.552735   -0.292397
     31          6           0       -4.254858   -0.537832   -0.133731
     32          6           0       -5.585539   -1.179692    0.260338
     33          6           0       -5.617177   -2.685169   -0.004859
     34          1           0       -4.065654   -0.727415   -1.199402
     35          1           0       -3.441274   -1.026281    0.419842
     36          1           0       -6.396071   -0.689529   -0.294095
     37          1           0       -5.772843   -0.987771    1.324621
     38          1           0       -4.828671   -3.192550    0.560317
     39          1           0       -5.455439   -2.892614   -1.067596
     40          1           0       -6.577457   -3.123620    0.284078
 ---------------------------------------------------------------------

 SCF Done:  E(RHF) =  -470.733261682     A.U. after   11 cycles
 E2 =    -0.1582360671D+01 EUMP2 =    -0.47231562235290D+03

 The electronic state is 1-A.
 Alpha  occ. eigenvalues --  -11.21598 -11.21590 -11.21578 -11.21575 -11.21398
 Alpha  occ. eigenvalues --  -11.21379 -11.21338 -11.21318 -11.21068 -11.21068
 Alpha  occ. eigenvalues --  -11.21050 -11.21027  -1.08425  -1.08406  -1.03534
 Alpha  occ. eigenvalues --   -1.03499  -0.95979  -0.95951  -0.87007  -0.86958
 Alpha  occ. eigenvalues --   -0.79641  -0.79523  -0.78244  -0.78210  -0.65053
 Alpha  occ. eigenvalues --   -0.65045  -0.60935  -0.60915  -0.59464  -0.59218
 Alpha  occ. eigenvalues --   -0.57653  -0.57496  -0.55253  -0.55248  -0.52738
 Alpha  occ. eigenvalues --   -0.52621  -0.52408  -0.52362  -0.49908  -0.49899
 Alpha  occ. eigenvalues --   -0.47997  -0.47801  -0.46617  -0.46599  -0.45778
 Alpha  occ. eigenvalues --   -0.45763  -0.45704  -0.45684  -0.43793  -0.43687
 Alpha virt. eigenvalues --    0.22053   0.23018   0.23592   0.24793   0.26071
 Alpha virt. eigenvalues --    0.26656   0.27005   0.27486   0.27993   0.28759
 Alpha virt. eigenvalues --    0.30250   0.31385   0.31636   0.31832   0.32042

 Mulliken charges:
               1
     1  C   -0.298201
     2  C   -0.299622
     3  C   -0.475694
     4  H    0.149624
     5  H    0.149459
     6  H    0.151930
     7  H    0.151920
     8  H    0.155160
     9  H    0.155174
    10  H    0.160239
    11  C   -0.298565
    12  C   -0.298931
    13  C   -0.482420
    14  H    0.149537
    15  H    0.149577
    16  H    0.151818
    17  H    0.151569
    18  H    0.154598
    19  H    0.155428
    20  H    0.167169
    21  C   -0.297608
    22  C   -0.306214
    23  C   -0.475713
    24  H    0.149554
    25  H    0.149247
    26  H    0.152319
    27  H    0.157860
    28  H    0.155006
    29  H    0.155327
    30  H    0.160167
    31  C   -0.298386
    32  C   -0.299653
    33  C   -0.475669
    34  H    0.149658
    35  H    0.150152
    36  H    0.151839
    37  H    0.151798
    38  H    0.155222
    39  H    0.155205
    40  H    0.160121
 Sum of Mulliken charges =  -0.00000

 Dipole moment (field-independent basis, Debye):
    X=             -0.0076    Y=             -0.0001    Z=             -0.0062  Tot=              0.0098
 Quadrupole moment (field-independent basis, Debye-Ang):
   XX=            -85.8963   YY=            -85.8403   ZZ=            -83.1237
   XY=             -0.5419   XZ=              0.0722   YZ=             -0.8361

 Normal termination of Gaussian 16 at Wed May  5 19:53:50 2021.
