 Gaussian 16, Revision A.03,
 Gaussian 16:  EM64L-G16RevA.03 25-Dec-2016

 -------------
 #p 6-31g* mp2
 -------------

 ------------------------------------------------------
 Input file generated by CHIRIPA (05-May-2021 14:55:23)
 ------------------------------------------------------
 Symbolic Z-matrix:
 Charge =  0 Multiplicity = 1

                         Standard orientation:
 ---------------------------------------------------------------------
 Center     Atomic      Atomic             Coordinates (Angstroms)
 Number     Number       Type             X           Y           Z
 ---------------------------------------------------------------------
      1          6           0       -3.969406    2.179557    0.726780
      2          6           0       -2.826159    2.337339   -0.063543
      3          6           0       -2.190546    1.224794   -0.622818
      4          6           0       -2.727626   -0.036544   -0.370111
      5          6           0       -3.865177   -0.226273    0.413005
      6          6           0       -4.484359    0.900509    0.962117
      7          1           0       -4.456784    3.049338    1.157291
      8          1           0       -2.424019    3.329460   -0.247995
      9          1           0       -1.304163    1.318243   -1.238457
     10          1           0       -4.242641   -1.227946    0.579104
     11          1           0       -5.372082    0.774965    1.575495
     12          7           0       -2.063428   -1.221881   -0.956811
     13          8           0       -2.556361   -2.322418   -0.719171
     14          8           0       -1.062474   -1.027967   -1.643197
     15          6           0        3.225445   -0.537966    0.903645
     16          6           0        2.041959   -1.352306    0.380008
     17          6           0        1.239357   -2.015765    1.499581
     18          1           0        3.883618   -1.194418    1.489159
     19          1           0        2.854941    0.230923    1.595693
     20          1           0        2.414446   -2.118539   -0.311914
     21          1           0        1.386628   -0.693881   -0.204487
     22          1           0        0.840244   -1.262162    2.186160
     23          1           0        1.873902   -2.694914    2.078122
     24          1           0        0.398159   -2.592735    1.102903
     25          6           0        4.037515    0.131401   -0.203702
     26          6           0        5.221001    0.945742    0.319936
     27          6           0        6.023603    1.609201   -0.799637
     28          1           0        4.408020   -0.637488   -0.895750
     29          1           0        3.379343    0.787853   -0.789215
     30          1           0        5.876332    0.287317    0.904431
     31          1           0        4.848514    1.711975    1.011858
     32          1           0        5.389057    2.288349   -1.378179
     33          1           0        6.422716    0.855597   -1.486217
     34          1           0        6.864800    2.186171   -0.402960
 ---------------------------------------------------------------------

 SCF Done:  E(RHF) =  -669.536247698     A.U. after   15 cycles
 E2 =    -0.2091697779D+01 EUMP2 =    -0.67162794547675D+03

 The electronic state is 1-A.
 Alpha  occ. eigenvalues --  -20.60964 -20.60953 -15.85978 -11.31294 -11.27861
 Alpha  occ. eigenvalues --  -11.27850 -11.27593 -11.26865 -11.26854 -11.21262
 Alpha  occ. eigenvalues --  -11.20895 -11.20807 -11.20743 -11.20558 -11.20211
 Alpha  occ. eigenvalues --   -1.60011  -1.39569  -1.19461  -1.08867  -1.07846
 Alpha  occ. eigenvalues --   -1.04858  -1.02911  -0.95711  -0.95400  -0.86424
 Alpha  occ. eigenvalues --   -0.86259  -0.82546  -0.78988  -0.77663  -0.77546
 Alpha  occ. eigenvalues --   -0.72199  -0.71325  -0.70572  -0.65119  -0.64862
 Alpha  occ. eigenvalues --   -0.64491  -0.62207  -0.60322  -0.58765  -0.56963
 Alpha  occ. eigenvalues --   -0.55363  -0.54723  -0.53187  -0.52951  -0.52076
 Alpha  occ. eigenvalues --   -0.51818  -0.49383  -0.48968  -0.48953  -0.47309
 Alpha  occ. eigenvalues --   -0.46078  -0.45363  -0.45130  -0.44633  -0.43161
 Alpha  occ. eigenvalues --   -0.37437  -0.36458
 Alpha virt. eigenvalues --    0.04892   0.11183   0.16360   0.21235   0.23323
 Alpha virt. eigenvalues --    0.24778   0.26770   0.27375   0.27750   0.28486
 Alpha virt. eigenvalues --    0.28633   0.30726   0.31729   0.32127   0.32689

 Mulliken charges:
               1
     1  C   -0.170565
     2  C   -0.218543
     3  C   -0.171247
     4  C    0.159037
     5  C   -0.170606
     6  C   -0.218533
     7  H    0.226018
     8  H    0.223774
     9  H    0.275477
    10  H    0.275943
    11  H    0.223895
    12  N    0.488874
    13  O   -0.459638
    14  O   -0.458651
    15  C   -0.298339
    16  C   -0.301336
    17  C   -0.481431
    18  H    0.147403
    19  H    0.143983
    20  H    0.155006
    21  H    0.162467
    22  H    0.146914
    23  H    0.152066
    24  H    0.171422
    25  C   -0.296820
    26  C   -0.298949
    27  C   -0.475114
    28  H    0.151214
    29  H    0.147411
    30  H    0.151672
    31  H    0.149177
    32  H    0.153528
    33  H    0.155929
    34  H    0.158564
 Sum of Mulliken charges =  -0.00000

 Dipole moment (field-independent basis, Debye):
    X=             -2.5606    Y=              4.0941    Z=              1.9374  Tot=              5.2030
 Quadrupole moment (field-independent basis, Debye-Ang):
   XX=            -80.5723   YY=            -93.1781   ZZ=            -96.8535
   XY=            -10.2630   XZ=             -6.4862   YZ=             -2.4420

 Normal termination of Gaussian 16 at Thu May  6 20:52:08 2021.
