 Gaussian 16, Revision A.03,
 Gaussian 16:  EM64L-G16RevA.03 25-Dec-2016

 -------------
 #p 6-31g* mp2
 -------------

 ------------------------------------------------------
 Input file generated by CHIRIPA (05-May-2021 14:55:23)
 ------------------------------------------------------
 Symbolic Z-matrix:
 Charge =  0 Multiplicity = 1

                         Standard orientation:
 ---------------------------------------------------------------------
 Center     Atomic      Atomic             Coordinates (Angstroms)
 Number     Number       Type             X           Y           Z
 ---------------------------------------------------------------------
      1          6           0        0.663212   -2.763757    0.896380
      2          6           0        0.571981   -2.492407   -0.472769
      3          6           0        1.223390   -1.383929   -1.021851
      4          6           0        1.960744   -0.564204   -0.168827
      5          6           0        2.070668   -0.808087    1.199284
      6          6           0        1.410946   -1.922215    1.726573
      7          1           0        0.153953   -3.627044    1.314455
      8          1           0       -0.008013   -3.144228   -1.119901
      9          1           0        1.169553   -1.150502   -2.078275
     10          1           0        2.656273   -0.140071    1.819154
     11          1           0        1.483557   -2.130501    2.790241
     12          7           0        2.654762    0.612282   -0.738579
     13          8           0        3.298092    1.319055    0.034231
     14          8           0        2.542262    0.805364   -1.947174
     15          6           0       -2.915360    0.485250    0.304148
     16          6           0       -3.453731   -0.354363   -0.854813
     17          6           0       -4.557484   -1.320051   -0.422412
     18          1           0       -2.532965   -0.184148    1.086852
     19          1           0       -3.743310    1.050820    0.753620
     20          1           0       -2.624765   -0.917122   -1.302844
     21          1           0       -3.834714    0.317115   -1.634933
     22          1           0       -5.403097   -0.771904    0.005460
     23          1           0       -4.186273   -2.013154    0.339436
     24          1           0       -4.927883   -1.910251   -1.266408
     25          6           0       -1.811326    1.455495   -0.112341
     26          6           0       -1.272954    2.295108    1.046620
     27          6           0       -0.169201    3.260796    0.614219
     28          1           0       -0.983376    0.889926   -0.561812
     29          1           0       -2.193720    2.124893   -0.895045
     30          1           0       -0.891971    1.623630    1.826740
     31          1           0       -2.101920    2.857868    1.494651
     32          1           0       -0.540412    3.953899   -0.147629
     33          1           0        0.676412    2.712649    0.186347
     34          1           0        0.201198    3.850996    1.458215
 ---------------------------------------------------------------------

 SCF Done:  E(RHF) =  -669.535917827     A.U. after   15 cycles
 E2 =    -0.2094165869D+01 EUMP2 =    -0.67163008369553D+03

 The electronic state is 1-A.
 Alpha  occ. eigenvalues --  -20.60948 -20.60942 -15.85975 -11.31356 -11.27929
 Alpha  occ. eigenvalues --  -11.27923 -11.27665 -11.26946 -11.26930 -11.21816
 Alpha  occ. eigenvalues --  -11.21440 -11.21395 -11.21356 -11.21207 -11.20508
 Alpha  occ. eigenvalues --   -1.60018  -1.39567  -1.19535  -1.08925  -1.08399
 Alpha  occ. eigenvalues --   -1.04932  -1.03477  -0.95900  -0.95757  -0.86911
 Alpha  occ. eigenvalues --   -0.86325  -0.82584  -0.79556  -0.78191  -0.77631
 Alpha  occ. eigenvalues --   -0.72196  -0.71368  -0.70627  -0.65183  -0.65044
 Alpha  occ. eigenvalues --   -0.64920  -0.62273  -0.60879  -0.59311  -0.57508
 Alpha  occ. eigenvalues --   -0.55426  -0.55206  -0.53256  -0.53014  -0.52593
 Alpha  occ. eigenvalues --   -0.52305  -0.49851  -0.48963  -0.48956  -0.47860
 Alpha  occ. eigenvalues --   -0.46615  -0.45715  -0.45657  -0.44928  -0.43717
 Alpha  occ. eigenvalues --   -0.37487  -0.36501
 Alpha virt. eigenvalues --    0.04866   0.11053   0.16298   0.20989   0.22721
 Alpha virt. eigenvalues --    0.24034   0.26086   0.26933   0.27729   0.28045
 Alpha virt. eigenvalues --    0.28344   0.30284   0.31558   0.31728   0.32229

 Mulliken charges:
               1
     1  C   -0.171029
     2  C   -0.217605
     3  C   -0.172492
     4  C    0.158657
     5  C   -0.171181
     6  C   -0.218632
     7  H    0.226634
     8  H    0.224902
     9  H    0.276819
    10  H    0.276737
    11  H    0.224416
    12  N    0.487168
    13  O   -0.457987
    14  O   -0.458126
    15  C   -0.296903
    16  C   -0.298948
    17  C   -0.475320
    18  H    0.146882
    19  H    0.149546
    20  H    0.146144
    21  H    0.154109
    22  H    0.157197
    23  H    0.150839
    24  H    0.159142
    25  C   -0.300333
    26  C   -0.300775
    27  C   -0.477461
    28  H    0.149914
    29  H    0.151108
    30  H    0.147414
    31  H    0.150178
    32  H    0.155937
    33  H    0.162810
    34  H    0.160239
 Sum of Mulliken charges =  -0.00000

 Dipole moment (field-independent basis, Debye):
    X=             -2.2756    Y=             -4.1317    Z=              1.9800  Tot=              5.1156
 Quadrupole moment (field-independent basis, Debye-Ang):
   XX=           -104.7471   YY=            -90.2503   ZZ=            -91.4221
   XY=             -7.4866   XZ=              6.5250   YZ=              0.5706

 Normal termination of Gaussian 16 at Wed May  5 16:02:33 2021.
