 Gaussian 16, Revision A.03,
 Gaussian 16:  EM64L-G16RevA.03 25-Dec-2016

 -------------
 #p 6-31g* mp2
 -------------

 ------------------------------------------------------
 Input file generated by CHIRIPA (05-May-2021 14:53:16)
 ------------------------------------------------------
 Symbolic Z-matrix:
 Charge =  0 Multiplicity = 1

                         Standard orientation:
 ---------------------------------------------------------------------
 Center     Atomic      Atomic             Coordinates (Angstroms)
 Number     Number       Type             X           Y           Z
 ---------------------------------------------------------------------
      1          6           0       -4.255714   -0.046122    0.228212
      2          6           0       -4.751959    0.731809   -0.991029
      3          6           0       -6.206518    1.182337   -0.852912
      4          1           0       -4.899506   -0.922816    0.382760
      5          1           0       -4.362585    0.581877    1.123528
      6          1           0       -4.642896    0.103034   -1.883981
      7          1           0       -4.106795    1.606648   -1.142806
      8          1           0       -6.327669    1.830714    0.020891
      9          1           0       -6.866815    0.318556   -0.724495
     10          1           0       -6.540675    1.736553   -1.735546
     11          6           0       -2.803279   -0.503293    0.105107
     12          6           0       -2.307034   -1.281223    1.324349
     13          6           0       -0.852475   -1.731751    1.186231
     14          1           0       -2.696408   -1.131291   -0.790209
     15          1           0       -2.159488    0.373402   -0.049440
     16          1           0       -2.952198   -2.156063    1.476126
     17          1           0       -2.416097   -0.652448    2.217300
     18          1           0       -0.192178   -0.867970    1.057815
     19          1           0       -0.731324   -2.380128    0.312429
     20          1           0       -0.518318   -2.285968    2.068866
     21          6           0        2.756943    2.548504    0.828382
     22          6           0        3.111315    2.341021   -0.508740
     23          6           0        3.115089    1.052208   -1.050491
     24          6           0        2.757465   -0.011016   -0.222875
     25          6           0        2.399589    0.163430    1.113083
     26          6           0        2.402836    1.460964    1.633605
     27          1           0        2.756738    3.553072    1.240982
     28          1           0        3.386765    3.183739   -1.136432
     29          1           0        3.385190    0.863104   -2.082336
     30          1           0        2.129702   -0.696435    1.714091
     31          1           0        2.127181    1.619113    2.672378
     32          7           0        2.757745   -1.380041   -0.785166
     33          8           0        2.438714   -2.300026   -0.035177
     34          8           0        3.076988   -1.507176   -1.965233
 ---------------------------------------------------------------------

 SCF Done:  E(RHF) =  -669.534773361     A.U. after   15 cycles
 E2 =    -0.2092800654D+01 EUMP2 =    -0.67162757401458D+03

 The electronic state is 1-A.
 Alpha  occ. eigenvalues --  -20.60806 -20.60775 -15.85826 -11.31202 -11.27788
 Alpha  occ. eigenvalues --  -11.27745 -11.27536 -11.26800 -11.26790 -11.21546
 Alpha  occ. eigenvalues --  -11.21373 -11.21298 -11.21204 -11.21045 -11.20630
 Alpha  occ. eigenvalues --   -1.59854  -1.39407  -1.19394  -1.08779  -1.08296
 Alpha  occ. eigenvalues --   -1.04802  -1.03370  -0.95833  -0.95593  -0.86844
 Alpha  occ. eigenvalues --   -0.86179  -0.82443  -0.79451  -0.78119  -0.77467
 Alpha  occ. eigenvalues --   -0.72049  -0.71170  -0.70506  -0.65041  -0.64957
 Alpha  occ. eigenvalues --   -0.64781  -0.62173  -0.60762  -0.59189  -0.57429
 Alpha  occ. eigenvalues --   -0.55363  -0.55077  -0.53154  -0.52916  -0.52472
 Alpha  occ. eigenvalues --   -0.52181  -0.49725  -0.48814  -0.48806  -0.47755
 Alpha  occ. eigenvalues --   -0.46475  -0.45677  -0.45577  -0.44728  -0.43621
 Alpha  occ. eigenvalues --   -0.37362  -0.36355
 Alpha virt. eigenvalues --    0.05020   0.11183   0.16493   0.21317   0.23003
 Alpha virt. eigenvalues --    0.24467   0.26772   0.26933   0.27641   0.27796
 Alpha virt. eigenvalues --    0.28923   0.30621   0.31596   0.31695   0.32038

 Mulliken charges:
               1
     1  C   -0.297846
     2  C   -0.299431
     3  C   -0.475554
     4  H    0.150341
     5  H    0.147419
     6  H    0.153289
     7  H    0.150261
     8  H    0.154047
     9  H    0.155726
    10  H    0.159871
    11  C   -0.298441
    12  C   -0.300552
    13  C   -0.477591
    14  H    0.152560
    15  H    0.147312
    16  H    0.152621
    17  H    0.146250
    18  H    0.148299
    19  H    0.168740
    20  H    0.157820
    21  C   -0.170541
    22  C   -0.218611
    23  C   -0.170745
    24  C    0.159389
    25  C   -0.173064
    26  C   -0.220691
    27  H    0.225678
    28  H    0.223527
    29  H    0.275721
    30  H    0.280961
    31  H    0.223892
    32  N    0.488428
    33  O   -0.458584
    34  O   -0.460499
 Sum of Mulliken charges =  -0.00000

 Dipole moment (field-independent basis, Debye):
    X=              0.1033    Y=              4.7251    Z=              1.9113  Tot=              5.0981
 Quadrupole moment (field-independent basis, Debye-Ang):
   XX=            -96.3345   YY=            -93.8725   ZZ=            -91.8629
   XY=             14.8845   XZ=              4.2807   YZ=             -2.4603

 Normal termination of Gaussian 16 at Thu May  6 22:02:10 2021.
