 Gaussian 16, Revision A.03,
 Gaussian 16:  EM64L-G16RevA.03 25-Dec-2016

 -------------
 #p 6-31g* mp2
 -------------

 ------------------------------------------------------
 Input file generated by CHIRIPA (05-May-2021 14:55:24)
 ------------------------------------------------------
 Symbolic Z-matrix:
 Charge =  0 Multiplicity = 1

                         Standard orientation:
 ---------------------------------------------------------------------
 Center     Atomic      Atomic             Coordinates (Angstroms)
 Number     Number       Type             X           Y           Z
 ---------------------------------------------------------------------
      1          6           0       -0.548349    0.323707    0.620251
      2          6           0       -0.942885   -0.712454   -0.232530
      3          6           0       -2.292812   -0.900993   -0.543490
      4          6           0       -3.225748   -0.030897    0.018519
      5          6           0       -2.864011    1.010669    0.871500
      6          6           0       -1.508479    1.180451    1.168577
      7          1           0        0.502484    0.462883    0.856420
      8          1           0       -0.199424   -1.379338   -0.659819
      9          1           0       -2.625909   -1.695023   -1.200742
     10          1           0       -3.628193    1.659372    1.282144
     11          1           0       -1.204977    1.985999    1.831166
     12          7           0       -4.657823   -0.220567   -0.303332
     13          8           0       -5.460269    0.559564    0.204716
     14          8           0       -4.950720   -1.145769   -1.057553
     15          6           0        3.608692   -0.625116    0.290038
     16          6           0        4.286080   -1.904268   -0.202811
     17          6           0        3.839412   -3.145377    0.570449
     18          1           0        3.825956   -0.491038    1.358571
     19          1           0        2.519160   -0.739138    0.204512
     20          1           0        5.374058   -1.787342   -0.117675
     21          1           0        4.067337   -2.035215   -1.270340
     22          1           0        2.758316   -3.289857    0.475802
     23          1           0        4.072462   -3.040575    1.635017
     24          1           0        4.335930   -4.048368    0.201753
     25          6           0        4.045004    0.624189   -0.473243
     26          6           0        3.367616    1.903341    0.019606
     27          6           0        3.814284    3.144449   -0.753653
     28          1           0        5.134535    0.738211   -0.387717
     29          1           0        3.827740    0.490110   -1.541776
     30          1           0        3.586359    2.034288    1.087137
     31          1           0        2.279637    1.786414   -0.065529
     32          1           0        3.581234    3.039648   -1.818221
     33          1           0        4.895380    3.288929   -0.659006
     34          1           0        3.317766    4.047441   -0.384957
 ---------------------------------------------------------------------

 SCF Done:  E(RHF) =  -669.535066785     A.U. after   15 cycles
 E2 =    -0.2092339865D+01 EUMP2 =    -0.67162740665011D+03

 The electronic state is 1-A.
 Alpha  occ. eigenvalues --  -20.60733 -20.60727 -15.85787 -11.31147 -11.27720
 Alpha  occ. eigenvalues --  -11.27711 -11.27382 -11.26729 -11.26711 -11.22747
 Alpha  occ. eigenvalues --  -11.22667 -11.22573 -11.22436 -11.21958 -11.21939
 Alpha  occ. eigenvalues --   -1.59808  -1.39362  -1.19316  -1.09546  -1.08706
 Alpha  occ. eigenvalues --   -1.04721  -1.04538  -0.96970  -0.95547  -0.87980
 Alpha  occ. eigenvalues --   -0.86118  -0.82389  -0.80620  -0.79407  -0.77431
 Alpha  occ. eigenvalues --   -0.72004  -0.71132  -0.70452  -0.66180  -0.64964
 Alpha  occ. eigenvalues --   -0.64712  -0.62085  -0.61924  -0.60343  -0.58595
 Alpha  occ. eigenvalues --   -0.56259  -0.55250  -0.53615  -0.53390  -0.53046
 Alpha  occ. eigenvalues --   -0.52812  -0.50911  -0.48929  -0.48761  -0.48758
 Alpha  occ. eigenvalues --   -0.47658  -0.46863  -0.46813  -0.44818  -0.44769
 Alpha  occ. eigenvalues --   -0.37280  -0.36329
 Alpha virt. eigenvalues --    0.05077   0.11322   0.16470   0.18918   0.22520
 Alpha virt. eigenvalues --    0.22934   0.25097   0.25697   0.26700   0.27364
 Alpha virt. eigenvalues --    0.29550   0.30742   0.30955   0.31095   0.31882

 Mulliken charges:
               1
     1  C   -0.177607
     2  C   -0.222400
     3  C   -0.170671
     4  C    0.158342
     5  C   -0.170662
     6  C   -0.220260
     7  H    0.237421
     8  H    0.222964
     9  H    0.275381
    10  H    0.275410
    11  H    0.223739
    12  N    0.488008
    13  O   -0.460485
    14  O   -0.460586
    15  C   -0.303165
    16  C   -0.300597
    17  C   -0.475751
    18  H    0.152490
    19  H    0.140068
    20  H    0.156414
    21  H    0.153296
    22  H    0.151422
    23  H    0.157530
    24  H    0.164571
    25  C   -0.298492
    26  C   -0.305712
    27  C   -0.475625
    28  H    0.154562
    29  H    0.152311
    30  H    0.152550
    31  H    0.146824
    32  H    0.158278
    33  H    0.158402
    34  H    0.162030
 Sum of Mulliken charges =  -0.00000

 Dipole moment (field-independent basis, Debye):
    X=              5.3424    Y=              0.6834    Z=              1.1040  Tot=              5.4979
 Quadrupole moment (field-independent basis, Debye-Ang):
   XX=           -125.8520   YY=            -92.5618   ZZ=            -93.3058
   XY=             -3.5234   XZ=             -3.8927   YZ=              3.0954

 Normal termination of Gaussian 16 at Thu May  6 09:30:45 2021.
