 Gaussian 16, Revision A.03,
 Gaussian 16:  EM64L-G16RevA.03 25-Dec-2016

 -------------
 #p 6-31g* mp2
 -------------

 ------------------------------------------------------
 Input file generated by CHIRIPA (05-May-2021 14:55:22)
 ------------------------------------------------------
 Symbolic Z-matrix:
 Charge =  0 Multiplicity = 1

                         Standard orientation:
 ---------------------------------------------------------------------
 Center     Atomic      Atomic             Coordinates (Angstroms)
 Number     Number       Type             X           Y           Z
 ---------------------------------------------------------------------
      1          6           0       -1.904238   -2.095907    0.929656
      2          6           0       -1.219747   -1.183726    0.119768
      3          6           0       -1.866663   -0.046024   -0.371844
      4          6           0       -3.204527    0.149144   -0.032260
      5          6           0       -3.913629   -0.741295    0.772465
      6          6           0       -3.246628   -1.872175    1.252850
      7          1           0       -1.393897   -2.977051    1.307191
      8          1           0       -0.177191   -1.354914   -0.132854
      9          1           0       -1.360688    0.676381   -1.000762
     10          1           0       -4.952502   -0.543611    1.007161
     11          1           0       -3.780722   -2.578886    1.881617
     12          7           0       -3.900020    1.349967   -0.546764
     13          8           0       -5.079016    1.499086   -0.233126
     14          8           0       -3.252982    2.119315   -1.253929
     15          6           0        3.800662    0.810159   -0.089033
     16          6           0        4.701895    1.642276    0.823846
     17          6           0        4.380780    3.136165    0.769302
     18          1           0        3.902168    1.171011   -1.121712
     19          1           0        2.751987    0.971405    0.196757
     20          1           0        5.748638    1.478438    0.537313
     21          1           0        4.598376    1.279277    1.854443
     22          1           0        3.345760    3.319157    1.075651
     23          1           0        4.502558    3.519450   -0.248963
     24          1           0        5.036838    3.712182    1.429343
     25          6           0        4.109487   -0.685319   -0.045462
     26          6           0        3.208254   -1.517435   -0.958341
     27          6           0        3.529369   -3.011325   -0.903797
     28          1           0        5.158162   -0.846565   -0.331253
     29          1           0        4.007980   -1.046171    0.987218
     30          1           0        3.311773   -1.154437   -1.988939
     31          1           0        2.161510   -1.353598   -0.671808
     32          1           0        3.407591   -3.394610    0.114468
     33          1           0        4.564388   -3.194317   -1.210146
     34          1           0        2.873312   -3.587341   -1.563837
 ---------------------------------------------------------------------

 SCF Done:  E(RHF) =  -669.535518292     A.U. after   15 cycles
 E2 =    -0.2091076112D+01 EUMP2 =    -0.67162659440343D+03

 The electronic state is 1-A.
 Alpha  occ. eigenvalues --  -20.60746 -20.60741 -15.85799 -11.31166 -11.27738
 Alpha  occ. eigenvalues --  -11.27729 -11.27481 -11.26755 -11.26729 -11.22571
 Alpha  occ. eigenvalues --  -11.22087 -11.22014 -11.21931 -11.21916 -11.21335
 Alpha  occ. eigenvalues --   -1.59822  -1.39375  -1.19340  -1.09085  -1.08735
 Alpha  occ. eigenvalues --   -1.04744  -1.04156  -0.96575  -0.95569  -0.87593
 Alpha  occ. eigenvalues --   -0.86144  -0.82404  -0.80250  -0.78873  -0.77448
 Alpha  occ. eigenvalues --   -0.72018  -0.71145  -0.70449  -0.65753  -0.64992
 Alpha  occ. eigenvalues --   -0.64745  -0.62132  -0.61521  -0.59967  -0.58185
 Alpha  occ. eigenvalues --   -0.55855  -0.55247  -0.53282  -0.53074  -0.53004
 Alpha  occ. eigenvalues --   -0.52841  -0.50517  -0.48789  -0.48772  -0.48530
 Alpha  occ. eigenvalues --   -0.47288  -0.46405  -0.46319  -0.44780  -0.44403
 Alpha  occ. eigenvalues --   -0.37323  -0.36348
 Alpha virt. eigenvalues --    0.05086   0.11303   0.16572   0.19239   0.22712
 Alpha virt. eigenvalues --    0.23683   0.24894   0.26473   0.27403   0.28336
 Alpha virt. eigenvalues --    0.28931   0.30010   0.31118   0.31267   0.32108

 Mulliken charges:
               1
     1  C   -0.173655
     2  C   -0.228065
     3  C   -0.174575
     4  C    0.158823
     5  C   -0.171175
     6  C   -0.218503
     7  H    0.226250
     8  H    0.237915
     9  H    0.276198
    10  H    0.275525
    11  H    0.223306
    12  N    0.488107
    13  O   -0.460635
    14  O   -0.460326
    15  C   -0.298515
    16  C   -0.300151
    17  C   -0.476379
    18  H    0.151942
    19  H    0.146325
    20  H    0.153035
    21  H    0.152108
    22  H    0.156732
    23  H    0.156615
    24  H    0.161815
    25  C   -0.297884
    26  C   -0.306447
    27  C   -0.476262
    28  H    0.153026
    29  H    0.149545
    30  H    0.156978
    31  H    0.143947
    32  H    0.153847
    33  H    0.160091
    34  H    0.160443
 Sum of Mulliken charges =  -0.00000

 Dipole moment (field-independent basis, Debye):
    X=              2.6494    Y=             -4.1982    Z=              1.7979  Tot=              5.2799
 Quadrupole moment (field-independent basis, Debye-Ang):
   XX=           -105.8371   YY=            -97.2544   ZZ=            -93.7950
   XY=             15.6436   XZ=             -8.8734   YZ=             -0.5361

 Normal termination of Gaussian 16 at Thu May  6 01:28:32 2021.
