 Gaussian 16, Revision A.03,
 Gaussian 16:  EM64L-G16RevA.03 25-Dec-2016

 -------------
 #p 6-31g* mp2
 -------------

 ------------------------------------------------------
 Input file generated by CHIRIPA (05-May-2021 14:55:23)
 ------------------------------------------------------
 Symbolic Z-matrix:
 Charge =  0 Multiplicity = 1

                         Standard orientation:
 ---------------------------------------------------------------------
 Center     Atomic      Atomic             Coordinates (Angstroms)
 Number     Number       Type             X           Y           Z
 ---------------------------------------------------------------------
      1          6           0       -4.196454    1.732031    0.038346
      2          6           0       -4.545348    0.546283   -0.616480
      3          6           0       -3.677946   -0.550128   -0.609908
      4          6           0       -2.464205   -0.425498    0.064326
      5          6           0       -2.088104    0.742419    0.725997
      6          6           0       -2.971106    1.826148    0.706317
      7          1           0       -4.876331    2.578824    0.028150
      8          1           0       -5.496312    0.470337   -1.136041
      9          1           0       -3.922910   -1.479982   -1.108689
     10          1           0       -1.133212    0.788052    1.235426
     11          1           0       -2.697515    2.745769    1.215720
     12          7           0       -1.537668   -1.579507    0.078222
     13          8           0       -0.474207   -1.444317    0.679396
     14          8           0       -1.892454   -2.597357   -0.512324
     15          6           0        3.061469   -0.365492    0.157080
     16          6           0        3.920247   -1.569355   -0.231758
     17          6           0        3.330640   -2.895865    0.248376
     18          1           0        2.945929   -0.343052    1.249367
     19          1           0        2.053406   -0.492566   -0.261319
     20          1           0        4.926792   -1.439384    0.186085
     21          1           0        4.033916   -1.588822   -1.323233
     22          1           0        2.334915   -3.052049   -0.179102
     23          1           0        3.232863   -2.901762    1.338792
     24          1           0        3.960503   -3.743077   -0.040352
     25          6           0        3.637820    0.967868   -0.315891
     26          6           0        2.779041    2.171732    0.072947
     27          6           0        3.368649    3.498241   -0.407188
     28          1           0        4.645883    1.094943    0.102507
     29          1           0        3.753360    0.945428   -1.408178
     30          1           0        2.665373    2.191199    1.164422
     31          1           0        1.772497    2.041762   -0.344897
     32          1           0        3.466426    3.504139   -1.497603
     33          1           0        4.364374    3.654425    0.020291
     34          1           0        2.738786    4.345453   -0.118459
 ---------------------------------------------------------------------

 SCF Done:  E(RHF) =  -669.536239062     A.U. after   15 cycles
 E2 =    -0.2091638640D+01 EUMP2 =    -0.67162787770127D+03

 The electronic state is 1-A.
 Alpha  occ. eigenvalues --  -20.60978 -20.60964 -15.85988 -11.31296 -11.27859
 Alpha  occ. eigenvalues --  -11.27846 -11.27593 -11.26863 -11.26851 -11.21334
 Alpha  occ. eigenvalues --  -11.20917 -11.20757 -11.20537 -11.20239 -11.19664
 Alpha  occ. eigenvalues --   -1.60031  -1.39586  -1.19464  -1.08873  -1.07670
 Alpha  occ. eigenvalues --   -1.04856  -1.02776  -0.95716  -0.95195  -0.86257
 Alpha  occ. eigenvalues --   -0.86210  -0.82550  -0.78921  -0.77646  -0.77324
 Alpha  occ. eigenvalues --   -0.72206  -0.71342  -0.70570  -0.65119  -0.64857
 Alpha  occ. eigenvalues --   -0.64311  -0.62200  -0.60180  -0.58653  -0.56788
 Alpha  occ. eigenvalues --   -0.55362  -0.54470  -0.53191  -0.52945  -0.51955
 Alpha  occ. eigenvalues --   -0.51590  -0.49155  -0.48982  -0.48946  -0.47194
 Alpha  occ. eigenvalues --   -0.45974  -0.45314  -0.44909  -0.44440  -0.43008
 Alpha  occ. eigenvalues --   -0.37443  -0.36456
 Alpha virt. eigenvalues --    0.04882   0.11184   0.16358   0.21161   0.23419
 Alpha virt. eigenvalues --    0.25114   0.26420   0.27452   0.27622   0.28772
 Alpha virt. eigenvalues --    0.29113   0.31140   0.32149   0.32239   0.32435

 Mulliken charges:
               1
     1  C   -0.170564
     2  C   -0.218593
     3  C   -0.170828
     4  C    0.157777
     5  C   -0.171947
     6  C   -0.218607
     7  H    0.226046
     8  H    0.223807
     9  H    0.275753
    10  H    0.277534
    11  H    0.224205
    12  N    0.488765
    13  O   -0.459630
    14  O   -0.459245
    15  C   -0.301818
    16  C   -0.299733
    17  C   -0.476862
    18  H    0.148035
    19  H    0.165830
    20  H    0.145973
    21  H    0.147861
    22  H    0.172646
    23  H    0.154069
    24  H    0.152919
    25  C   -0.297814
    26  C   -0.298653
    27  C   -0.474614
    28  H    0.147070
    29  H    0.147670
    30  H    0.149115
    31  H    0.147537
    32  H    0.155262
    33  H    0.155726
    34  H    0.155308
 Sum of Mulliken charges =  -0.00000

 Dipole moment (field-independent basis, Debye):
    X=             -3.5452    Y=              3.9194    Z=             -0.0370  Tot=              5.2850
 Quadrupole moment (field-independent basis, Debye-Ang):
   XX=            -77.7384   YY=            -98.7114   ZZ=            -93.2667
   XY=             -7.2163   XZ=              2.5966   YZ=              2.3765

 Normal termination of Gaussian 16 at Thu May  6 19:16:42 2021.
