 Gaussian 16, Revision A.03,
 Gaussian 16:  EM64L-G16RevA.03 25-Dec-2016

 -------------
 #p 6-31g* mp2
 -------------

 ------------------------------------------------------
 Input file generated by CHIRIPA (05-May-2021 14:55:25)
 ------------------------------------------------------
 Symbolic Z-matrix:
 Charge =  0 Multiplicity = 1

                         Standard orientation:
 ---------------------------------------------------------------------
 Center     Atomic      Atomic             Coordinates (Angstroms)
 Number     Number       Type             X           Y           Z
 ---------------------------------------------------------------------
      1          6           0       -2.237687    2.222518    0.377081
      2          6           0       -3.209139    2.133142   -0.625324
      3          6           0       -3.949068    0.959048   -0.794307
      4          6           0       -3.690351   -0.111141    0.060709
      5          6           0       -2.729189   -0.052874    1.068708
      6          6           0       -2.001229    1.131149    1.219412
      7          1           0       -1.667541    3.138440    0.501251
      8          1           0       -3.394914    2.979126   -1.280949
      9          1           0       -4.707063    0.862695   -1.562147
     10          1           0       -2.566540   -0.912925    1.706889
     11          1           0       -1.247408    1.197713    1.998751
     12          7           0       -4.467345   -1.359357   -0.108511
     13          8           0       -4.220385   -2.288068    0.657743
     14          8           0       -5.308600   -1.385364   -1.004195
     15          6           0        3.896560   -0.132227   -0.492230
     16          6           0        2.692783    0.220545    0.382102
     17          6           0        1.373322    0.193947   -0.389980
     18          1           0        3.948674    0.571244   -1.334464
     19          1           0        3.745212   -1.129883   -0.927166
     20          1           0        2.846991    1.216664    0.816363
     21          1           0        2.643642   -0.483730    1.222458
     22          1           0        1.192772   -0.800809   -0.810056
     23          1           0        1.397277    0.909245   -1.218458
     24          1           0        0.526055    0.449103    0.254142
     25          6           0        5.222909   -0.109899    0.265419
     26          6           0        6.426686   -0.462670   -0.608913
     27          6           0        7.746147   -0.436073    0.163170
     28          1           0        5.374257    0.887757    0.700354
     29          1           0        5.170796   -0.813369    1.107653
     30          1           0        6.475828    0.241603   -1.449269
     31          1           0        6.272479   -1.458789   -1.043175
     32          1           0        7.722193   -1.151371    0.991647
     33          1           0        7.926698    0.558683    0.583244
     34          1           0        8.593414   -0.691229   -0.480953
 ---------------------------------------------------------------------

 SCF Done:  E(RHF) =  -669.534838426     A.U. after   15 cycles
 E2 =    -0.2091909696D+01 EUMP2 =    -0.67162674812168D+03

 The electronic state is 1-A.
 Alpha  occ. eigenvalues --  -20.60778 -20.60773 -15.85833 -11.31213 -11.27790
 Alpha  occ. eigenvalues --  -11.27783 -11.27535 -11.26807 -11.26795 -11.22033
 Alpha  occ. eigenvalues --  -11.21833 -11.21716 -11.21645 -11.21388 -11.21274
 Alpha  occ. eigenvalues --   -1.59853  -1.39406  -1.19397  -1.08793  -1.08740
 Alpha  occ. eigenvalues --   -1.04812  -1.03844  -0.96285  -0.95615  -0.87305
 Alpha  occ. eigenvalues --   -0.86201  -0.82452  -0.79912  -0.78555  -0.77496
 Alpha  occ. eigenvalues --   -0.72052  -0.71176  -0.70496  -0.65375  -0.65050
 Alpha  occ. eigenvalues --   -0.64831  -0.62169  -0.61241  -0.59688  -0.57919
 Alpha  occ. eigenvalues --   -0.55561  -0.55300  -0.53503  -0.52923  -0.52774
 Alpha  occ. eigenvalues --   -0.52505  -0.50218  -0.48812  -0.48804  -0.48226
 Alpha  occ. eigenvalues --   -0.46950  -0.46095  -0.46020  -0.44809  -0.44111
 Alpha  occ. eigenvalues --   -0.37338  -0.36346
 Alpha virt. eigenvalues --    0.05044   0.11157   0.16487   0.20991   0.22640
 Alpha virt. eigenvalues --    0.24076   0.26341   0.26670   0.27224   0.28155
 Alpha virt. eigenvalues --    0.28473   0.30609   0.31110   0.31692   0.32055

 Mulliken charges:
               1
     1  C   -0.168525
     2  C   -0.218426
     3  C   -0.170413
     4  C    0.158689
     5  C   -0.169946
     6  C   -0.219899
     7  H    0.226165
     8  H    0.223627
     9  H    0.275806
    10  H    0.275976
    11  H    0.224404
    12  N    0.488105
    13  O   -0.460349
    14  O   -0.460335
    15  C   -0.298337
    16  C   -0.299842
    17  C   -0.480639
    18  H    0.149572
    19  H    0.151716
    20  H    0.147716
    21  H    0.151324
    22  H    0.159032
    23  H    0.153653
    24  H    0.159986
    25  C   -0.298350
    26  C   -0.299894
    27  C   -0.475840
    28  H    0.148488
    29  H    0.150077
    30  H    0.151928
    31  H    0.153041
    32  H    0.155608
    33  H    0.154799
    34  H    0.161084
 Sum of Mulliken charges =  -0.00000

 Dipole moment (field-independent basis, Debye):
    X=              2.7101    Y=              4.3879    Z=              0.5644  Tot=              5.1881
 Quadrupole moment (field-independent basis, Debye-Ang):
   XX=           -115.1921   YY=            -94.4001   ZZ=            -92.2743
   XY=            -17.8876   XZ=             -0.3591   YZ=             -1.8644

 Normal termination of Gaussian 16 at Thu May  6 09:33:57 2021.
