 Gaussian 16, Revision A.03,
 Gaussian 16:  EM64L-G16RevA.03 25-Dec-2016

 -------------
 #p 6-31g* mp2
 -------------

 ------------------------------------------------------
 Input file generated by CHIRIPA (05-May-2021 14:55:19)
 ------------------------------------------------------
 Symbolic Z-matrix:
 Charge =  0 Multiplicity = 1

                         Standard orientation:
 ---------------------------------------------------------------------
 Center     Atomic      Atomic             Coordinates (Angstroms)
 Number     Number       Type             X           Y           Z
 ---------------------------------------------------------------------
      1          6           0       -2.763928    1.867788   -1.514915
      2          6           0       -1.524335    1.445357   -1.023505
      3          6           0       -1.425213    0.284960   -0.250070
      4          6           0       -2.591194   -0.432061    0.013859
      5          6           0       -3.840702   -0.036975   -0.461461
      6          6           0       -3.916124    1.126580   -1.232822
      7          1           0       -2.831723    2.770439   -2.114932
      8          1           0       -0.627858    2.019004   -1.240999
      9          1           0       -0.478331   -0.064831    0.142967
     10          1           0       -4.716793   -0.629732   -0.227960
     11          1           0       -4.880146    1.452260   -1.613136
     12          7           0       -2.498804   -1.662193    0.831562
     13          8           0       -3.540861   -2.276230    1.049991
     14          8           0       -1.386079   -1.989041    1.238565
     15          6           0        3.508327   -0.037301   -0.511842
     16          6           0        4.428142   -1.250154   -0.367231
     17          6           0        4.763428   -1.901178   -1.709448
     18          1           0        2.580783   -0.346228   -1.013010
     19          1           0        3.987664    0.701358   -1.169120
     20          1           0        3.947819   -1.985712    0.290690
     21          1           0        5.353525   -0.938344    0.133823
     22          1           0        5.265222   -1.186377   -2.369646
     23          1           0        3.851528   -2.239696   -2.211888
     24          1           0        5.422003   -2.766097   -1.582747
     25          6           0        3.164112    0.624360    0.821368
     26          6           0        2.244296    1.837214    0.676758
     27          6           0        1.909011    2.488238    2.018974
     28          1           0        2.684775   -0.114299    1.478646
     29          1           0        4.091656    0.933287    1.322536
     30          1           0        1.318914    1.525403    0.175703
     31          1           0        2.724620    2.572771    0.018836
     32          1           0        2.820911    2.826755    2.521415
     33          1           0        1.407217    1.773435    2.679172
     34          1           0        1.250436    3.353156    1.892273
 ---------------------------------------------------------------------

 SCF Done:  E(RHF) =  -669.535069997     A.U. after   15 cycles
 E2 =    -0.2092349633D+01 EUMP2 =    -0.67162741962995D+03

 The electronic state is 1-A.
 Alpha  occ. eigenvalues --  -20.60786 -20.60780 -15.85837 -11.31180 -11.27747
 Alpha  occ. eigenvalues --  -11.27728 -11.27482 -11.26762 -11.26723 -11.22328
 Alpha  occ. eigenvalues --  -11.21761 -11.21715 -11.21665 -11.21530 -11.21127
 Alpha  occ. eigenvalues --   -1.59860  -1.39415  -1.19351  -1.08805  -1.08747
 Alpha  occ. eigenvalues --   -1.04760  -1.03871  -0.96284  -0.95590  -0.87306
 Alpha  occ. eigenvalues --   -0.86150  -0.82438  -0.79985  -0.78608  -0.77466
 Alpha  occ. eigenvalues --   -0.72058  -0.71182  -0.70477  -0.65488  -0.64991
 Alpha  occ. eigenvalues --   -0.64755  -0.62219  -0.61158  -0.59669  -0.57902
 Alpha  occ. eigenvalues --   -0.55554  -0.55252  -0.53079  -0.52995  -0.52846
 Alpha  occ. eigenvalues --   -0.52699  -0.50227  -0.48816  -0.48813  -0.48263
 Alpha  occ. eigenvalues --   -0.47013  -0.46137  -0.46019  -0.44825  -0.44120
 Alpha  occ. eigenvalues --   -0.37330  -0.36348
 Alpha virt. eigenvalues --    0.05048   0.11295   0.16524   0.19366   0.22680
 Alpha virt. eigenvalues --    0.24028   0.25384   0.26304   0.27331   0.28213
 Alpha virt. eigenvalues --    0.29569   0.30458   0.31335   0.31556   0.32558

 Mulliken charges:
               1
     1  C   -0.170733
     2  C   -0.221620
     3  C   -0.175966
     4  C    0.159354
     5  C   -0.170823
     6  C   -0.218709
     7  H    0.225707
     8  H    0.227352
     9  H    0.278967
    10  H    0.275484
    11  H    0.223462
    12  N    0.488648
    13  O   -0.460169
    14  O   -0.461614
    15  C   -0.298353
    16  C   -0.300813
    17  C   -0.476196
    18  H    0.145826
    19  H    0.148472
    20  H    0.157890
    21  H    0.152314
    22  H    0.153703
    23  H    0.156390
    24  H    0.162119
    25  C   -0.301240
    26  C   -0.306363
    27  C   -0.476244
    28  H    0.157794
    29  H    0.152722
    30  H    0.141491
    31  H    0.152561
    32  H    0.158690
    33  H    0.161357
    34  H    0.158540
 Sum of Mulliken charges =  -0.00000

 Dipole moment (field-independent basis, Debye):
    X=             -0.1987    Y=              4.2814    Z=             -2.7779  Tot=              5.1075
 Quadrupole moment (field-independent basis, Debye-Ang):
   XX=            -87.0202   YY=            -99.0162   ZZ=            -96.1758
   XY=             -9.9751   XZ=              8.6339   YZ=              0.8126

 Normal termination of Gaussian 16 at Thu May  6 20:39:10 2021.
