 Gaussian 16, Revision A.03,
 Gaussian 16:  EM64L-G16RevA.03 25-Dec-2016

 -------------
 #p 6-31g* mp2
 -------------

 ------------------------------------------------------
 Input file generated by CHIRIPA (05-May-2021 14:55:25)
 ------------------------------------------------------
 Symbolic Z-matrix:
 Charge =  0 Multiplicity = 1

                         Standard orientation:
 ---------------------------------------------------------------------
 Center     Atomic      Atomic             Coordinates (Angstroms)
 Number     Number       Type             X           Y           Z
 ---------------------------------------------------------------------
      1          6           0        3.941590    2.404422   -0.068905
      2          6           0        3.886496    1.619210   -1.225160
      3          6           0        3.474097    0.285037   -1.158394
      4          6           0        3.122363   -0.233938    0.086691
      5          6           0        3.166772    0.522883    1.256538
      6          6           0        3.582186    1.854722    1.166077
      7          1           0        4.263123    3.439934   -0.129974
      8          1           0        4.165027    2.043459   -2.185617
      9          1           0        3.422194   -0.345354   -2.037787
     10          1           0        2.882930    0.071994    2.199698
     11          1           0        3.624003    2.462169    2.065690
     12          7           0        2.684178   -1.645132    0.169916
     13          8           0        2.379525   -2.078731    1.278886
     14          8           0        2.653680   -2.290906   -0.875399
     15          6           0       -3.533329   -0.522103   -0.106964
     16          6           0       -2.142187    0.075135   -0.321477
     17          6           0       -1.040985   -0.985306   -0.346214
     18          1           0       -3.542470   -1.084337    0.836834
     19          1           0       -3.740097   -1.248199   -0.905353
     20          1           0       -1.938662    0.800907    0.476301
     21          1           0       -2.136410    0.636174   -1.264778
     22          1           0       -1.216688   -1.704394   -1.152838
     23          1           0       -1.017815   -1.538723    0.598134
     24          1           0       -0.054809   -0.536469   -0.500689
     25          6           0       -4.644799    0.525575   -0.079852
     26          6           0       -6.035941   -0.071664    0.134660
     27          6           0       -7.137143    0.988778    0.159398
     28          1           0       -4.438030    1.251671    0.718537
     29          1           0       -4.635658    1.087809   -1.023649
     30          1           0       -6.041716   -0.632702    1.077963
     31          1           0       -6.239466   -0.797436   -0.663117
     32          1           0       -7.160313    1.542195   -0.784949
     33          1           0       -6.961440    1.707866    0.966022
     34          1           0       -8.123319    0.539940    0.313873
 ---------------------------------------------------------------------

 SCF Done:  E(RHF) =  -669.535622110     A.U. after   15 cycles
 E2 =    -0.2091615446D+01 EUMP2 =    -0.67162723755595D+03

 The electronic state is 1-A.
 Alpha  occ. eigenvalues --  -20.60754 -20.60749 -15.85801 -11.31207 -11.27777
 Alpha  occ. eigenvalues --  -11.27772 -11.27521 -11.26795 -11.26786 -11.21399
 Alpha  occ. eigenvalues --  -11.21233 -11.21159 -11.21034 -11.20926 -11.20461
 Alpha  occ. eigenvalues --   -1.59822  -1.39375  -1.19382  -1.08770  -1.08141
 Alpha  occ. eigenvalues --   -1.04785  -1.03213  -0.95647  -0.95598  -0.86659
 Alpha  occ. eigenvalues --   -0.86181  -0.82427  -0.79280  -0.77953  -0.77470
 Alpha  occ. eigenvalues --   -0.72024  -0.71158  -0.70482  -0.65031  -0.64786
 Alpha  occ. eigenvalues --   -0.64773  -0.62130  -0.60605  -0.59043  -0.57272
 Alpha  occ. eigenvalues --   -0.55283  -0.54917  -0.53132  -0.52876  -0.52339
 Alpha  occ. eigenvalues --   -0.52052  -0.49569  -0.48785  -0.48775  -0.47591
 Alpha  occ. eigenvalues --   -0.46320  -0.45487  -0.45425  -0.44752  -0.43484
 Alpha  occ. eigenvalues --   -0.37352  -0.36388
 Alpha virt. eigenvalues --    0.05060   0.11257   0.16526   0.21406   0.23134
 Alpha virt. eigenvalues --    0.24547   0.26940   0.27311   0.27771   0.28024
 Alpha virt. eigenvalues --    0.28384   0.30767   0.31711   0.31784   0.32139

 Mulliken charges:
               1
     1  C   -0.170705
     2  C   -0.218342
     3  C   -0.172156
     4  C    0.156014
     5  C   -0.171209
     6  C   -0.218490
     7  H    0.225690
     8  H    0.223572
     9  H    0.276098
    10  H    0.275814
    11  H    0.223510
    12  N    0.492084
    13  O   -0.459932
    14  O   -0.459681
    15  C   -0.298411
    16  C   -0.299772
    17  C   -0.474366
    18  H    0.151035
    19  H    0.150441
    20  H    0.148288
    21  H    0.148791
    22  H    0.159888
    23  H    0.164347
    24  H    0.150419
    25  C   -0.297747
    26  C   -0.299534
    27  C   -0.475488
    28  H    0.147976
    29  H    0.148357
    30  H    0.152381
    31  H    0.152319
    32  H    0.154473
    33  H    0.154345
    34  H    0.159990
 Sum of Mulliken charges =  -0.00000

 Dipole moment (field-independent basis, Debye):
    X=              1.6150    Y=              4.8757    Z=             -0.2737  Tot=              5.1435
 Quadrupole moment (field-independent basis, Debye-Ang):
   XX=            -86.9497   YY=            -97.9772   ZZ=            -88.8819
   XY=             16.1925   XZ=             -1.3928   YZ=              1.1422

 Normal termination of Gaussian 16 at Thu May  6 14:23:02 2021.
