 Gaussian 16, Revision A.03,
 Gaussian 16:  EM64L-G16RevA.03 25-Dec-2016

 -------------
 #p 6-31g* mp2
 -------------

 ------------------------------------------------------
 Input file generated by CHIRIPA (05-May-2021 14:55:20)
 ------------------------------------------------------
 Symbolic Z-matrix:
 Charge =  0 Multiplicity = 1

                         Standard orientation:
 ---------------------------------------------------------------------
 Center     Atomic      Atomic             Coordinates (Angstroms)
 Number     Number       Type             X           Y           Z
 ---------------------------------------------------------------------
      1          6           0       -2.952197   -1.702719   -1.573004
      2          6           0       -2.381310   -2.313054   -0.451352
      3          6           0       -1.908947   -1.540666    0.613935
      4          6           0       -2.023859   -0.154312    0.523879
      5          6           0       -2.587675    0.483299   -0.580138
      6          6           0       -3.053379   -0.308948   -1.633710
      7          1           0       -3.316553   -2.310442   -2.395994
      8          1           0       -2.301427   -3.395262   -0.401472
      9          1           0       -1.462598   -1.987118    1.494202
     10          1           0       -2.653563    1.564335   -0.601040
     11          1           0       -3.496277    0.167776   -2.503549
     12          7           0       -1.527315    0.673892    1.645449
     13          8           0       -1.640156    1.893382    1.541776
     14          8           0       -1.034684    0.087867    2.606972
     15          6           0        3.317127    0.103240   -0.081267
     16          6           0        3.498271   -1.406808   -0.239146
     17          6           0        4.746630   -1.929994    0.471959
     18          1           0        4.206185    0.615761   -0.473496
     19          1           0        3.261089    0.348945    0.988258
     20          1           0        3.552563   -1.649753   -1.308093
     21          1           0        2.608596   -1.915785    0.153328
     22          1           0        4.696979   -1.716408    1.544580
     23          1           0        5.646310   -1.448864    0.074856
     24          1           0        4.856695   -3.011622    0.346156
     25          6           0        2.073454    0.641235   -0.786650
     26          6           0        1.892310    2.151284   -0.628771
     27          6           0        0.643952    2.674469   -1.339876
     28          1           0        2.129493    0.395530   -1.856175
     29          1           0        1.184397    0.128714   -0.394421
     30          1           0        2.781985    2.660260   -1.021247
     31          1           0        1.838019    2.394228    0.440175
     32          1           0       -0.255728    2.193339   -0.942773
     33          1           0        0.693602    2.460883   -2.412497
     34          1           0        0.533887    3.756097   -1.214074
 ---------------------------------------------------------------------

 SCF Done:  E(RHF) =  -669.535361662     A.U. after   15 cycles
 E2 =    -0.2094020930D+01 EUMP2 =    -0.67162938259247D+03

 The electronic state is 1-A.
 Alpha  occ. eigenvalues --  -20.60968 -20.60946 -15.85980 -11.31304 -11.27868
 Alpha  occ. eigenvalues --  -11.27846 -11.27585 -11.26861 -11.26847 -11.21398
 Alpha  occ. eigenvalues --  -11.21091 -11.21043 -11.20996 -11.20870 -11.20571
 Alpha  occ. eigenvalues --   -1.60020  -1.39576  -1.19473  -1.08874  -1.08078
 Alpha  occ. eigenvalues --   -1.04863  -1.03174  -0.95735  -0.95617  -0.86674
 Alpha  occ. eigenvalues --   -0.86258  -0.82544  -0.79256  -0.77908  -0.77595
 Alpha  occ. eigenvalues --   -0.72204  -0.71359  -0.70579  -0.65125  -0.64875
 Alpha  occ. eigenvalues --   -0.64682  -0.62232  -0.60547  -0.59010  -0.57250
 Alpha  occ. eigenvalues --   -0.55376  -0.54922  -0.53210  -0.52961  -0.52327
 Alpha  occ. eigenvalues --   -0.52065  -0.49636  -0.48960  -0.48934  -0.47574
 Alpha  occ. eigenvalues --   -0.46278  -0.45460  -0.45338  -0.44886  -0.43434
 Alpha  occ. eigenvalues --   -0.37415  -0.36430
 Alpha virt. eigenvalues --    0.04902   0.11070   0.16404   0.21261   0.23042
 Alpha virt. eigenvalues --    0.24576   0.26572   0.26953   0.27706   0.28005
 Alpha virt. eigenvalues --    0.28814   0.30650   0.31523   0.32066   0.32235

 Mulliken charges:
               1
     1  C   -0.170382
     2  C   -0.217654
     3  C   -0.172206
     4  C    0.161304
     5  C   -0.172816
     6  C   -0.218558
     7  H    0.226190
     8  H    0.224020
     9  H    0.275792
    10  H    0.276882
    11  H    0.224431
    12  N    0.488709
    13  O   -0.458875
    14  O   -0.459547
    15  C   -0.299048
    16  C   -0.298481
    17  C   -0.475808
    18  H    0.148681
    19  H    0.155810
    20  H    0.149158
    21  H    0.149642
    22  H    0.157712
    23  H    0.154929
    24  H    0.157814
    25  C   -0.298242
    26  C   -0.301700
    27  C   -0.478605
    28  H    0.145737
    29  H    0.145619
    30  H    0.149510
    31  H    0.163366
    32  H    0.157629
    33  H    0.147010
    34  H    0.161974
 Sum of Mulliken charges =  -0.00000

 Dipole moment (field-independent basis, Debye):
    X=             -1.8640    Y=             -2.8952    Z=             -3.8112  Tot=              5.1363
 Quadrupole moment (field-independent basis, Debye-Ang):
   XX=            -88.3910   YY=            -90.8469   ZZ=            -97.8820
   XY=              5.7071   XZ=              7.5409   YZ=             -2.8071

 Normal termination of Gaussian 16 at Wed May  5 20:32:51 2021.
