 Gaussian 16, Revision A.03,
 Gaussian 16:  EM64L-G16RevA.03 25-Dec-2016

 -------------
 #p 6-31g* mp2
 -------------

 ------------------------------------------------------
 Input file generated by CHIRIPA (05-May-2021 14:51:13)
 ------------------------------------------------------
 Symbolic Z-matrix:
 Charge =  0 Multiplicity = 1

                         Standard orientation:
 ---------------------------------------------------------------------
 Center     Atomic      Atomic             Coordinates (Angstroms)
 Number     Number       Type             X           Y           Z
 ---------------------------------------------------------------------
      1          6           0       -4.109390   -0.307424   -0.154810
      2          6           0       -4.050125   -1.651777    0.571266
      3          6           0       -5.435556   -2.240410    0.839385
      4          1           0       -4.700190    0.399555    0.443589
      5          1           0       -4.644693   -0.435518   -1.105829
      6          1           0       -3.513885   -1.521476    1.519994
      7          1           0       -3.459237   -2.355581   -0.028839
      8          1           0       -5.975134   -2.398949   -0.099935
      9          1           0       -6.030092   -1.560105    1.457698
     10          1           0       -5.369760   -3.201313    1.359189
     11          6           0       -2.732203    0.293724   -0.429959
     12          6           0       -2.791468    1.638078   -1.156035
     13          6           0       -1.406037    2.226711   -1.424153
     14          1           0       -2.196900    0.421818    0.521060
     15          1           0       -2.141403   -0.413255   -1.028357
     16          1           0       -3.382356    2.341882   -0.555929
     17          1           0       -3.327708    1.507777   -2.104762
     18          1           0       -0.811500    1.546405   -2.042466
     19          1           0       -0.866459    2.385249   -0.484834
     20          1           0       -1.471833    3.187614   -1.943957
     21          6           0        2.775100    0.414886    0.288689
     22          6           0        2.746535    1.514391    1.350885
     23          6           0        1.448401    2.322008    1.330963
     24          1           0        2.638700    0.868054   -0.702764
     25          1           0        1.920871   -0.258396    0.444822
     26          1           0        3.601346    2.184605    1.193637
     27          1           0        2.883211    1.058574    2.339907
     28          1           0        0.586778    1.670822    1.510313
     29          1           0        1.308995    2.803252    0.357530
     30          1           0        1.449330    3.102484    2.098241
     31          6           0        4.066493   -0.401187    0.296079
     32          6           0        4.095058   -1.500692   -0.766116
     33          6           0        5.393193   -2.308308   -0.746194
     34          1           0        4.920723    0.272095    0.139947
     35          1           0        4.202894   -0.854355    1.287532
     36          1           0        3.958383   -1.044875   -1.755139
     37          1           0        3.240247   -2.170906   -0.608869
     38          1           0        5.532599   -2.789553    0.227239
     39          1           0        6.254814   -1.657123   -0.925544
     40          1           0        5.392264   -3.088785   -1.513472
 ---------------------------------------------------------------------

 SCF Done:  E(RHF) =  -470.732709400     A.U. after   11 cycles
 E2 =    -0.1583022538D+01 EUMP2 =    -0.47231573193748D+03

 The electronic state is 1-A.
 Alpha  occ. eigenvalues --  -11.21606 -11.21596 -11.21595 -11.21526 -11.21391
 Alpha  occ. eigenvalues --  -11.21380 -11.21331 -11.21321 -11.21077 -11.21067
 Alpha  occ. eigenvalues --  -11.21066 -11.20878  -1.08427  -1.08390  -1.03550
 Alpha  occ. eigenvalues --   -1.03463  -0.96024  -0.95894  -0.87071  -0.86889
 Alpha  occ. eigenvalues --   -0.79691  -0.79469  -0.78270  -0.78169  -0.65054
 Alpha  occ. eigenvalues --   -0.65026  -0.60935  -0.60891  -0.59372  -0.59282
 Alpha  occ. eigenvalues --   -0.57743  -0.57429  -0.55325  -0.55180  -0.52698
 Alpha  occ. eigenvalues --   -0.52651  -0.52602  -0.52150  -0.49985  -0.49801
 Alpha  occ. eigenvalues --   -0.48152  -0.47632  -0.46630  -0.46537  -0.45892
 Alpha  occ. eigenvalues --   -0.45710  -0.45689  -0.45507  -0.43785  -0.43740
 Alpha virt. eigenvalues --    0.21786   0.23041   0.23611   0.24816   0.25682
 Alpha virt. eigenvalues --    0.26342   0.26956   0.27789   0.27844   0.29330
 Alpha virt. eigenvalues --    0.30382   0.31160   0.31702   0.31860   0.32021

 Mulliken charges:
               1
     1  C   -0.298229
     2  C   -0.299605
     3  C   -0.475675
     4  H    0.149663
     5  H    0.149657
     6  H    0.151578
     7  H    0.151831
     8  H    0.155229
     9  H    0.155205
    10  H    0.160134
    11  C   -0.299046
    12  C   -0.299231
    13  C   -0.484101
    14  H    0.149283
    15  H    0.149686
    16  H    0.151558
    17  H    0.151312
    18  H    0.154126
    19  H    0.166575
    20  H    0.158735
    21  C   -0.298554
    22  C   -0.299650
    23  C   -0.480732
    24  H    0.150253
    25  H    0.150005
    26  H    0.152005
    27  H    0.151755
    28  H    0.155924
    29  H    0.160304
    30  H    0.160168
    31  C   -0.298278
    32  C   -0.299647
    33  C   -0.475695
    34  H    0.149475
    35  H    0.149571
    36  H    0.151912
    37  H    0.151949
    38  H    0.155169
    39  H    0.155182
    40  H    0.160194
 Sum of Mulliken charges =  -0.00000

 Dipole moment (field-independent basis, Debye):
    X=              0.0380    Y=              0.0166    Z=              0.0184  Tot=              0.0453
 Quadrupole moment (field-independent basis, Debye-Ang):
   XX=            -86.3516   YY=            -84.8627   ZZ=            -83.6952
   XY=              0.4096   XZ=             -0.0315   YZ=              0.1310

 Normal termination of Gaussian 16 at Thu May  6 03:57:25 2021.
