 Gaussian 16, Revision A.03,
 Gaussian 16:  EM64L-G16RevA.03 25-Dec-2016

 -------------
 #p 6-31g* mp2
 -------------

 ------------------------------------------------------
 Input file generated by CHIRIPA (05-May-2021 14:53:15)
 ------------------------------------------------------
 Symbolic Z-matrix:
 Charge =  0 Multiplicity = 1

                         Standard orientation:
 ---------------------------------------------------------------------
 Center     Atomic      Atomic             Coordinates (Angstroms)
 Number     Number       Type             X           Y           Z
 ---------------------------------------------------------------------
      1          6           0        3.369879   -0.311172   -0.327835
      2          6           0        4.585310   -1.233644   -0.426620
      3          6           0        4.252348   -2.584250   -1.061279
      4          1           0        2.585695   -0.809877    0.258077
      5          1           0        2.955834   -0.152783   -1.333258
      6          1           0        4.997770   -1.389134    0.578525
      7          1           0        5.366764   -0.732607   -1.012204
      8          1           0        3.861484   -2.447754   -2.074785
      9          1           0        3.490393   -3.108010   -0.475019
     10          1           0        5.135466   -3.227886   -1.122068
     11          6           0        3.686812    1.042862    0.304520
     12          6           0        2.471381    1.965334    0.403305
     13          6           0        2.804343    3.315941    1.037964
     14          1           0        4.100857    0.884473    1.309942
     15          1           0        4.470996    1.541567   -0.281393
     16          1           0        1.689927    1.464297    0.988888
     17          1           0        2.058921    2.120824   -0.601840
     18          1           0        3.566298    3.839700    0.451703
     19          1           0        3.195207    3.179444    2.051470
     20          1           0        1.921224    3.959576    1.098752
     21          6           0       -1.592760   -2.302119    0.981791
     22          6           0       -2.989969   -2.236913    0.972880
     23          6           0       -3.645435   -1.124607    0.436517
     24          6           0       -2.869028   -0.090887   -0.084928
     25          6           0       -1.475473   -0.126423   -0.090555
     26          6           0       -0.841297   -1.248523    0.450981
     27          1           0       -1.091848   -3.169989    1.400460
     28          1           0       -3.576127   -3.053669    1.384429
     29          1           0       -4.725799   -1.048158    0.416822
     30          1           0       -0.918162    0.703357   -0.508032
     31          1           0        0.243930   -1.296441    0.456559
     32          7           0       -3.551672    1.091845   -0.655490
     33          8           0       -2.844859    1.989384   -1.108783
     34          8           0       -4.780615    1.098936   -0.638598
 ---------------------------------------------------------------------

 SCF Done:  E(RHF) =  -669.535723200     A.U. after   15 cycles
 E2 =    -0.2091780203D+01 EUMP2 =    -0.67162750340352D+03

 The electronic state is 1-A.
 Alpha  occ. eigenvalues --  -20.60710 -20.60704 -15.85762 -11.31109 -11.27688
 Alpha  occ. eigenvalues --  -11.27652 -11.27425 -11.26704 -11.26647 -11.22349
 Alpha  occ. eigenvalues --  -11.22290 -11.22218 -11.22030 -11.21783 -11.21407
 Alpha  occ. eigenvalues --   -1.59785  -1.39339  -1.19282  -1.09159  -1.08683
 Alpha  occ. eigenvalues --   -1.04679  -1.04156  -0.96601  -0.95520  -0.87612
 Alpha  occ. eigenvalues --   -0.86083  -0.82354  -0.80239  -0.79019  -0.77388
 Alpha  occ. eigenvalues --   -0.71981  -0.71108  -0.70394  -0.65819  -0.64933
 Alpha  occ. eigenvalues --   -0.64672  -0.62030  -0.61546  -0.59969  -0.58216
 Alpha  occ. eigenvalues --   -0.55898  -0.55192  -0.53251  -0.53079  -0.53013
 Alpha  occ. eigenvalues --   -0.52730  -0.50537  -0.48745  -0.48737  -0.48536
 Alpha  occ. eigenvalues --   -0.47278  -0.46514  -0.46428  -0.44748  -0.44437
 Alpha  occ. eigenvalues --   -0.37270  -0.36281
 Alpha virt. eigenvalues --    0.05119   0.11366   0.16575   0.19345   0.22790
 Alpha virt. eigenvalues --    0.23350   0.24543   0.25675   0.27354   0.28193
 Alpha virt. eigenvalues --    0.29437   0.30652   0.31171   0.31380   0.31890

 Mulliken charges:
               1
     1  C   -0.305198
     2  C   -0.299354
     3  C   -0.475744
     4  H    0.142161
     5  H    0.152254
     6  H    0.153281
     7  H    0.156148
     8  H    0.157519
     9  H    0.149733
    10  H    0.163554
    11  C   -0.297754
    12  C   -0.304338
    13  C   -0.476343
    14  H    0.151066
    15  H    0.153943
    16  H    0.147484
    17  H    0.154731
    18  H    0.157368
    19  H    0.155581
    20  H    0.166173
    21  C   -0.173017
    22  C   -0.218588
    23  C   -0.171091
    24  C    0.158773
    25  C   -0.176124
    26  C   -0.226768
    27  H    0.225633
    28  H    0.223047
    29  H    0.275275
    30  H    0.278436
    31  H    0.235459
    32  N    0.488093
    33  O   -0.460564
    34  O   -0.460830
 Sum of Mulliken charges =  -0.00000

 Dipole moment (field-independent basis, Debye):
    X=              2.6324    Y=             -4.0479    Z=              1.9703  Tot=              5.2150
 Quadrupole moment (field-independent basis, Debye-Ang):
   XX=           -103.8524   YY=            -94.2102   ZZ=            -94.9670
   XY=             14.1485   XZ=             -7.5341   YZ=             -1.0936

 Normal termination of Gaussian 16 at Wed May  5 21:55:36 2021.
