 Gaussian 16, Revision A.03,
 Gaussian 16:  EM64L-G16RevA.03 25-Dec-2016

 -------------
 #p 6-31g* mp2
 -------------

 ------------------------------------------------------
 Input file generated by CHIRIPA (05-May-2021 14:57:21)
 ------------------------------------------------------
 Symbolic Z-matrix:
 Charge =  0 Multiplicity = 1

                         Standard orientation:
 ---------------------------------------------------------------------
 Center     Atomic      Atomic             Coordinates (Angstroms)
 Number     Number       Type             X           Y           Z
 ---------------------------------------------------------------------
      1          6           0        2.059383   -1.530509    0.486122
      2          6           0        2.076135   -0.683600   -0.626976
      3          6           0        3.222382    0.052153   -0.942145
      4          6           0        4.339082   -0.083696   -0.118849
      5          6           0        4.353420   -0.919160    0.996984
      6          6           0        3.196075   -1.645383    1.293127
      7          1           0        1.164640   -2.098358    0.723563
      8          1           0        1.194828   -0.592409   -1.255487
      9          1           0        3.262729    0.715153   -1.797844
     10          1           0        5.247362   -0.989212    1.604748
     11          1           0        3.185934   -2.302333    2.158204
     12          7           0        5.558437    0.690169   -0.442433
     13          8           0        6.529240    0.552881    0.298736
     14          8           0        5.520277    1.419359   -1.431100
     15          6           0       -1.885205    1.027065    0.855919
     16          6           0       -3.035896    1.773165    1.131175
     17          6           0       -4.289410    1.330764    0.698127
     18          6           0       -4.355921    0.132367   -0.010895
     19          6           0       -3.227702   -0.633394   -0.300763
     20          6           0       -1.984606   -0.171720    0.142087
     21          1           0       -0.915491    1.378218    1.196128
     22          1           0       -2.961708    2.704529    1.685344
     23          1           0       -5.196333    1.888603    0.897436
     24          1           0       -3.333353   -1.557907   -0.855318
     25          1           0       -1.092652   -0.753223   -0.073126
     26          7           0       -5.677447   -0.346185   -0.474532
     27          8           0       -5.709282   -1.405281   -1.097380
     28          8           0       -6.656399    0.346883   -0.206303
 ---------------------------------------------------------------------

 SCF Done:  E(RHF) =  -868.336662554     A.U. after   16 cycles
 E2 =    -0.2600158551D+01 EUMP2 =    -0.87093682110426D+03

 The electronic state is 1-A.
 Alpha  occ. eigenvalues --  -20.61427 -20.61421 -20.61297 -20.61287 -15.86486
 Alpha  occ. eigenvalues --  -15.86356 -11.32023 -11.31835 -11.28633 -11.28583
 Alpha  occ. eigenvalues --  -11.28502 -11.28470 -11.28404 -11.28205 -11.27755
 Alpha  occ. eigenvalues --  -11.27639 -11.27605 -11.27398  -1.60499  -1.60369
 Alpha  occ. eigenvalues --   -1.40047  -1.39919  -1.20229  -1.20040  -1.09615
 Alpha  occ. eigenvalues --   -1.09406  -1.05652  -1.05476  -0.96410  -0.96214
 Alpha  occ. eigenvalues --   -0.87092  -0.86842  -0.83226  -0.83060  -0.78248
 Alpha  occ. eigenvalues --   -0.78078  -0.72702  -0.72571  -0.71825  -0.71695
 Alpha  occ. eigenvalues --   -0.71380  -0.71119  -0.65975  -0.65823  -0.65692
 Alpha  occ. eigenvalues --   -0.65311  -0.63049  -0.62742  -0.56209  -0.55939
 Alpha  occ. eigenvalues --   -0.53994  -0.53831  -0.53754  -0.53503  -0.49475
 Alpha  occ. eigenvalues --   -0.49444  -0.49339  -0.49318  -0.45413  -0.45299
 Alpha  occ. eigenvalues --   -0.38253  -0.38017  -0.37250  -0.37084
 Alpha virt. eigenvalues --    0.04295   0.04479   0.10269   0.10525   0.15729
 Alpha virt. eigenvalues --    0.15914   0.18114   0.21936   0.24791   0.26772
 Alpha virt. eigenvalues --    0.27647   0.28661   0.29878   0.30724   0.31553

 Mulliken charges:
               1
     1  C   -0.175057
     2  C   -0.224536
     3  C   -0.170205
     4  C    0.158981
     5  C   -0.170019
     6  C   -0.218126
     7  H    0.223275
     8  H    0.221372
     9  H    0.278472
    10  H    0.278542
    11  H    0.226774
    12  N    0.487867
    13  O   -0.458009
    14  O   -0.458455
    15  C   -0.172052
    16  C   -0.218498
    17  C   -0.169359
    18  C    0.159060
    19  C   -0.170811
    20  C   -0.224060
    21  H    0.229137
    22  H    0.226651
    23  H    0.278130
    24  H    0.275925
    25  H    0.215114
    26  N    0.488053
    27  O   -0.459919
    28  O   -0.458249
 Sum of Mulliken charges =  -0.00000

 Dipole moment (field-independent basis, Debye):
    X=              0.4441    Y=             -0.9122    Z=              2.8499  Tot=              3.0252
 Quadrupole moment (field-independent basis, Debye-Ang):
   XX=           -179.7220   YY=           -100.6052   ZZ=           -101.9688
   XY=            -21.6773   XZ=             -0.6435   YZ=              0.5056

 Normal termination of Gaussian 16 at Thu May  6 12:49:16 2021.
