 Gaussian 16, Revision A.03,
 Gaussian 16:  EM64L-G16RevA.03 25-Dec-2016

 -------------
 #p 6-31g* mp2
 -------------

 ------------------------------------------------------
 Input file generated by CHIRIPA (05-May-2021 14:57:22)
 ------------------------------------------------------
 Symbolic Z-matrix:
 Charge =  0 Multiplicity = 1

                         Standard orientation:
 ---------------------------------------------------------------------
 Center     Atomic      Atomic             Coordinates (Angstroms)
 Number     Number       Type             X           Y           Z
 ---------------------------------------------------------------------
      1          6           0        3.635911    2.519041   -0.058968
      2          6           0        4.141194    1.629357   -1.012736
      3          6           0        3.771850    0.281134   -0.992043
      4          6           0        2.891280   -0.145208    0.000993
      5          6           0        2.370781    0.716764    0.965034
      6          6           0        2.753873    2.060713    0.925138
      7          1           0        3.928166    3.564712   -0.082502
      8          1           0        4.826360    1.982498   -1.778166
      9          1           0        4.147958   -0.429196   -1.718261
     10          1           0        1.689501    0.335205    1.715825
     11          1           0        2.359885    2.749392    1.667121
     12          7           0        2.492995   -1.570248    0.033064
     13          8           0        1.715754   -1.920924    0.918253
     14          8           0        2.965603   -2.309536   -0.827594
     15          6           0       -1.710763   -2.247408    0.400673
     16          6           0       -2.431488   -2.062718   -0.783796
     17          6           0       -3.125682   -0.871241   -1.014071
     18          6           0       -3.077396    0.118947   -0.034028
     19          6           0       -2.368267   -0.035130    1.156218
     20          6           0       -1.681504   -1.234810    1.365199
     21          1           0       -1.174383   -3.176162    0.571285
     22          1           0       -2.455981   -2.847385   -1.534622
     23          1           0       -3.691537   -0.701846   -1.922108
     24          1           0       -2.362499    0.765279    1.886102
     25          1           0       -1.122606   -1.375476    2.286010
     26          7           0       -3.808375    1.384652   -0.266537
     27          8           0       -3.750092    2.241633    0.612566
     28          8           0       -4.425758    1.495765   -1.323481
 ---------------------------------------------------------------------

 SCF Done:  E(RHF) =  -868.340180453     A.U. after   16 cycles
 E2 =    -0.2599854396D+01 EUMP2 =    -0.87094003484948D+03

 The electronic state is 1-A.
 Alpha  occ. eigenvalues --  -20.61574 -20.61556 -20.60433 -20.60422 -15.86585
 Alpha  occ. eigenvalues --  -15.85478 -11.31652 -11.30599 -11.28211 -11.28170
 Alpha  occ. eigenvalues --  -11.27847 -11.27176 -11.27159 -11.27123 -11.27113
 Alpha  occ. eigenvalues --  -11.26626 -11.26027 -11.25995  -1.60621  -1.59514
 Alpha  occ. eigenvalues --   -1.40189  -1.39075  -1.19790  -1.18735  -1.09236
 Alpha  occ. eigenvalues --   -1.08113  -1.05153  -1.04118  -0.96131  -0.95001
 Alpha  occ. eigenvalues --   -0.86563  -0.85486  -0.82983  -0.81867  -0.78069
 Alpha  occ. eigenvalues --   -0.76989  -0.72858  -0.71919  -0.71696  -0.70898
 Alpha  occ. eigenvalues --   -0.70838  -0.69705  -0.65454  -0.65153  -0.64356
 Alpha  occ. eigenvalues --   -0.64067  -0.62516  -0.61480  -0.55653  -0.54442
 Alpha  occ. eigenvalues --   -0.53486  -0.53246  -0.52445  -0.52181  -0.49602
 Alpha  occ. eigenvalues --   -0.49547  -0.48472  -0.48427  -0.45662  -0.44538
 Alpha  occ. eigenvalues --   -0.37741  -0.36742  -0.36555  -0.35737
 Alpha virt. eigenvalues --    0.04432   0.05561   0.10919   0.11929   0.16017
 Alpha virt. eigenvalues --    0.17120   0.20767   0.22251   0.26325   0.27400
 Alpha virt. eigenvalues --    0.28732   0.29204   0.30596   0.31458   0.32662

 Mulliken charges:
               1
     1  C   -0.169298
     2  C   -0.218290
     3  C   -0.170489
     4  C    0.158636
     5  C   -0.167939
     6  C   -0.217733
     7  H    0.228565
     8  H    0.225323
     9  H    0.275744
    10  H    0.269709
    11  H    0.226078
    12  N    0.490851
    13  O   -0.471238
    14  O   -0.458358
    15  C   -0.162584
    16  C   -0.222150
    17  C   -0.172227
    18  C    0.157030
    19  C   -0.177568
    20  C   -0.215741
    21  H    0.239362
    22  H    0.223505
    23  H    0.272928
    24  H    0.268800
    25  H    0.225875
    26  N    0.488345
    27  O   -0.465030
    28  O   -0.462105
 Sum of Mulliken charges =  -0.00000

 Dipole moment (field-independent basis, Debye):
    X=              4.3513    Y=              0.4107    Z=              0.6549  Tot=              4.4195
 Quadrupole moment (field-independent basis, Debye-Ang):
   XX=           -112.1465   YY=           -107.0356   ZZ=            -98.3082
   XY=             29.5155   XZ=             -4.2653   YZ=              2.7411

 Normal termination of Gaussian 16 at Thu May  6 12:52:25 2021.
