 Gaussian 16, Revision A.03,
 Gaussian 16:  EM64L-G16RevA.03 25-Dec-2016

 -------------
 #p 6-31g* mp2
 -------------

 ------------------------------------------------------
 Input file generated by CHIRIPA (05-May-2021 14:57:25)
 ------------------------------------------------------
 Symbolic Z-matrix:
 Charge =  0 Multiplicity = 1

                         Standard orientation:
 ---------------------------------------------------------------------
 Center     Atomic      Atomic             Coordinates (Angstroms)
 Number     Number       Type             X           Y           Z
 ---------------------------------------------------------------------
      1          6           0       -4.006933   -2.204794    0.982173
      2          6           0       -2.804950   -1.840115    0.366732
      3          6           0       -2.637635   -0.555534   -0.159010
      4          6           0       -3.697814    0.343211   -0.051463
      5          6           0       -4.907470    0.009853    0.555905
      6          6           0       -5.052513   -1.280275    1.074632
      7          1           0       -4.128257   -3.204842    1.387858
      8          1           0       -1.991233   -2.556039    0.293501
      9          1           0       -1.717768   -0.246759   -0.640591
     10          1           0       -5.700651    0.745327    0.613871
     11          1           0       -5.987107   -1.560717    1.552055
     12          7           0       -3.532474    1.706076   -0.604330
     13          8           0       -4.481667    2.479462   -0.496888
     14          8           0       -2.456819    1.975098   -1.134641
     15          6           0        5.405384    1.411078    1.056954
     16          6           0        4.048775    1.751789    1.049844
     17          6           0        3.108912    0.911802    0.445173
     18          6           0        3.562617   -0.266478   -0.145672
     19          6           0        4.907404   -0.633566   -0.154979
     20          6           0        5.829621    0.221584    0.455580
     21          1           0        6.128638    2.069489    1.528964
     22          1           0        3.716439    2.674932    1.516109
     23          1           0        2.052639    1.151192    0.425205
     24          1           0        5.208455   -1.560468   -0.627884
     25          1           0        6.882547   -0.045572    0.459586
     26          7           0        2.576967   -1.163761   -0.788927
     27          8           0        3.002211   -2.196198   -1.302617
     28          8           0        1.397833   -0.817623   -0.767240
 ---------------------------------------------------------------------

 SCF Done:  E(RHF) =  -868.340170081     A.U. after   16 cycles
 E2 =    -0.2598207475D+01 EUMP2 =    -0.87093837755600D+03

 The electronic state is 1-A.
 Alpha  occ. eigenvalues --  -20.61218 -20.61191 -20.60182 -20.60174 -15.86251
 Alpha  occ. eigenvalues --  -15.85225 -11.31357 -11.30409 -11.27916 -11.27865
 Alpha  occ. eigenvalues --  -11.27610 -11.27048 -11.26881 -11.26835 -11.26800
 Alpha  occ. eigenvalues --  -11.26735 -11.26049 -11.25840  -1.60271  -1.59262
 Alpha  occ. eigenvalues --   -1.39832  -1.38817  -1.19511  -1.18584  -1.08956
 Alpha  occ. eigenvalues --   -1.08030  -1.04873  -1.03933  -0.95832  -0.94880
 Alpha  occ. eigenvalues --   -0.86285  -0.85354  -0.82675  -0.81698  -0.77743
 Alpha  occ. eigenvalues --   -0.76751  -0.72493  -0.71574  -0.71449  -0.70619
 Alpha  occ. eigenvalues --   -0.70585  -0.69691  -0.65170  -0.64874  -0.64229
 Alpha  occ. eigenvalues --   -0.63925  -0.62217  -0.61244  -0.55393  -0.54491
 Alpha  occ. eigenvalues --   -0.53221  -0.52960  -0.52320  -0.52001  -0.49241
 Alpha  occ. eigenvalues --   -0.49207  -0.48210  -0.48192  -0.45292  -0.44262
 Alpha  occ. eigenvalues --   -0.37485  -0.36606  -0.36465  -0.35542
 Alpha virt. eigenvalues --    0.04773   0.05733   0.11191   0.12096   0.16313
 Alpha virt. eigenvalues --    0.17248   0.21280   0.22280   0.27235   0.27690
 Alpha virt. eigenvalues --    0.28449   0.29200   0.30915   0.31779   0.32298

 Mulliken charges:
               1
     1  C   -0.171442
     2  C   -0.222336
     3  C   -0.177236
     4  C    0.156648
     5  C   -0.172140
     6  C   -0.219616
     7  H    0.223380
     8  H    0.232249
     9  H    0.293411
    10  H    0.272392
    11  H    0.220095
    12  N    0.487593
    13  O   -0.464183
    14  O   -0.460493
    15  C   -0.170083
    16  C   -0.218833
    17  C   -0.170424
    18  C    0.157051
    19  C   -0.170829
    20  C   -0.218797
    21  H    0.226702
    22  H    0.226387
    23  H    0.279128
    24  H    0.275112
    25  H    0.223835
    26  N    0.493495
    27  O   -0.459239
    28  O   -0.471831
 Sum of Mulliken charges =  -0.00000

 Dipole moment (field-independent basis, Debye):
    X=              3.2826    Y=             -1.6611    Z=              4.1886  Tot=              5.5749
 Quadrupole moment (field-independent basis, Debye-Ang):
   XX=            -69.9501   YY=           -108.5657   ZZ=           -106.5549
   XY=             24.7297   XZ=             -1.8221   YZ=              1.3329

 Normal termination of Gaussian 16 at Wed May  5 17:58:36 2021.
