 Gaussian 16, Revision A.03,
 Gaussian 16:  EM64L-G16RevA.03 25-Dec-2016

 -------------
 #p 6-31g* mp2
 -------------

 ------------------------------------------------------
 Input file generated by CHIRIPA (05-May-2021 14:57:23)
 ------------------------------------------------------
 Symbolic Z-matrix:
 Charge =  0 Multiplicity = 1

                         Standard orientation:
 ---------------------------------------------------------------------
 Center     Atomic      Atomic             Coordinates (Angstroms)
 Number     Number       Type             X           Y           Z
 ---------------------------------------------------------------------
      1          6           0        5.568576    1.509962    0.392353
      2          6           0        4.233485    1.881158    0.582788
      3          6           0        3.204116    0.956256    0.384036
      4          6           0        3.547347   -0.337101   -0.006744
      5          6           0        4.867956   -0.737300   -0.204538
      6          6           0        5.881000    0.204220   -0.000011
      7          1           0        6.361874    2.234903    0.548991
      8          1           0        3.987897    2.894513    0.887490
      9          1           0        2.162084    1.216829    0.524355
     10          1           0        5.081627   -1.754855   -0.508418
     11          1           0        6.916964   -0.086865   -0.148651
     12          7           0        2.466241   -1.325050   -0.220211
     13          8           0        2.794921   -2.458258   -0.564372
     14          8           0        1.310661   -0.947490   -0.039323
     15          6           0       -4.068006   -2.287235    0.406989
     16          6           0       -5.117965   -1.386813    0.615186
     17          6           0       -4.939548   -0.020772    0.377182
     18          6           0       -3.692416    0.412245   -0.070534
     19          6           0       -2.626903   -0.460088   -0.287341
     20          6           0       -2.828012   -1.821820   -0.042817
     21          1           0       -4.215418   -3.346735    0.594408
     22          1           0       -6.082042   -1.745423    0.964470
     23          1           0       -5.735262    0.698169    0.530089
     24          1           0       -1.677261   -0.072701   -0.635950
     25          1           0       -2.010804   -2.518808   -0.205373
     26          7           0       -3.491523    1.856131   -0.325949
     27          8           0       -2.383176    2.212369   -0.720028
     28          8           0       -4.446214    2.604270   -0.127227
 ---------------------------------------------------------------------

 SCF Done:  E(RHF) =  -868.340861191     A.U. after   16 cycles
 E2 =    -0.2598069426D+01 EUMP2 =    -0.87093893061630D+03

 The electronic state is 1-A.
 Alpha  occ. eigenvalues --  -20.61315 -20.61290 -20.60146 -20.60140 -15.86335
 Alpha  occ. eigenvalues --  -15.85187 -11.31373 -11.30286 -11.27931 -11.27864
 Alpha  occ. eigenvalues --  -11.27609 -11.26912 -11.26882 -11.26821 -11.26664
 Alpha  occ. eigenvalues --  -11.26563 -11.25904 -11.25636  -1.60366  -1.59226
 Alpha  occ. eigenvalues --   -1.39928  -1.38785  -1.19522  -1.18444  -1.08982
 Alpha  occ. eigenvalues --   -1.07904  -1.04872  -1.03774  -0.95869  -0.94773
 Alpha  occ. eigenvalues --   -0.86288  -0.85203  -0.82714  -0.81592  -0.77786
 Alpha  occ. eigenvalues --   -0.76657  -0.72584  -0.71659  -0.71418  -0.70629
 Alpha  occ. eigenvalues --   -0.70543  -0.69557  -0.65180  -0.64873  -0.64087
 Alpha  occ. eigenvalues --   -0.63760  -0.62216  -0.61091  -0.55398  -0.54339
 Alpha  occ. eigenvalues --   -0.53225  -0.52957  -0.52169  -0.51839  -0.49335
 Alpha  occ. eigenvalues --   -0.49300  -0.48177  -0.48149  -0.45400  -0.44249
 Alpha  occ. eigenvalues --   -0.37494  -0.36460  -0.36460  -0.35374
 Alpha virt. eigenvalues --    0.04715   0.05818   0.11196   0.12260   0.16263
 Alpha virt. eigenvalues --    0.17359   0.21309   0.22451   0.27276   0.27802
 Alpha virt. eigenvalues --    0.28618   0.29299   0.30961   0.31960   0.32371

 Mulliken charges:
               1
     1  C   -0.169869
     2  C   -0.218882
     3  C   -0.170316
     4  C    0.156985
     5  C   -0.170779
     6  C   -0.218849
     7  H    0.226958
     8  H    0.227225
     9  H    0.280106
    10  H    0.274821
    11  H    0.223854
    12  N    0.492513
    13  O   -0.460044
    14  O   -0.471732
    15  C   -0.171704
    16  C   -0.219458
    17  C   -0.172656
    18  C    0.156855
    19  C   -0.173918
    20  C   -0.221796
    21  H    0.223582
    22  H    0.219636
    23  H    0.271762
    24  H    0.287820
    25  H    0.236961
    26  N    0.488161
    27  O   -0.463213
    28  O   -0.464023
 Sum of Mulliken charges =  -0.00000

 Dipole moment (field-independent basis, Debye):
    X=              3.5492    Y=             -1.6488    Z=              1.6380  Tot=              4.2425
 Quadrupole moment (field-independent basis, Debye-Ang):
   XX=            -67.0412   YY=           -109.6808   ZZ=           -105.9893
   XY=             26.8465   XZ=             -2.8546   YZ=              1.8607

 Normal termination of Gaussian 16 at Thu May  6 01:50:24 2021.
