 Gaussian 16, Revision A.03,
 Gaussian 16:  EM64L-G16RevA.03 25-Dec-2016

 -------------
 #p 6-31g* mp2
 -------------

 ------------------------------------------------------
 Input file generated by CHIRIPA (05-May-2021 14:51:14)
 ------------------------------------------------------
 Symbolic Z-matrix:
 Charge =  0 Multiplicity = 1

                         Standard orientation:
 ---------------------------------------------------------------------
 Center     Atomic      Atomic             Coordinates (Angstroms)
 Number     Number       Type             X           Y           Z
 ---------------------------------------------------------------------
      1          6           0        2.990507   -0.629354   -0.303000
      2          6           0        3.751524    0.640967    0.077950
      3          6           0        4.902592    0.950151   -0.879776
      4          1           0        3.690130   -1.476152   -0.323158
      5          1           0        2.600062   -0.522106   -1.324492
      6          1           0        4.139239    0.531907    1.098930
      7          1           0        3.049971    1.484805    0.097391
      8          1           0        4.529111    1.085551   -1.899962
      9          1           0        5.624567    0.127239   -0.892733
     10          1           0        5.432964    1.862240   -0.588813
     11          6           0        1.836812   -0.951710    0.645052
     12          6           0        1.075795   -2.222031    0.264102
     13          6           0       -0.075273   -2.531215    1.221828
     14          1           0        2.227257   -1.058958    1.666543
     15          1           0        1.137189   -0.104912    0.665210
     16          1           0        1.777348   -3.065869    0.244661
     17          1           0        0.688080   -2.112970   -0.756878
     18          1           0       -0.797248   -1.708302    1.234785
     19          1           0        0.298208   -2.666615    2.242014
     20          1           0       -0.605645   -3.443304    0.930865
     21          6           0       -2.423976    0.170940   -0.617604
     22          6           0       -3.377057   -0.917466   -0.122635
     23          6           0       -3.386596   -2.150641   -1.026506
     24          1           0       -2.709980    0.463983   -1.637051
     25          1           0       -1.408514   -0.243453   -0.684768
     26          1           0       -4.390174   -0.500755   -0.055104
     27          1           0       -3.088868   -1.207816    0.895825
     28          1           0       -2.386781   -2.592787   -1.085489
     29          1           0       -3.695482   -1.881709   -2.041821
     30          1           0       -4.074599   -2.916038   -0.654111
     31          6           0       -2.403343    1.410123    0.275552
     32          6           0       -1.450262    2.498529   -0.219417
     33          6           0       -1.440724    3.731705    0.684453
     34          1           0       -3.418804    1.824517    0.342716
     35          1           0       -2.117339    1.117080    1.294999
     36          1           0       -1.738451    2.788880   -1.237876
     37          1           0       -0.437144    2.081819   -0.286947
     38          1           0       -1.131838    3.462772    1.699769
     39          1           0       -2.440537    4.173851    0.743438
     40          1           0       -0.752720    4.497102    0.312058
 ---------------------------------------------------------------------

 SCF Done:  E(RHF) =  -470.732298248     A.U. after   11 cycles
 E2 =    -0.1585482603D+01 EUMP2 =    -0.47231778085060D+03

 The electronic state is 1-A.
 Alpha  occ. eigenvalues --  -11.21678 -11.21669 -11.21641 -11.21582 -11.21472
 Alpha  occ. eigenvalues --  -11.21448 -11.21405 -11.21380 -11.21111 -11.21094
 Alpha  occ. eigenvalues --  -11.21083 -11.21035  -1.08547  -1.08426  -1.03644
 Alpha  occ. eigenvalues --   -1.03500  -0.96048  -0.95987  -0.87059  -0.87014
 Alpha  occ. eigenvalues --   -0.79682  -0.79592  -0.78312  -0.78285  -0.65587
 Alpha  occ. eigenvalues --   -0.64760  -0.61348  -0.60606  -0.59411  -0.59363
 Alpha  occ. eigenvalues --   -0.57682  -0.57583  -0.55343  -0.55226  -0.52721
 Alpha  occ. eigenvalues --   -0.52693  -0.52480  -0.52401  -0.50086  -0.49818
 Alpha  occ. eigenvalues --   -0.48008  -0.47871  -0.46848  -0.46540  -0.46065
 Alpha  occ. eigenvalues --   -0.45778  -0.45732  -0.45494  -0.43836  -0.43809
 Alpha virt. eigenvalues --    0.18814   0.21984   0.23279   0.24876   0.25825
 Alpha virt. eigenvalues --    0.26191   0.26733   0.27420   0.28661   0.30310
 Alpha virt. eigenvalues --    0.31056   0.31084   0.31318   0.31864   0.32426

 Mulliken charges:
               1
     1  C   -0.298083
     2  C   -0.300133
     3  C   -0.475762
     4  H    0.150003
     5  H    0.149799
     6  H    0.152064
     7  H    0.152036
     8  H    0.155410
     9  H    0.155268
    10  H    0.160432
    11  C   -0.303562
    12  C   -0.302328
    13  C   -0.483278
    14  H    0.150154
    15  H    0.153005
    16  H    0.153034
    17  H    0.152765
    18  H    0.162952
    19  H    0.155372
    20  H    0.161332
    21  C   -0.306012
    22  C   -0.302068
    23  C   -0.478513
    24  H    0.150608
    25  H    0.154753
    26  H    0.152642
    27  H    0.154164
    28  H    0.159204
    29  H    0.154704
    30  H    0.160145
    31  C   -0.298740
    32  C   -0.302751
    33  C   -0.475679
    34  H    0.150367
    35  H    0.149662
    36  H    0.152350
    37  H    0.153302
    38  H    0.155566
    39  H    0.155474
    40  H    0.160342
 Sum of Mulliken charges =  -0.00000

 Dipole moment (field-independent basis, Debye):
    X=              0.0038    Y=             -0.0061    Z=              0.0069  Tot=              0.0100
 Quadrupole moment (field-independent basis, Debye-Ang):
   XX=            -84.5189   YY=            -85.3051   ZZ=            -84.8126
   XY=             -1.1001   XZ=              1.2134   YZ=             -0.8771

 Normal termination of Gaussian 16 at Wed May  5 18:25:11 2021.
