 Gaussian 16, Revision A.03,
 Gaussian 16:  EM64L-G16RevA.03 25-Dec-2016

 -------------
 #p 6-31g* mp2
 -------------

 ------------------------------------------------------
 Input file generated by CHIRIPA (05-May-2021 14:57:21)
 ------------------------------------------------------
 Symbolic Z-matrix:
 Charge =  0 Multiplicity = 1

                         Standard orientation:
 ---------------------------------------------------------------------
 Center     Atomic      Atomic             Coordinates (Angstroms)
 Number     Number       Type             X           Y           Z
 ---------------------------------------------------------------------
      1          6           0       -0.831956   -1.999053    1.288835
      2          6           0       -1.391476   -0.979995    2.066640
      3          6           0       -2.283016   -0.063434    1.501291
      4          6           0       -2.594313   -0.195984    0.148955
      5          6           0       -2.053412   -1.200419   -0.652186
      6          6           0       -1.164124   -2.105824   -0.065707
      7          1           0       -0.140261   -2.706727    1.736219
      8          1           0       -1.135327   -0.894655    3.118852
      9          1           0       -2.730791    0.735084    2.080329
     10          1           0       -2.327904   -1.259985   -1.698381
     11          1           0       -0.731126   -2.896232   -0.672183
     12          7           0       -3.536955    0.768433   -0.460740
     13          8           0       -3.795040    0.630123   -1.654431
     14          8           0       -3.999863    1.644392    0.266618
     15          6           0        2.260571    2.801811    0.339528
     16          6           0        2.956653    1.928130    1.181354
     17          6           0        3.061899    0.570420    0.864977
     18          6           0        2.456200    0.118377   -0.306379
     19          6           0        1.755903    0.963925   -1.165403
     20          6           0        1.663470    2.317774   -0.829104
     21          1           0        2.183790    3.855014    0.593035
     22          1           0        3.421368    2.301246    2.089578
     23          1           0        3.594805   -0.127946    1.498787
     24          1           0        1.303172    0.562538   -2.063924
     25          1           0        1.122258    2.993981   -1.484755
     26          7           0        2.560837   -1.316927   -0.651858
     27          8           0        2.018335   -1.690317   -1.689600
     28          8           0        3.183374   -2.041350    0.121639
 ---------------------------------------------------------------------

 SCF Done:  E(RHF) =  -868.340451293     A.U. after   16 cycles
 E2 =    -0.2600805470D+01 EUMP2 =    -0.87094125676267D+03

 The electronic state is 1-A.
 Alpha  occ. eigenvalues --  -20.61490 -20.61484 -20.60762 -20.60755 -15.86502
 Alpha  occ. eigenvalues --  -15.85803 -11.31567 -11.30995 -11.28136 -11.28068
 Alpha  occ. eigenvalues --  -11.27776 -11.27541 -11.27442 -11.27108 -11.27082
 Alpha  occ. eigenvalues --  -11.26997 -11.26538 -11.26305  -1.60553  -1.59844
 Alpha  occ. eigenvalues --   -1.40116  -1.39400  -1.19709  -1.19117  -1.09159
 Alpha  occ. eigenvalues --   -1.08534  -1.05071  -1.04468  -0.96048  -0.95404
 Alpha  occ. eigenvalues --   -0.86482  -0.85866  -0.82896  -0.82226  -0.77980
 Alpha  occ. eigenvalues --   -0.77315  -0.72743  -0.72027  -0.71865  -0.71170
 Alpha  occ. eigenvalues --   -0.70818  -0.70168  -0.65369  -0.65069  -0.64745
 Alpha  occ. eigenvalues --   -0.64414  -0.62426  -0.61800  -0.55577  -0.54919
 Alpha  occ. eigenvalues --   -0.53470  -0.53160  -0.52778  -0.52517  -0.49512
 Alpha  occ. eigenvalues --   -0.49473  -0.48791  -0.48761  -0.45589  -0.44845
 Alpha  occ. eigenvalues --   -0.37705  -0.37071  -0.36653  -0.36035
 Alpha virt. eigenvalues --    0.04460   0.05219   0.10993   0.11562   0.16052
 Alpha virt. eigenvalues --    0.16759   0.21144   0.21929   0.27066   0.27683
 Alpha virt. eigenvalues --    0.28188   0.28715   0.30768   0.31510   0.32234

 Mulliken charges:
               1
     1  C   -0.179056
     2  C   -0.217649
     3  C   -0.173003
     4  C    0.157462
     5  C   -0.175926
     6  C   -0.218567
     7  H    0.233504
     8  H    0.221139
     9  H    0.272349
    10  H    0.275546
    11  H    0.239964
    12  N    0.487433
    13  O   -0.461564
    14  O   -0.462894
    15  C   -0.169843
    16  C   -0.219194
    17  C   -0.172741
    18  C    0.160042
    19  C   -0.168749
    20  C   -0.218686
    21  H    0.228285
    22  H    0.223459
    23  H    0.273038
    24  H    0.275863
    25  H    0.228823
    26  N    0.488263
    27  O   -0.463392
    28  O   -0.463907
 Sum of Mulliken charges =  -0.00000

 Dipole moment (field-independent basis, Debye):
    X=              3.0772    Y=              1.6318    Z=              3.2759  Tot=              4.7815
 Quadrupole moment (field-independent basis, Debye-Ang):
   XX=           -124.5543   YY=           -101.4425   ZZ=            -98.0472
   XY=             20.4070   XZ=              0.2218   YZ=             -0.7924

 Normal termination of Gaussian 16 at Thu May  6 12:49:06 2021.
