 Gaussian 16, Revision A.03,
 Gaussian 16:  EM64L-G16RevA.03 25-Dec-2016

 -------------
 #p 6-31g* mp2
 -------------

 ------------------------------------------------------
 Input file generated by CHIRIPA (05-May-2021 14:53:12)
 ------------------------------------------------------
 Symbolic Z-matrix:
 Charge =  0 Multiplicity = 1

                         Standard orientation:
 ---------------------------------------------------------------------
 Center     Atomic      Atomic             Coordinates (Angstroms)
 Number     Number       Type             X           Y           Z
 ---------------------------------------------------------------------
      1          6           0        2.960014    1.231762    0.338880
      2          6           0        1.762149    1.391198    1.275728
      3          6           0        1.392719    2.854781    1.519122
      4          1           0        3.822646    1.763466    0.763265
      5          1           0        2.733911    1.718187   -0.620110
      6          1           0        1.989911    0.903418    2.232186
      7          1           0        0.902321    0.858892    0.849158
      8          1           0        1.139327    3.350077    0.576215
      9          1           0        2.233096    3.394856    1.967101
     10          1           0        0.533946    2.945598    2.191523
     11          6           0        3.341440   -0.225709    0.085856
     12          6           0        4.539306   -0.385145   -0.850992
     13          6           0        4.908736   -1.848728   -1.094387
     14          1           0        3.567544   -0.712134    1.044846
     15          1           0        2.478809   -0.757413   -0.338529
     16          1           0        5.399134    0.147161   -0.424422
     17          1           0        4.311544    0.102635   -1.807450
     18          1           0        4.068358   -2.388804   -1.542365
     19          1           0        5.162127   -2.344025   -0.151479
     20          1           0        5.767508   -1.939545   -1.766787
     21          6           0       -1.662326   -2.508501    0.952946
     22          6           0       -3.007549   -2.135410    1.040711
     23          6           0       -3.461495   -0.965356    0.424714
     24          6           0       -2.538767   -0.188470   -0.274079
     25          6           0       -1.192232   -0.533449   -0.379536
     26          6           0       -0.760552   -1.707742    0.244352
     27          1           0       -1.318339   -3.419074    1.434534
     28          1           0       -3.710123   -2.755355    1.590350
     29          1           0       -4.497398   -0.652927    0.476762
     30          1           0       -0.515519    0.104941   -0.934458
     31          1           0        0.284744   -1.995016    0.174526
     32          7           0       -3.007554    1.052458   -0.930386
     33          8           0       -2.174664    1.719674   -1.540101
     34          8           0       -4.199002    1.334384   -0.822655
 ---------------------------------------------------------------------

 SCF Done:  E(RHF) =  -669.534502938     A.U. after   15 cycles
 E2 =    -0.2093508950D+01 EUMP2 =    -0.67162801188831D+03

 The electronic state is 1-A.
 Alpha  occ. eigenvalues --  -20.60790 -20.60785 -15.85843 -11.31208 -11.27772
 Alpha  occ. eigenvalues --  -11.27761 -11.27501 -11.26788 -11.26756 -11.22140
 Alpha  occ. eigenvalues --  -11.22081 -11.21831 -11.21745 -11.21603 -11.21036
 Alpha  occ. eigenvalues --   -1.59864  -1.39418  -1.19385  -1.08910  -1.08769
 Alpha  occ. eigenvalues --   -1.04796  -1.03884  -0.96341  -0.95611  -0.87349
 Alpha  occ. eigenvalues --   -0.86180  -0.82454  -0.79979  -0.78765  -0.77474
 Alpha  occ. eigenvalues --   -0.72063  -0.71188  -0.70502  -0.65590  -0.65019
 Alpha  occ. eigenvalues --   -0.64797  -0.62166  -0.61243  -0.59717  -0.57957
 Alpha  occ. eigenvalues --   -0.55641  -0.55279  -0.53159  -0.52977  -0.52919
 Alpha  occ. eigenvalues --   -0.52702  -0.50265  -0.48821  -0.48818  -0.48273
 Alpha  occ. eigenvalues --   -0.47021  -0.46264  -0.46163  -0.44821  -0.44175
 Alpha  occ. eigenvalues --   -0.37356  -0.36312
 Alpha virt. eigenvalues --    0.04999   0.11222   0.16436   0.19362   0.22902
 Alpha virt. eigenvalues --    0.23733   0.24818   0.26523   0.27572   0.28210
 Alpha virt. eigenvalues --    0.29921   0.30920   0.31485   0.31593   0.31830

 Mulliken charges:
               1
     1  C   -0.300100
     2  C   -0.305917
     3  C   -0.476365
     4  H    0.152697
     5  H    0.153307
     6  H    0.150185
     7  H    0.151424
     8  H    0.163078
     9  H    0.154450
    10  H    0.162162
    11  C   -0.300630
    12  C   -0.299739
    13  C   -0.476010
    14  H    0.149964
    15  H    0.138673
    16  H    0.155241
    17  H    0.154976
    18  H    0.152007
    19  H    0.154807
    20  H    0.163432
    21  C   -0.171420
    22  C   -0.218166
    23  C   -0.171452
    24  C    0.157303
    25  C   -0.172473
    26  C   -0.219748
    27  H    0.226168
    28  H    0.223547
    29  H    0.275669
    30  H    0.275852
    31  H    0.229830
    32  N    0.488349
    33  O   -0.460856
    34  O   -0.460246
 Sum of Mulliken charges =  -0.00000

 Dipole moment (field-independent basis, Debye):
    X=              1.7073    Y=             -4.2701    Z=              2.3149  Tot=              5.1485
 Quadrupole moment (field-independent basis, Debye-Ang):
   XX=            -98.1168   YY=            -94.2941   ZZ=            -95.6665
   XY=             12.4776   XZ=             -7.6959   YZ=              0.0719

 Normal termination of Gaussian 16 at Thu May  6 15:19:49 2021.
