 Gaussian 16, Revision A.03,
 Gaussian 16:  EM64L-G16RevA.03 25-Dec-2016

 -------------
 #p 6-31g* mp2
 -------------

 ------------------------------------------------------
 Input file generated by CHIRIPA (05-May-2021 14:57:23)
 ------------------------------------------------------
 Symbolic Z-matrix:
 Charge =  0 Multiplicity = 1

                         Standard orientation:
 ---------------------------------------------------------------------
 Center     Atomic      Atomic             Coordinates (Angstroms)
 Number     Number       Type             X           Y           Z
 ---------------------------------------------------------------------
      1          6           0       -1.899874    2.110895    1.325743
      2          6           0       -2.227129    2.230927   -0.028885
      3          6           0       -2.704023    1.128642   -0.744488
      4          6           0       -2.842025   -0.084055   -0.070981
      5          6           0       -2.524444   -0.235370    1.277921
      6          6           0       -2.049313    0.880299    1.973680
      7          1           0       -1.530097    2.972375    1.873933
      8          1           0       -2.112080    3.185387   -0.534667
      9          1           0       -2.964848    1.193574   -1.793856
     10          1           0       -2.649741   -1.199859    1.754869
     11          1           0       -1.795946    0.784147    3.025633
     12          7           0       -3.345958   -1.258079   -0.818054
     13          8           0       -3.458580   -2.315460   -0.201694
     14          8           0       -3.618776   -1.098668   -2.005823
     15          6           0        2.607874    2.323662   -0.702619
     16          6           0        1.527433    1.699739   -0.070252
     17          6           0        1.600032    0.352101    0.294645
     18          6           0        2.773578   -0.344662    0.010739
     19          6           0        3.866997    0.248860   -0.618115
     20          6           0        3.772154    1.597512   -0.974055
     21          1           0        2.542837    3.370932   -0.982602
     22          1           0        0.621984    2.261205    0.141794
     23          1           0        0.778547   -0.155721    0.785253
     24          1           0        4.756393   -0.336877   -0.816368
     25          1           0        4.612806    2.079459   -1.465051
     26          7           0        2.862209   -1.771882    0.392298
     27          8           0        3.907249   -2.363746    0.131096
     28          8           0        1.884962   -2.271649    0.945340
 ---------------------------------------------------------------------

 SCF Done:  E(RHF) =  -868.336239070     A.U. after   16 cycles
 E2 =    -0.2603331919D+01 EUMP2 =    -0.87093957098924D+03

 The electronic state is 1-A.
 Alpha  occ. eigenvalues --  -20.61140 -20.61111 -20.60795 -20.60789 -15.86195
 Alpha  occ. eigenvalues --  -15.85847 -11.31917 -11.31251 -11.28537 -11.28480
 Alpha  occ. eigenvalues --  -11.28383 -11.27829 -11.27770 -11.27664 -11.27612
 Alpha  occ. eigenvalues --  -11.27595 -11.26874 -11.26755  -1.60195  -1.59867
 Alpha  occ. eigenvalues --   -1.39738  -1.39420  -1.20167  -1.19428  -1.09511
 Alpha  occ. eigenvalues --   -1.08831  -1.05588  -1.04830  -0.96258  -0.95657
 Alpha  occ. eigenvalues --   -0.86973  -0.86239  -0.83061  -0.82483  -0.78026
 Alpha  occ. eigenvalues --   -0.77526  -0.72407  -0.72066  -0.71523  -0.71244
 Alpha  occ. eigenvalues --   -0.71190  -0.70573  -0.65795  -0.65568  -0.65084
 Alpha  occ. eigenvalues --   -0.64864  -0.62877  -0.62250  -0.56100  -0.55441
 Alpha  occ. eigenvalues --   -0.53861  -0.53639  -0.53169  -0.52898  -0.49195
 Alpha  occ. eigenvalues --   -0.49136  -0.48826  -0.48818  -0.45063  -0.44815
 Alpha  occ. eigenvalues --   -0.38166  -0.37471  -0.37218  -0.36375
 Alpha virt. eigenvalues --    0.04432   0.05019   0.10314   0.11187   0.15784
 Alpha virt. eigenvalues --    0.16527   0.20218   0.21807   0.26324   0.27070
 Alpha virt. eigenvalues --    0.27904   0.28339   0.30262   0.31434   0.31923

 Mulliken charges:
               1
     1  C   -0.183117
     2  C   -0.224553
     3  C   -0.167614
     4  C    0.160185
     5  C   -0.171661
     6  C   -0.221997
     7  H    0.227597
     8  H    0.223851
     9  H    0.279034
    10  H    0.284457
    11  H    0.230257
    12  N    0.488324
    13  O   -0.453531
    14  O   -0.458972
    15  C   -0.172976
    16  C   -0.221812
    17  C   -0.177651
    18  C    0.159507
    19  C   -0.170654
    20  C   -0.218357
    21  H    0.222298
    22  H    0.223480
    23  H    0.276572
    24  H    0.276030
    25  H    0.223113
    26  N    0.488112
    27  O   -0.459712
    28  O   -0.460209
 Sum of Mulliken charges =  -0.00000

 Dipole moment (field-independent basis, Debye):
    X=              1.1104    Y=              8.8716    Z=              1.3092  Tot=              9.0361
 Quadrupole moment (field-independent basis, Debye-Ang):
   XX=           -112.4451   YY=           -108.7670   ZZ=           -101.7458
   XY=              1.8907   XZ=            -13.2288   YZ=             -2.6257

 Normal termination of Gaussian 16 at Fri May  7 11:02:06 2021.
