 Gaussian 16, Revision A.03,
 Gaussian 16:  EM64L-G16RevA.03 25-Dec-2016

 -------------
 #p 6-31g* mp2
 -------------

 ------------------------------------------------------
 Input file generated by CHIRIPA (05-May-2021 14:57:24)
 ------------------------------------------------------
 Symbolic Z-matrix:
 Charge =  0 Multiplicity = 1

                         Standard orientation:
 ---------------------------------------------------------------------
 Center     Atomic      Atomic             Coordinates (Angstroms)
 Number     Number       Type             X           Y           Z
 ---------------------------------------------------------------------
      1          6           0        1.846344    1.840252    0.788419
      2          6           0        2.250291    1.819182   -0.550574
      3          6           0        3.145374    0.847020   -1.006948
      4          6           0        3.618813   -0.093084   -0.092973
      5          6           0        3.235164   -0.098311    1.247204
      6          6           0        2.339200    0.883126    1.681461
      7          1           0        1.150680    2.599053    1.134351
      8          1           0        1.869161    2.561250   -1.246361
      9          1           0        3.474697    0.807572   -2.038165
     10          1           0        3.632252   -0.851203    1.917199
     11          1           0        2.027229    0.897064    2.721905
     12          7           0        4.566863   -1.127177   -0.564409
     13          8           0        4.969478   -1.944299    0.260728
     14          8           0        4.889379   -1.100998   -1.750130
     15          6           0       -5.768757   -0.933958   -0.544732
     16          6           0       -5.022737   -1.543573    0.469341
     17          6           0       -3.743857   -1.077333    0.788142
     18          6           0       -3.239608    0.005466    0.069414
     19          6           0       -3.958347    0.634002   -0.946287
     20          6           0       -5.235122    0.150971   -1.248069
     21          1           0       -6.761405   -1.302667   -0.785774
     22          1           0       -5.434628   -2.386315    1.017225
     23          1           0       -3.144657   -1.530605    1.568477
     24          1           0       -3.521024    1.472278   -1.474927
     25          1           0       -5.812222    0.626363   -2.036107
     26          7           0       -1.886829    0.507942    0.397907
     27          8           0       -1.465152    1.463419   -0.250082
     28          8           0       -1.273813   -0.063209    1.297147
 ---------------------------------------------------------------------

 SCF Done:  E(RHF) =  -868.339883188     A.U. after   16 cycles
 E2 =    -0.2599761277D+01 EUMP2 =    -0.87093964446521D+03

 The electronic state is 1-A.
 Alpha  occ. eigenvalues --  -20.61677 -20.61654 -20.59627 -20.59622 -15.86684
 Alpha  occ. eigenvalues --  -15.84671 -11.31789 -11.29645 -11.28335 -11.28314
 Alpha  occ. eigenvalues --  -11.28013 -11.27282 -11.27265 -11.26222 -11.26204
 Alpha  occ. eigenvalues --  -11.25718 -11.25057 -11.25039  -1.60720  -1.58713
 Alpha  occ. eigenvalues --   -1.40283  -1.38278  -1.19935  -1.17776  -1.09379
 Alpha  occ. eigenvalues --   -1.07193  -1.05298  -1.03146  -0.96261  -0.94107
 Alpha  occ. eigenvalues --   -0.86709  -0.84539  -0.83104  -0.80987  -0.78178
 Alpha  occ. eigenvalues --   -0.76113  -0.72927  -0.72016  -0.71039  -0.70902
 Alpha  occ. eigenvalues --   -0.70035  -0.68826  -0.65592  -0.65298  -0.63419
 Alpha  occ. eigenvalues --   -0.63146  -0.62650  -0.60540  -0.55811  -0.53644
 Alpha  occ. eigenvalues --   -0.53556  -0.53384  -0.51559  -0.51246  -0.49674
 Alpha  occ. eigenvalues --   -0.49552  -0.47675  -0.47618  -0.45744  -0.43775
 Alpha  occ. eigenvalues --   -0.37896  -0.36888  -0.35541  -0.34744
 Alpha virt. eigenvalues --    0.04338   0.06445   0.10771   0.12947   0.15890
 Alpha virt. eigenvalues --    0.18084   0.20940   0.23037   0.26862   0.27814
 Alpha virt. eigenvalues --    0.28797   0.29937   0.30542   0.31999   0.32622

 Mulliken charges:
               1
     1  C   -0.148622
     2  C   -0.216182
     3  C   -0.174976
     4  C    0.155649
     5  C   -0.173613
     6  C   -0.210906
     7  H    0.228815
     8  H    0.220184
     9  H    0.269045
    10  H    0.269582
    11  H    0.220259
    12  N    0.488380
    13  O   -0.465204
    14  O   -0.465700
    15  C   -0.169754
    16  C   -0.218411
    17  C   -0.170199
    18  C    0.158433
    19  C   -0.170468
    20  C   -0.218406
    21  H    0.227838
    22  H    0.225641
    23  H    0.276208
    24  H    0.274401
    25  H    0.225030
    26  N    0.489790
    27  O   -0.467255
    28  O   -0.459558
 Sum of Mulliken charges =  -0.00000

 Dipole moment (field-independent basis, Debye):
    X=             -8.7644    Y=              1.9823    Z=              0.6356  Tot=              9.0083
 Quadrupole moment (field-independent basis, Debye-Ang):
   XX=           -100.5922   YY=           -103.2668   ZZ=            -99.1826
   XY=             19.6686   XZ=             10.8144   YZ=             -5.4763

 Normal termination of Gaussian 16 at Thu May  6 05:03:43 2021.
