 Gaussian 16, Revision A.03,
 Gaussian 16:  EM64L-G16RevA.03 25-Dec-2016

 -------------
 #p 6-31g* mp2
 -------------

 ------------------------------------------------------
 Input file generated by CHIRIPA (05-May-2021 14:55:22)
 ------------------------------------------------------
 Symbolic Z-matrix:
 Charge =  0 Multiplicity = 1

                         Standard orientation:
 ---------------------------------------------------------------------
 Center     Atomic      Atomic             Coordinates (Angstroms)
 Number     Number       Type             X           Y           Z
 ---------------------------------------------------------------------
      1          6           0       -1.186845   -1.388707    1.946535
      2          6           0       -1.405883   -0.008118    1.896367
      3          6           0       -2.200250    0.548622    0.889605
      4          6           0       -2.762623   -0.308494   -0.055053
      5          6           0       -2.563019   -1.687954   -0.031830
      6          6           0       -1.765093   -2.222748    0.983973
      7          1           0       -0.568379   -1.812672    2.732124
      8          1           0       -0.958080    0.642027    2.642577
      9          1           0       -2.386259    1.613947    0.827154
     10          1           0       -3.022812   -2.310576   -0.789690
     11          1           0       -1.596709   -3.295297    1.020459
     12          7           0       -3.605468    0.269285   -1.125652
     13          8           0       -4.089607   -0.507343   -1.946076
     14          8           0       -3.765991    1.487836   -1.124093
     15          6           0        2.866748    0.818426    0.345369
     16          6           0        2.175483    2.081485   -0.169238
     17          6           0        1.195016    2.673269    0.843812
     18          1           0        2.104828    0.069398    0.601061
     19          1           0        3.398765    1.053903    1.277519
     20          1           0        1.646070    1.844020   -1.100876
     21          1           0        2.939146    2.827525   -0.423915
     22          1           0        1.712575    2.937960    1.771536
     23          1           0        0.412154    1.948868    1.090729
     24          1           0        0.712175    3.575423    0.455424
     25          6           0        3.849955    0.215094   -0.656141
     26          6           0        4.541220   -1.047964   -0.141534
     27          6           0        5.521687   -1.639748   -1.154583
     28          1           0        3.317938   -0.020383   -1.588290
     29          1           0        4.611876    0.964123   -0.911833
     30          1           0        3.777557   -1.794004    0.113144
     31          1           0        5.070632   -0.810498    0.790104
     32          1           0        6.304549   -0.915346   -1.401500
     33          1           0        5.004128   -1.904439   -2.082307
     34          1           0        6.004528   -2.541902   -0.766195
 ---------------------------------------------------------------------

 SCF Done:  E(RHF) =  -669.534873836     A.U. after   15 cycles
 E2 =    -0.2092801952D+01 EUMP2 =    -0.67162767578775D+03

 The electronic state is 1-A.
 Alpha  occ. eigenvalues --  -20.60822 -20.60817 -15.85877 -11.31271 -11.27842
 Alpha  occ. eigenvalues --  -11.27831 -11.27592 -11.26865 -11.26843 -11.21947
 Alpha  occ. eigenvalues --  -11.21904 -11.21743 -11.21658 -11.21467 -11.21348
 Alpha  occ. eigenvalues --   -1.59897  -1.39450  -1.19457  -1.08844  -1.08755
 Alpha  occ. eigenvalues --   -1.04874  -1.03862  -0.96331  -0.95667  -0.87359
 Alpha  occ. eigenvalues --   -0.86251  -0.82509  -0.79942  -0.78581  -0.77541
 Alpha  occ. eigenvalues --   -0.72094  -0.71222  -0.70547  -0.65401  -0.65105
 Alpha  occ. eigenvalues --   -0.64860  -0.62257  -0.61236  -0.59685  -0.57939
 Alpha  occ. eigenvalues --   -0.55664  -0.55334  -0.53249  -0.53022  -0.52985
 Alpha  occ. eigenvalues --   -0.52656  -0.50262  -0.48857  -0.48846  -0.48249
 Alpha  occ. eigenvalues --   -0.46960  -0.46123  -0.46033  -0.44847  -0.44116
 Alpha  occ. eigenvalues --   -0.37427  -0.36386
 Alpha virt. eigenvalues --    0.04957   0.11132   0.16304   0.21002   0.22653
 Alpha virt. eigenvalues --    0.24132   0.26155   0.26458   0.27152   0.28175
 Alpha virt. eigenvalues --    0.28873   0.30643   0.31305   0.31664   0.32020

 Mulliken charges:
               1
     1  C   -0.172707
     2  C   -0.219620
     3  C   -0.169022
     4  C    0.157719
     5  C   -0.171069
     6  C   -0.218878
     7  H    0.226693
     8  H    0.226873
     9  H    0.277626
    10  H    0.275961
    11  H    0.223912
    12  N    0.488072
    13  O   -0.460288
    14  O   -0.459844
    15  C   -0.299945
    16  C   -0.298147
    17  C   -0.485008
    18  H    0.148062
    19  H    0.147335
    20  H    0.156184
    21  H    0.153664
    22  H    0.152493
    23  H    0.153996
    24  H    0.164064
    25  C   -0.298606
    26  C   -0.299314
    27  C   -0.475885
    28  H    0.151761
    29  H    0.150966
    30  H    0.149139
    31  H    0.151177
    32  H    0.156353
    33  H    0.156319
    34  H    0.159962
 Sum of Mulliken charges =  -0.00000

 Dipole moment (field-independent basis, Debye):
    X=              2.9432    Y=             -2.0628    Z=              3.7092  Tot=              5.1649
 Quadrupole moment (field-independent basis, Debye-Ang):
   XX=           -111.7338   YY=            -89.3898   ZZ=            -95.2877
   XY=              6.3723   XZ=             -9.8071   YZ=              0.6141

 Normal termination of Gaussian 16 at Wed May  5 23:53:51 2021.
