 Gaussian 16, Revision A.03,
 Gaussian 16:  EM64L-G16RevA.03 25-Dec-2016

 -------------
 #p 6-31g* mp2
 -------------

 ------------------------------------------------------
 Input file generated by CHIRIPA (05-May-2021 14:57:21)
 ------------------------------------------------------
 Symbolic Z-matrix:
 Charge =  0 Multiplicity = 1

                         Standard orientation:
 ---------------------------------------------------------------------
 Center     Atomic      Atomic             Coordinates (Angstroms)
 Number     Number       Type             X           Y           Z
 ---------------------------------------------------------------------
      1          6           0        5.823952    1.135013    0.056402
      2          6           0        5.667914   -0.250508    0.168226
      3          6           0        4.398306   -0.830625    0.090074
      4          6           0        3.301618    0.008397   -0.101257
      5          6           0        3.424620    1.392201   -0.216351
      6          6           0        4.703782    1.950508   -0.135192
      7          1           0        6.813924    1.577190    0.118280
      8          1           0        6.536062   -0.886285    0.317062
      9          1           0        4.248863   -1.900271    0.173397
     10          1           0        2.540334    2.000125   -0.364288
     11          1           0        4.821960    3.026834   -0.222377
     12          7           0        1.952484   -0.594203   -0.185585
     13          8           0        1.002234    0.166801   -0.354511
     14          8           0        1.870828   -1.816113   -0.081158
     15          6           0       -1.836479   -1.968777    0.321306
     16          6           0       -2.512791   -1.785182   -0.889238
     17          6           0       -3.449867   -0.757292   -1.030217
     18          6           0       -3.687112    0.072209    0.064742
     19          6           0       -3.029472   -0.085222    1.283763
     20          6           0       -2.096519   -1.119708    1.402038
     21          1           0       -1.110137   -2.769828    0.422004
     22          1           0       -2.312860   -2.443060   -1.730231
     23          1           0       -3.987727   -0.592669   -1.955973
     24          1           0       -3.250056    0.586613    2.104372
     25          1           0       -1.572783   -1.259931    2.343358
     26          7           0       -4.676970    1.163881   -0.072489
     27          8           0       -4.868012    1.881139    0.907145
     28          8           0       -5.243035    1.281606   -1.157084
 ---------------------------------------------------------------------

 SCF Done:  E(RHF) =  -868.339661106     A.U. after   16 cycles
 E2 =    -0.2599386268D+01 EUMP2 =    -0.87093904737393D+03

 The electronic state is 1-A.
 Alpha  occ. eigenvalues --  -20.61645 -20.61592 -20.59661 -20.59656 -15.86632
 Alpha  occ. eigenvalues --  -15.84708 -11.31769 -11.29698 -11.28325 -11.28283
 Alpha  occ. eigenvalues --  -11.28001 -11.27276 -11.27245 -11.26305 -11.26297
 Alpha  occ. eigenvalues --  -11.25797 -11.25153 -11.25133  -1.60682  -1.58746
 Alpha  occ. eigenvalues --   -1.40239  -1.38311  -1.19918  -1.17837  -1.09358
 Alpha  occ. eigenvalues --   -1.07260  -1.05282  -1.03230  -0.96231  -0.94168
 Alpha  occ. eigenvalues --   -0.86691  -0.84637  -0.83067  -0.81053  -0.78143
 Alpha  occ. eigenvalues --   -0.76179  -0.72862  -0.71990  -0.71018  -0.70941
 Alpha  occ. eigenvalues --   -0.70065  -0.68893  -0.65571  -0.65279  -0.63503
 Alpha  occ. eigenvalues --   -0.63264  -0.62629  -0.60638  -0.55794  -0.53644
 Alpha  occ. eigenvalues --   -0.53621  -0.53365  -0.51588  -0.51354  -0.49630
 Alpha  occ. eigenvalues --   -0.49507  -0.47710  -0.47659  -0.45694  -0.43804
 Alpha  occ. eigenvalues --   -0.37886  -0.36876  -0.35625  -0.34825
 Alpha virt. eigenvalues --    0.04366   0.06401   0.10782   0.12851   0.15920
 Alpha virt. eigenvalues --    0.18018   0.20964   0.22945   0.26890   0.27840
 Alpha virt. eigenvalues --    0.28651   0.29919   0.30562   0.32029   0.32557

 Mulliken charges:
               1
     1  C   -0.169937
     2  C   -0.218560
     3  C   -0.171101
     4  C    0.157507
     5  C   -0.170708
     6  C   -0.218596
     7  H    0.227713
     8  H    0.224703
     9  H    0.274319
    10  H    0.277938
    11  H    0.226132
    12  N    0.488179
    13  O   -0.453763
    14  O   -0.470873
    15  C   -0.151499
    16  C   -0.218040
    17  C   -0.171208
    18  C    0.156706
    19  C   -0.171239
    20  C   -0.215509
    21  H    0.234737
    22  H    0.219149
    23  H    0.269888
    24  H    0.269130
    25  H    0.217282
    26  N    0.488350
    27  O   -0.465648
    28  O   -0.465053
 Sum of Mulliken charges =  -0.00000

 Dipole moment (field-independent basis, Debye):
    X=              8.8147    Y=             -1.7647    Z=              0.7450  Tot=              9.0204
 Quadrupole moment (field-independent basis, Debye-Ang):
   XX=           -100.6386   YY=           -101.4674   ZZ=           -101.5363
   XY=             20.6426   XZ=              0.2211   YZ=              0.3264

 Normal termination of Gaussian 16 at Thu May  6 14:30:47 2021.
