 Gaussian 16, Revision A.03,
 Gaussian 16:  EM64L-G16RevA.03 25-Dec-2016

 -------------
 #p 6-31g* mp2
 -------------

 ------------------------------------------------------
 Input file generated by CHIRIPA (05-May-2021 14:55:19)
 ------------------------------------------------------
 Symbolic Z-matrix:
 Charge =  0 Multiplicity = 1

                         Standard orientation:
 ---------------------------------------------------------------------
 Center     Atomic      Atomic             Coordinates (Angstroms)
 Number     Number       Type             X           Y           Z
 ---------------------------------------------------------------------
      1          6           0        4.697531   -0.158726   -0.762225
      2          6           0        3.854398   -1.207952   -1.142713
      3          6           0        2.570154   -1.318789   -0.601437
      4          6           0        2.159627   -0.358513    0.321941
      5          6           0        2.976319    0.698372    0.721064
      6          6           0        4.256578    0.789416    0.166811
      7          1           0        5.693615   -0.080313   -1.187742
      8          1           0        4.194184   -1.945736   -1.864007
      9          1           0        1.896833   -2.120906   -0.878322
     10          1           0        2.609531    1.418610    1.442273
     11          1           0        4.909207    1.605324    0.464156
     12          7           0        0.802165   -0.465374    0.901835
     13          8           0        0.464191    0.393482    1.713486
     14          8           0        0.101864   -1.405964    0.533724
     15          6           0       -3.411518   -0.099757    0.117462
     16          6           0       -3.702067   -1.372626   -0.678385
     17          6           0       -4.424257   -2.435756    0.149863
     18          1           0       -2.805386   -0.355403    0.997346
     19          1           0       -4.357274    0.310398    0.497871
     20          1           0       -2.756181   -1.779499   -1.058344
     21          1           0       -4.307416   -1.113894   -1.556579
     22          1           0       -5.382094   -2.053146    0.516956
     23          1           0       -3.822045   -2.722533    1.018022
     24          1           0       -4.622054   -3.337165   -0.438523
     25          6           0       -2.689866    0.972463   -0.696963
     26          6           0       -2.399317    2.245332    0.098883
     27          6           0       -1.677127    3.308462   -0.729363
     28          1           0       -1.744109    0.562308   -1.077373
     29          1           0       -3.295998    1.228109   -1.576846
     30          1           0       -1.793968    1.986599    0.977078
     31          1           0       -3.345203    2.652205    0.478843
     32          1           0       -2.279339    3.595239   -1.597523
     33          1           0       -0.719290    2.925851   -1.096457
     34          1           0       -1.479330    4.209871   -0.140979
 ---------------------------------------------------------------------

 SCF Done:  E(RHF) =  -669.537183236     A.U. after   15 cycles
 E2 =    -0.2093128173D+01 EUMP2 =    -0.67163031140983D+03

 The electronic state is 1-A.
 Alpha  occ. eigenvalues --  -20.61253 -20.61248 -15.86230 -11.31447 -11.27991
 Alpha  occ. eigenvalues --  -11.27987 -11.27710 -11.26972 -11.26962 -11.20194
 Alpha  occ. eigenvalues --  -11.20150 -11.20133 -11.19989 -11.19817 -11.19684
 Alpha  occ. eigenvalues --   -1.60276  -1.39836  -1.19600  -1.09027  -1.06964
 Alpha  occ. eigenvalues --   -1.04977  -1.02214  -0.95885  -0.94707  -0.86384
 Alpha  occ. eigenvalues --   -0.85731  -0.82724  -0.78273  -0.77788  -0.76775
 Alpha  occ. eigenvalues --   -0.72451  -0.71591  -0.70707  -0.65257  -0.64984
 Alpha  occ. eigenvalues --   -0.63540  -0.62324  -0.59590  -0.58092  -0.56325
 Alpha  occ. eigenvalues --   -0.55488  -0.54004  -0.53311  -0.53067  -0.51454
 Alpha  occ. eigenvalues --   -0.51158  -0.49238  -0.49216  -0.48620  -0.46624
 Alpha  occ. eigenvalues --   -0.45541  -0.45019  -0.44332  -0.44048  -0.42432
 Alpha  occ. eigenvalues --   -0.37570  -0.36571
 Alpha virt. eigenvalues --    0.04678   0.11083   0.16152   0.21192   0.24271
 Alpha virt. eigenvalues --    0.25449   0.27158   0.27692   0.28423   0.28975
 Alpha virt. eigenvalues --    0.29302   0.30932   0.32094   0.32656   0.32860

 Mulliken charges:
               1
     1  C   -0.170112
     2  C   -0.218575
     3  C   -0.170403
     4  C    0.157994
     5  C   -0.170350
     6  C   -0.218562
     7  H    0.226679
     8  H    0.224463
     9  H    0.276062
    10  H    0.276346
    11  H    0.224531
    12  N    0.489508
    13  O   -0.458509
    14  O   -0.459225
    15  C   -0.300604
    16  C   -0.298968
    17  C   -0.475893
    18  H    0.171536
    19  H    0.140914
    20  H    0.158473
    21  H    0.143253
    22  H    0.150453
    23  H    0.160588
    24  H    0.153833
    25  C   -0.295076
    26  C   -0.309904
    27  C   -0.472913
    28  H    0.146716
    29  H    0.141364
    30  H    0.175582
    31  H    0.146066
    32  H    0.150919
    33  H    0.147964
    34  H    0.155849
 Sum of Mulliken charges =  -0.00000

 Dipole moment (field-independent basis, Debye):
    X=              5.2238    Y=              0.2109    Z=             -1.7914  Tot=              5.5265
 Quadrupole moment (field-independent basis, Debye-Ang):
   XX=            -75.1896   YY=            -93.2923   ZZ=            -95.4466
   XY=             -0.7631   XZ=             -2.6760   YZ=              4.0517

 Normal termination of Gaussian 16 at Thu May  6 02:53:41 2021.
