 Gaussian 16, Revision A.03,
 Gaussian 16:  EM64L-G16RevA.03 25-Dec-2016

 -------------
 #p 6-31g* mp2
 -------------

 ------------------------------------------------------
 Input file generated by CHIRIPA (05-May-2021 14:57:23)
 ------------------------------------------------------
 Symbolic Z-matrix:
 Charge =  0 Multiplicity = 1

                         Standard orientation:
 ---------------------------------------------------------------------
 Center     Atomic      Atomic             Coordinates (Angstroms)
 Number     Number       Type             X           Y           Z
 ---------------------------------------------------------------------
      1          6           0        0.970081   -1.478513    0.160550
      2          6           0        2.118982   -2.074048   -0.370378
      3          6           0        3.312888   -1.352970   -0.466209
      4          6           0        3.322264   -0.032460   -0.019605
      5          6           0        2.194227    0.588802    0.514114
      6          6           0        1.011297   -0.151329    0.600327
      7          1           0        0.046890   -2.046064    0.231259
      8          1           0        2.089904   -3.104591   -0.712695
      9          1           0        4.217013   -1.789381   -0.873052
     10          1           0        2.254097    1.617849    0.847123
     11          1           0        0.120585    0.313754    1.013091
     12          7           0        4.580388    0.740998   -0.115966
     13          8           0        4.562574    1.902891    0.284440
     14          8           0        5.560497    0.170696   -0.590076
     15          6           0       -3.040633   -2.345055    0.296006
     16          6           0       -2.594746   -1.506921    1.323253
     17          6           0       -2.631279   -0.117525    1.172287
     18          6           0       -3.122090    0.402109   -0.024533
     19          6           0       -3.573513   -0.406667   -1.066354
     20          6           0       -3.527734   -1.793226   -0.893422
     21          1           0       -3.008663   -3.423270    0.421812
     22          1           0       -2.215948   -1.932688    2.248066
     23          1           0       -2.292418    0.554520    1.951355
     24          1           0       -3.945756    0.047160   -1.976789
     25          1           0       -3.874679   -2.441702   -1.692893
     26          7           0       -3.165660    1.871499   -0.195981
     27          8           0       -3.602590    2.304474   -1.260059
     28          8           0       -2.762053    2.562409    0.736962
 ---------------------------------------------------------------------

 SCF Done:  E(RHF) =  -868.336256936     A.U. after   16 cycles
 E2 =    -0.2603266181D+01 EUMP2 =    -0.87093952311728D+03

 The electronic state is 1-A.
 Alpha  occ. eigenvalues --  -20.61788 -20.61764 -20.60680 -20.60667 -15.86836
 Alpha  occ. eigenvalues --  -15.85730 -11.32468 -11.31124 -11.29081 -11.28962
 Alpha  occ. eigenvalues --  -11.28802 -11.28146 -11.28038 -11.27736 -11.27668
 Alpha  occ. eigenvalues --  -11.27395 -11.26765 -11.26646  -1.60846  -1.59752
 Alpha  occ. eigenvalues --   -1.40394  -1.39303  -1.20671  -1.19306  -1.10006
 Alpha  occ. eigenvalues --   -1.08701  -1.06099  -1.04714  -0.96793  -0.95525
 Alpha  occ. eigenvalues --   -0.87473  -0.86123  -0.83602  -0.82359  -0.78619
 Alpha  occ. eigenvalues --   -0.77403  -0.73042  -0.72181  -0.71948  -0.71739
 Alpha  occ. eigenvalues --   -0.71076  -0.70442  -0.66293  -0.66058  -0.64957
 Alpha  occ. eigenvalues --   -0.64792  -0.63393  -0.62070  -0.56547  -0.55407
 Alpha  occ. eigenvalues --   -0.54268  -0.54122  -0.53048  -0.52759  -0.49822
 Alpha  occ. eigenvalues --   -0.49789  -0.48714  -0.48699  -0.45737  -0.44702
 Alpha  occ. eigenvalues --   -0.38641  -0.37675  -0.37299  -0.36326
 Alpha virt. eigenvalues --    0.03859   0.05135   0.09772   0.11313   0.15310
 Alpha virt. eigenvalues --    0.16608   0.19818   0.21919   0.25577   0.26522
 Alpha virt. eigenvalues --    0.28140   0.28837   0.29694   0.30563   0.32201

 Mulliken charges:
               1
     1  C   -0.176381
     2  C   -0.219969
     3  C   -0.170761
     4  C    0.158242
     5  C   -0.170900
     6  C   -0.224734
     7  H    0.225660
     8  H    0.220105
     9  H    0.274915
    10  H    0.279444
    11  H    0.225324
    12  N    0.487949
    13  O   -0.458681
    14  O   -0.461412
    15  C   -0.177803
    16  C   -0.225134
    17  C   -0.184770
    18  C    0.164625
    19  C   -0.168801
    20  C   -0.216084
    21  H    0.229387
    22  H    0.228900
    23  H    0.277529
    24  H    0.280767
    25  H    0.228739
    26  N    0.488317
    27  O   -0.454175
    28  O   -0.460298
 Sum of Mulliken charges =  -0.00000

 Dipole moment (field-independent basis, Debye):
    X=             -4.6769    Y=             -7.7565    Z=              0.8096  Tot=              9.0935
 Quadrupole moment (field-independent basis, Debye-Ang):
   XX=           -133.5327   YY=           -106.3168   ZZ=           -100.5161
   XY=              5.8557   XZ=              0.7388   YZ=              2.8897

 Normal termination of Gaussian 16 at Thu May  6 03:25:53 2021.
