 Gaussian 16, Revision A.03,
 Gaussian 16:  EM64L-G16RevA.03 25-Dec-2016

 -------------
 #p 6-31g* mp2
 -------------

 ------------------------------------------------------
 Input file generated by CHIRIPA (05-May-2021 14:51:12)
 ------------------------------------------------------
 Symbolic Z-matrix:
 Charge =  0 Multiplicity = 1

                         Standard orientation:
 ---------------------------------------------------------------------
 Center     Atomic      Atomic             Coordinates (Angstroms)
 Number     Number       Type             X           Y           Z
 ---------------------------------------------------------------------
      1          6           0       -3.788160   -0.259633   -0.338488
      2          6           0       -4.449584    0.833465    0.501536
      3          6           0       -5.661728    1.458286   -0.189912
      4          1           0       -3.482765    0.163922   -1.305069
      5          1           0       -4.528498   -1.040943   -0.559507
      6          1           0       -3.707852    1.611805    0.722071
      7          1           0       -4.753268    0.407305    1.466305
      8          1           0       -6.422186    0.698037   -0.395647
      9          1           0       -5.370830    1.909381   -1.144109
     10          1           0       -6.119176    2.237172    0.428100
     11          6           0       -2.574887   -0.893832    0.339367
     12          6           0       -1.913463   -1.986931   -0.500657
     13          6           0       -0.701319   -2.611751    0.190791
     14          1           0       -1.834549   -0.112522    0.560386
     15          1           0       -2.880282   -1.317388    1.305948
     16          1           0       -1.609779   -1.560770   -1.465426
     17          1           0       -2.655195   -2.765271   -0.721193
     18          1           0       -0.992217   -3.062847    1.144988
     19          1           0        0.059139   -1.851502    0.396525
     20          1           0       -0.243871   -3.390637   -0.427221
     21          6           0        3.690775    0.018778   -0.113492
     22          6           0        3.140874   -1.375004    0.191408
     23          6           0        4.171426   -2.480638   -0.039522
     24          1           0        4.036463    0.049669   -1.155842
     25          1           0        4.573764    0.202354    0.514224
     26          1           0        2.258364   -1.555354   -0.435704
     27          1           0        2.796280   -1.402523    1.233096
     28          1           0        5.049055   -2.328298    0.597000
     29          1           0        4.508083   -2.481999   -1.081281
     30          1           0        3.757262   -3.468646    0.184461
     31          6           0        2.672271    1.134687    0.112613
     32          6           0        3.222174    2.528469   -0.192286
     33          6           0        2.191622    3.634103    0.038643
     34          1           0        1.789283    0.951112   -0.515102
     35          1           0        2.326585    1.103797    1.154962
     36          1           0        3.566768    2.555988   -1.233975
     37          1           0        4.104683    2.708820    0.434824
     38          1           0        1.854964    3.635464    1.080402
     39          1           0        1.313993    3.481764   -0.597878
     40          1           0        2.605785    4.622112   -0.185341
 ---------------------------------------------------------------------

 SCF Done:  E(RHF) =  -470.732989137     A.U. after   11 cycles
 E2 =    -0.1582869589D+01 EUMP2 =    -0.47231585872614D+03

 The electronic state is 1-A.
 Alpha  occ. eigenvalues --  -11.21640 -11.21585 -11.21570 -11.21553 -11.21441
 Alpha  occ. eigenvalues --  -11.21384 -11.21366 -11.21324 -11.21111 -11.21059
 Alpha  occ. eigenvalues --  -11.21048 -11.20964  -1.08457  -1.08403  -1.03556
 Alpha  occ. eigenvalues --   -1.03486  -0.95999  -0.95943  -0.87031  -0.86948
 Alpha  occ. eigenvalues --   -0.79693  -0.79493  -0.78302  -0.78185  -0.65117
 Alpha  occ. eigenvalues --   -0.65008  -0.61015  -0.60840  -0.59375  -0.59308
 Alpha  occ. eigenvalues --   -0.57616  -0.57550  -0.55307  -0.55222  -0.52700
 Alpha  occ. eigenvalues --   -0.52634  -0.52453  -0.52336  -0.50020  -0.49860
 Alpha  occ. eigenvalues --   -0.48037  -0.47761  -0.46747  -0.46526  -0.45888
 Alpha  occ. eigenvalues --   -0.45747  -0.45732  -0.45461  -0.43800  -0.43750
 Alpha virt. eigenvalues --    0.21622   0.23241   0.23745   0.24472   0.26001
 Alpha virt. eigenvalues --    0.26648   0.27127   0.27485   0.27974   0.29138
 Alpha virt. eigenvalues --    0.31166   0.31339   0.31637   0.31768   0.32318

 Mulliken charges:
               1
     1  C   -0.298196
     2  C   -0.299705
     3  C   -0.475677
     4  H    0.149353
     5  H    0.149484
     6  H    0.152119
     7  H    0.151902
     8  H    0.155126
     9  H    0.155104
    10  H    0.160250
    11  C   -0.298714
    12  C   -0.299544
    13  C   -0.481757
    14  H    0.150132
    15  H    0.149608
    16  H    0.150928
    17  H    0.151715
    18  H    0.154547
    19  H    0.163397
    20  H    0.159154
    21  C   -0.297868
    22  C   -0.304669
    23  C   -0.475525
    24  H    0.149477
    25  H    0.149503
    26  H    0.158241
    27  H    0.152170
    28  H    0.154926
    29  H    0.154808
    30  H    0.160811
    31  C   -0.299153
    32  C   -0.299512
    33  C   -0.475741
    34  H    0.148685
    35  H    0.149689
    36  H    0.152095
    37  H    0.152284
    38  H    0.155264
    39  H    0.154797
    40  H    0.160493
 Sum of Mulliken charges =  -0.00000

 Dipole moment (field-independent basis, Debye):
    X=              0.0304    Y=              0.0037    Z=              0.0112  Tot=              0.0326
 Quadrupole moment (field-independent basis, Debye-Ang):
   XX=            -85.5763   YY=            -85.4498   ZZ=            -83.7997
   XY=              1.4859   XZ=             -0.2334   YZ=             -0.1409

 Normal termination of Gaussian 16 at Wed May  5 21:31:32 2021.
