 Gaussian 16, Revision A.03,
 Gaussian 16:  EM64L-G16RevA.03 25-Dec-2016

 -------------
 #p 6-31g* mp2
 -------------

 ------------------------------------------------------
 Input file generated by CHIRIPA (05-May-2021 14:55:19)
 ------------------------------------------------------
 Symbolic Z-matrix:
 Charge =  0 Multiplicity = 1

                         Standard orientation:
 ---------------------------------------------------------------------
 Center     Atomic      Atomic             Coordinates (Angstroms)
 Number     Number       Type             X           Y           Z
 ---------------------------------------------------------------------
      1          6           0        1.552292   -2.347412    1.217486
      2          6           0        2.883431   -1.936843    1.344075
      3          6           0        3.370315   -0.864296    0.590992
      4          6           0        2.494527   -0.222072   -0.282986
      5          6           0        1.163117   -0.607570   -0.431400
      6          6           0        0.697890   -1.682637    0.331714
      7          1           0        1.182481   -3.181571    1.806396
      8          1           0        3.549239   -2.451256    2.031187
      9          1           0        4.396281   -0.525657    0.669323
     10          1           0        0.523307   -0.075181   -1.124670
     11          1           0       -0.336367   -1.999310    0.231342
     12          7           0        2.998506    0.914719   -1.085551
     13          8           0        2.206757    1.463973   -1.848500
     14          8           0        4.175729    1.234957   -0.936456
     15          6           0       -3.225370    0.083413   -0.415377
     16          6           0       -4.505415   -0.742914   -0.286322
     17          6           0       -4.769271   -1.619340   -1.511088
     18          1           0       -3.292811    0.714601   -1.312037
     19          1           0       -2.374460   -0.593702   -0.573055
     20          1           0       -5.353466   -0.064520   -0.127553
     21          1           0       -4.434998   -1.372067    0.610240
     22          1           0       -3.942267   -2.319037   -1.669484
     23          1           0       -4.865953   -1.004060   -2.411469
     24          1           0       -5.689133   -2.201428   -1.397568
     25          6           0       -2.947982    0.964726    0.801204
     26          6           0       -1.667937    1.791053    0.672148
     27          6           0       -1.404081    2.667479    1.896913
     28          1           0       -3.798892    1.641841    0.958881
     29          1           0       -2.880541    0.333537    1.697863
     30          1           0       -1.738353    2.420207   -0.224414
     31          1           0       -0.819886    1.112660    0.513379
     32          1           0       -1.307399    2.052200    2.797295
     33          1           0       -2.231085    3.367176    2.055309
     34          1           0       -0.484219    3.249568    1.783394
 ---------------------------------------------------------------------

 SCF Done:  E(RHF) =  -669.534519206     A.U. after   15 cycles
 E2 =    -0.2093548243D+01 EUMP2 =    -0.67162806744905D+03

 The electronic state is 1-A.
 Alpha  occ. eigenvalues --  -20.60777 -20.60771 -15.85832 -11.31214 -11.27797
 Alpha  occ. eigenvalues --  -11.27762 -11.27544 -11.26811 -11.26800 -11.22169
 Alpha  occ. eigenvalues --  -11.22055 -11.21798 -11.21721 -11.21587 -11.21144
 Alpha  occ. eigenvalues --   -1.59852  -1.39404  -1.19405  -1.08906  -1.08787
 Alpha  occ. eigenvalues --   -1.04819  -1.03891  -0.96358  -0.95622  -0.87370
 Alpha  occ. eigenvalues --   -0.86204  -0.82461  -0.79984  -0.78751  -0.77475
 Alpha  occ. eigenvalues --   -0.72050  -0.71177  -0.70514  -0.65598  -0.65038
 Alpha  occ. eigenvalues --   -0.64814  -0.62161  -0.61287  -0.59724  -0.57960
 Alpha  occ. eigenvalues --   -0.55672  -0.55306  -0.53184  -0.52997  -0.52934
 Alpha  occ. eigenvalues --   -0.52724  -0.50304  -0.48811  -0.48803  -0.48278
 Alpha  occ. eigenvalues --   -0.47033  -0.46241  -0.46163  -0.44800  -0.44179
 Alpha  occ. eigenvalues --   -0.37382  -0.36339
 Alpha virt. eigenvalues --    0.05000   0.11191   0.16407   0.19343   0.22853
 Alpha virt. eigenvalues --    0.23991   0.24888   0.26359   0.27543   0.28123
 Alpha virt. eigenvalues --    0.29785   0.30938   0.31310   0.31720   0.31986

 Mulliken charges:
               1
     1  C   -0.170723
     2  C   -0.218394
     3  C   -0.170952
     4  C    0.157645
     5  C   -0.172797
     6  C   -0.221442
     7  H    0.225912
     8  H    0.223649
     9  H    0.275824
    10  H    0.279213
    11  H    0.227087
    12  N    0.488360
    13  O   -0.460058
    14  O   -0.460554
    15  C   -0.301177
    16  C   -0.299927
    17  C   -0.475430
    18  H    0.155664
    19  H    0.137479
    20  H    0.155826
    21  H    0.149796
    22  H    0.151079
    23  H    0.158422
    24  H    0.162208
    25  C   -0.297946
    26  C   -0.307248
    27  C   -0.475765
    28  H    0.152655
    29  H    0.146844
    30  H    0.157680
    31  H    0.152992
    32  H    0.152938
    33  H    0.155619
    34  H    0.165520
 Sum of Mulliken charges =  -0.00000

 Dipole moment (field-independent basis, Debye):
    X=             -1.8177    Y=             -3.8945    Z=              2.8087  Tot=              5.1342
 Quadrupole moment (field-independent basis, Debye-Ang):
   XX=            -98.9611   YY=            -93.2745   ZZ=            -96.6050
   XY=            -11.0974   XZ=              9.9753   YZ=             -0.7563

 Normal termination of Gaussian 16 at Thu May  6 14:05:09 2021.
