 Gaussian 16, Revision A.03,
 Gaussian 16:  EM64L-G16RevA.03 25-Dec-2016

 -------------
 #p 6-31g* mp2
 -------------

 ------------------------------------------------------
 Input file generated by CHIRIPA (05-May-2021 14:53:16)
 ------------------------------------------------------
 Symbolic Z-matrix:
 Charge =  0 Multiplicity = 1

                         Standard orientation:
 ---------------------------------------------------------------------
 Center     Atomic      Atomic             Coordinates (Angstroms)
 Number     Number       Type             X           Y           Z
 ---------------------------------------------------------------------
      1          6           0        3.574125    0.768419   -0.169808
      2          6           0        4.833709    1.634866   -0.143291
      3          6           0        4.522513    3.131488   -0.176037
      4          1           0        2.993643    1.004020   -1.072292
      5          1           0        2.939006    1.030658    0.687659
      6          1           0        5.466911    1.370104   -0.999779
      7          1           0        5.411356    1.397037    0.759138
      8          1           0        3.910558    3.416667    0.685812
      9          1           0        3.966429    3.389580   -1.083098
     10          1           0        5.437150    3.732248   -0.156347
     11          6           0        3.868893   -0.730180   -0.137550
     12          6           0        2.609309   -1.596627   -0.164066
     13          6           0        2.920505   -3.093250   -0.131320
     14          1           0        4.504013   -0.992419   -0.995016
     15          1           0        4.449375   -0.965782    0.764935
     16          1           0        2.031663   -1.358799   -1.066495
     17          1           0        1.976107   -1.331865    0.692421
     18          1           0        3.476589   -3.351342    0.775741
     19          1           0        3.532461   -3.378428   -0.993170
     20          1           0        2.005868   -3.694009   -0.151010
     21          6           0       -4.762325    1.610911   -0.410882
     22          6           0       -4.755981    0.340633   -0.996433
     23          6           0       -3.733247   -0.568343   -0.709508
     24          6           0       -2.728105   -0.172118    0.171391
     25          6           0       -2.706622    1.086302    0.770729
     26          6           0       -3.739429    1.979044    0.469280
     27          1           0       -5.560722    2.310720   -0.639413
     28          1           0       -5.549081    0.052013   -1.680345
     29          1           0       -3.703803   -1.558095   -1.148761
     30          1           0       -1.902382    1.345314    1.448614
     31          1           0       -3.741785    2.964894    0.925502
     32          7           0       -1.640050   -1.125816    0.482834
     33          8           0       -0.766033   -0.752513    1.262176
     34          8           0       -1.681853   -2.228571   -0.058297
 ---------------------------------------------------------------------

 SCF Done:  E(RHF) =  -669.536295501     A.U. after   15 cycles
 E2 =    -0.2091267855D+01 EUMP2 =    -0.67162756335630D+03

 The electronic state is 1-A.
 Alpha  occ. eigenvalues --  -20.60969 -20.60954 -15.85987 -11.31302 -11.27862
 Alpha  occ. eigenvalues --  -11.27859 -11.27598 -11.26868 -11.26858 -11.20979
 Alpha  occ. eigenvalues --  -11.20639 -11.20530 -11.20271 -11.19949 -11.19620
 Alpha  occ. eigenvalues --   -1.60013  -1.39572  -1.19467  -1.08873  -1.07434
 Alpha  occ. eigenvalues --   -1.04863  -1.02485  -0.95717  -0.94992  -0.86263
 Alpha  occ. eigenvalues --   -0.86023  -0.82553  -0.78602  -0.77606  -0.77153
 Alpha  occ. eigenvalues --   -0.72210  -0.71322  -0.70577  -0.65124  -0.64866
 Alpha  occ. eigenvalues --   -0.64077  -0.62210  -0.59891  -0.58403  -0.56545
 Alpha  occ. eigenvalues --   -0.55366  -0.54315  -0.53194  -0.52955  -0.51684
 Alpha  occ. eigenvalues --   -0.51414  -0.49077  -0.48960  -0.48919  -0.46889
 Alpha  occ. eigenvalues --   -0.45655  -0.45087  -0.44709  -0.44406  -0.42745
 Alpha  occ. eigenvalues --   -0.37445  -0.36463
 Alpha virt. eigenvalues --    0.04910   0.11192   0.16401   0.21323   0.23758
 Alpha virt. eigenvalues --    0.25365   0.27243   0.27597   0.28114   0.28627
 Alpha virt. eigenvalues --    0.28963   0.30905   0.32313   0.32429   0.32713

 Mulliken charges:
               1
     1  C   -0.297201
     2  C   -0.298680
     3  C   -0.474854
     4  H    0.146221
     5  H    0.151691
     6  H    0.150423
     7  H    0.151179
     8  H    0.153416
     9  H    0.153063
    10  H    0.158058
    11  C   -0.297935
    12  C   -0.305643
    13  C   -0.476792
    14  H    0.144402
    15  H    0.146805
    16  H    0.146323
    17  H    0.177995
    18  H    0.150309
    19  H    0.147051
    20  H    0.169610
    21  C   -0.170566
    22  C   -0.218594
    23  C   -0.170719
    24  C    0.158215
    25  C   -0.170548
    26  C   -0.218544
    27  H    0.226032
    28  H    0.223831
    29  H    0.275832
    30  H    0.275686
    31  H    0.223904
    32  N    0.489505
    33  O   -0.459911
    34  O   -0.459566
 Sum of Mulliken charges =  -0.00000

 Dipole moment (field-independent basis, Debye):
    X=             -4.1881    Y=              3.2962    Z=             -0.9889  Tot=              5.4206
 Quadrupole moment (field-independent basis, Debye-Ang):
   XX=            -74.7580   YY=            -95.5603   ZZ=            -92.8933
   XY=             -7.0588   XZ=              4.2556   YZ=              3.0998

 Normal termination of Gaussian 16 at Thu May  6 04:21:09 2021.
