 Gaussian 16, Revision A.03,
 Gaussian 16:  EM64L-G16RevA.03 25-Dec-2016

 -------------
 #p 6-31g* mp2
 -------------

 ------------------------------------------------------
 Input file generated by CHIRIPA (05-May-2021 14:53:14)
 ------------------------------------------------------
 Symbolic Z-matrix:
 Charge =  0 Multiplicity = 1

                         Standard orientation:
 ---------------------------------------------------------------------
 Center     Atomic      Atomic             Coordinates (Angstroms)
 Number     Number       Type             X           Y           Z
 ---------------------------------------------------------------------
      1          6           0       -3.910776    0.013303   -0.255319
      2          6           0       -3.841181   -1.467347    0.119935
      3          6           0       -5.150413   -2.208493   -0.152846
      4          1           0       -4.726876    0.489174    0.305461
      5          1           0       -4.169055    0.102919   -1.319582
      6          1           0       -3.581752   -1.554162    1.182845
      7          1           0       -3.025029   -1.939706   -0.441660
      8          1           0       -5.411319   -2.151569   -1.214585
      9          1           0       -5.971205   -1.763834    0.419150
     10          1           0       -5.078423   -3.265275    0.122631
     11          6           0       -2.609494    0.767726    0.011588
     12          6           0       -2.679089    2.248377   -0.363666
     13          6           0       -1.369858    2.989522   -0.090885
     14          1           0       -2.351215    0.678111    1.075851
     15          1           0       -1.793395    0.291855   -0.549192
     16          1           0       -3.495241    2.720736    0.197929
     17          1           0       -2.938518    2.335191   -1.426576
     18          1           0       -0.549065    2.544863   -0.662881
     19          1           0       -1.108952    2.932598    0.970854
     20          1           0       -1.441847    4.046305   -0.366362
     21          6           0        2.542376   -2.824616   -0.038540
     22          6           0        1.642356   -2.166834    0.806331
     23          6           0        1.635976   -0.771210    0.888443
     24          6           0        2.547425   -0.061511    0.108137
     25          6           0        3.456434   -0.687928   -0.743094
     26          6           0        3.444951   -2.084369   -0.809197
     27          1           0        2.540394   -3.909088   -0.096108
     28          1           0        0.940276   -2.739146    1.405989
     29          1           0        0.950060   -0.236435    1.534161
     30          1           0        4.144420   -0.090300   -1.328700
     31          1           0        4.145056   -2.592533   -1.466211
     32          7           0        2.550127    1.416405    0.186592
     33          8           0        3.363146    2.018755   -0.511126
     34          8           0        1.739173    1.944462    0.944317
 ---------------------------------------------------------------------

 SCF Done:  E(RHF) =  -669.535527582     A.U. after   15 cycles
 E2 =    -0.2092000445D+01 EUMP2 =    -0.67162752802702D+03

 The electronic state is 1-A.
 Alpha  occ. eigenvalues --  -20.60851 -20.60813 -15.85861 -11.31220 -11.27788
 Alpha  occ. eigenvalues --  -11.27777 -11.27528 -11.26802 -11.26787 -11.21747
 Alpha  occ. eigenvalues --  -11.21314 -11.21212 -11.21173 -11.20994 -11.19903
 Alpha  occ. eigenvalues --   -1.59901  -1.39456  -1.19391  -1.08791  -1.08244
 Alpha  occ. eigenvalues --   -1.04789  -1.03215  -0.95669  -0.95580  -0.86631
 Alpha  occ. eigenvalues --   -0.86187  -0.82460  -0.79322  -0.78038  -0.77490
 Alpha  occ. eigenvalues --   -0.72090  -0.71226  -0.70497  -0.65045  -0.64883
 Alpha  occ. eigenvalues --   -0.64790  -0.62134  -0.60616  -0.59090  -0.57230
 Alpha  occ. eigenvalues --   -0.55294  -0.54899  -0.53129  -0.52881  -0.52304
 Alpha  occ. eigenvalues --   -0.52025  -0.49572  -0.48857  -0.48848  -0.47618
 Alpha  occ. eigenvalues --   -0.46387  -0.45646  -0.45466  -0.44641  -0.43491
 Alpha  occ. eigenvalues --   -0.37374  -0.36388
 Alpha virt. eigenvalues --    0.05005   0.11234   0.16480   0.21147   0.22979
 Alpha virt. eigenvalues --    0.24385   0.26288   0.26904   0.27750   0.28368
 Alpha virt. eigenvalues --    0.28910   0.30817   0.31601   0.31853   0.32357

 Mulliken charges:
               1
     1  C   -0.297445
     2  C   -0.299246
     3  C   -0.475248
     4  H    0.150407
     5  H    0.150076
     6  H    0.148375
     7  H    0.148840
     8  H    0.156009
     9  H    0.156341
    10  H    0.157953
    11  C   -0.297527
    12  C   -0.301979
    13  C   -0.469533
    14  H    0.145609
    15  H    0.146755
    16  H    0.149271
    17  H    0.149092
    18  H    0.157842
    19  H    0.163196
    20  H    0.157597
    21  C   -0.170841
    22  C   -0.218824
    23  C   -0.170650
    24  C    0.157319
    25  C   -0.171072
    26  C   -0.218599
    27  H    0.225750
    28  H    0.224232
    29  H    0.276865
    30  H    0.275617
    31  H    0.223515
    32  N    0.487988
    33  O   -0.460105
    34  O   -0.457579
 Sum of Mulliken charges =  -0.00000

 Dipole moment (field-independent basis, Debye):
    X=              0.1378    Y=             -5.1013    Z=             -0.2426  Tot=              5.1090
 Quadrupole moment (field-independent basis, Debye-Ang):
   XX=            -93.4899   YY=            -94.9546   ZZ=            -92.2326
   XY=            -13.9424   XZ=             -4.0638   YZ=             -0.4010

 Normal termination of Gaussian 16 at Wed May  5 18:36:35 2021.
