 Gaussian 16, Revision A.03,
 Gaussian 16:  EM64L-G16RevA.03 25-Dec-2016

 -------------
 #p 6-31g* mp2
 -------------

 ------------------------------------------------------
 Input file generated by CHIRIPA (05-May-2021 14:57:24)
 ------------------------------------------------------
 Symbolic Z-matrix:
 Charge =  0 Multiplicity = 1

                         Standard orientation:
 ---------------------------------------------------------------------
 Center     Atomic      Atomic             Coordinates (Angstroms)
 Number     Number       Type             X           Y           Z
 ---------------------------------------------------------------------
      1          6           0        1.647342   -0.444505    0.659140
      2          6           0        2.440999    0.468485    1.361335
      3          6           0        3.792147    0.628838    1.040033
      4          6           0        4.319301   -0.143540    0.006189
      5          6           0        3.554412   -1.061451   -0.711916
      6          6           0        2.205597   -1.205218   -0.373424
      7          1           0        0.598644   -0.562629    0.915412
      8          1           0        2.010138    1.060603    2.163706
      9          1           0        4.429381    1.328342    1.567332
     10          1           0        4.012228   -1.637611   -1.506814
     11          1           0        1.591623   -1.915024   -0.920467
     12          7           0        5.748466    0.017439   -0.343058
     13          8           0        6.188987   -0.674924   -1.258050
     14          8           0        6.401062    0.832929    0.304808
     15          6           0       -2.853462    2.356895   -0.328519
     16          6           0       -4.212075    2.274578   -0.650879
     17          6           0       -4.903843    1.068088   -0.508096
     18          6           0       -4.202698   -0.041343   -0.038153
     19          6           0       -2.849120    0.008909    0.291382
     20          6           0       -2.177513    1.225791    0.140757
     21          1           0       -2.323911    3.298162   -0.442482
     22          1           0       -4.739587    3.151387   -1.015545
     23          1           0       -5.955674    0.976335   -0.750280
     24          1           0       -2.350248   -0.882208    0.652568
     25          1           0       -1.122400    1.286782    0.391879
     26          7           0       -4.924370   -1.324101    0.117157
     27          8           0       -4.283884   -2.287099    0.533147
     28          8           0       -6.116838   -1.342239   -0.180043
 ---------------------------------------------------------------------

 SCF Done:  E(RHF) =  -868.336746179     A.U. after   16 cycles
 E2 =    -0.2600037194D+01 EUMP2 =    -0.87093678337290D+03

 The electronic state is 1-A.
 Alpha  occ. eigenvalues --  -20.61446 -20.61430 -20.61220 -20.61212 -15.86499
 Alpha  occ. eigenvalues --  -15.86275 -11.31962 -11.31785 -11.28640 -11.28479
 Alpha  occ. eigenvalues --  -11.28357 -11.28313 -11.28256 -11.28240 -11.27637
 Alpha  occ. eigenvalues --  -11.27490 -11.27483 -11.27394  -1.60513  -1.60290
 Alpha  occ. eigenvalues --   -1.40066  -1.39839  -1.20136  -1.19972  -1.09500
 Alpha  occ. eigenvalues --   -1.09370  -1.05575  -1.05379  -0.96325  -0.96178
 Alpha  occ. eigenvalues --   -0.86955  -0.86784  -0.83193  -0.82976  -0.78222
 Alpha  occ. eigenvalues --   -0.77988  -0.72714  -0.72491  -0.71838  -0.71614
 Alpha  occ. eigenvalues --   -0.71285  -0.71113  -0.65793  -0.65652  -0.65581
 Alpha  occ. eigenvalues --   -0.65369  -0.62941  -0.62707  -0.56119  -0.55879
 Alpha  occ. eigenvalues --   -0.53868  -0.53788  -0.53587  -0.53473  -0.49480
 Alpha  occ. eigenvalues --   -0.49464  -0.49262  -0.49237  -0.45451  -0.45212
 Alpha  occ. eigenvalues --   -0.38089  -0.38001  -0.37173  -0.36967
 Alpha virt. eigenvalues --    0.04343   0.04492   0.10487   0.10642   0.15735
 Alpha virt. eigenvalues --    0.15892   0.17989   0.21988   0.24588   0.26125
 Alpha virt. eigenvalues --    0.27527   0.29294   0.30198   0.30694   0.32616

 Mulliken charges:
               1
     1  C   -0.175592
     2  C   -0.220748
     3  C   -0.170240
     4  C    0.159686
     5  C   -0.170350
     6  C   -0.218163
     7  H    0.220604
     8  H    0.222847
     9  H    0.277218
    10  H    0.278407
    11  H    0.227941
    12  N    0.487847
    13  O   -0.458154
    14  O   -0.459171
    15  C   -0.170497
    16  C   -0.217975
    17  C   -0.169858
    18  C    0.159889
    19  C   -0.174101
    20  C   -0.219997
    21  H    0.228612
    22  H    0.226620
    23  H    0.278141
    24  H    0.269203
    25  H    0.218452
    26  N    0.488333
    27  O   -0.461597
    28  O   -0.457356
 Sum of Mulliken charges =  -0.00000

 Dipole moment (field-independent basis, Debye):
    X=             -2.4791    Y=              3.9954    Z=              0.5506  Tot=              4.7342
 Quadrupole moment (field-independent basis, Debye-Ang):
   XX=           -164.9522   YY=           -102.2686   ZZ=           -102.8149
   XY=            -23.1431   XZ=              9.6336   YZ=              1.7243

 Normal termination of Gaussian 16 at Fri May  7 12:35:30 2021.
