 Gaussian 16, Revision A.03,
 Gaussian 16:  EM64L-G16RevA.03 25-Dec-2016

 -------------
 #p 6-31g* mp2
 -------------

 ------------------------------------------------------
 Input file generated by CHIRIPA (05-May-2021 14:57:27)
 ------------------------------------------------------
 Symbolic Z-matrix:
 Charge =  0 Multiplicity = 1

                         Standard orientation:
 ---------------------------------------------------------------------
 Center     Atomic      Atomic             Coordinates (Angstroms)
 Number     Number       Type             X           Y           Z
 ---------------------------------------------------------------------
      1          6           0        4.474769    1.832432    0.857920
      2          6           0        5.164569    0.703042    0.404957
      3          6           0        4.472232   -0.374008   -0.156452
      4          6           0        3.084027   -0.287694   -0.249866
      5          6           0        2.368324    0.823819    0.192397
      6          6           0        3.081304    1.889116    0.750384
      7          1           0        5.020611    2.664545    1.292707
      8          1           0        6.246740    0.656261    0.487202
      9          1           0        4.981160   -1.260454   -0.515093
     10          1           0        1.289428    0.841374    0.097033
     11          1           0        2.542966    2.764945    1.101325
     12          7           0        2.340153   -1.421698   -0.842393
     13          8           0        1.117256   -1.321105   -0.913396
     14          8           0        2.994087   -2.389649   -1.224594
     15          6           0       -2.860881   -2.183608    1.166054
     16          6           0       -1.829743   -1.239104    1.200539
     17          6           0       -2.010147    0.029729    0.641912
     18          6           0       -3.240052    0.321645    0.054196
     19          6           0       -4.286606   -0.597870    0.004125
     20          6           0       -4.083866   -1.860545    0.569010
     21          1           0       -2.712063   -3.166876    1.602440
     22          1           0       -0.878902   -1.487227    1.663551
     23          1           0       -1.228822    0.779918    0.654745
     24          1           0       -5.223327   -0.321331   -0.464380
     25          1           0       -4.886436   -2.592069    0.540775
     26          7           0       -3.442860    1.661642   -0.540510
     27          8           0       -4.535800    1.894171   -1.052420
     28          8           0       -2.505043    2.454032   -0.483470
 ---------------------------------------------------------------------

 SCF Done:  E(RHF) =  -868.338415514     A.U. after   16 cycles
 E2 =    -0.2600193678D+01 EUMP2 =    -0.87093860919202D+03

 The electronic state is 1-A.
 Alpha  occ. eigenvalues --  -20.61290 -20.61266 -20.60503 -20.60478 -15.86310
 Alpha  occ. eigenvalues --  -15.85538 -11.31570 -11.30697 -11.28152 -11.28090
 Alpha  occ. eigenvalues --  -11.27785 -11.27289 -11.27210 -11.27081 -11.27060
 Alpha  occ. eigenvalues --  -11.26872 -11.26212 -11.26146  -1.60351  -1.59565
 Alpha  occ. eigenvalues --   -1.39909  -1.39130  -1.19715  -1.18821  -1.09123
 Alpha  occ. eigenvalues --   -1.08250  -1.05097  -1.04198  -0.95984  -0.95136
 Alpha  occ. eigenvalues --   -0.86502  -0.85616  -0.82816  -0.81980  -0.77905
 Alpha  occ. eigenvalues --   -0.77058  -0.72530  -0.71772  -0.71671  -0.70873
 Alpha  occ. eigenvalues --   -0.70828  -0.69960  -0.65363  -0.65095  -0.64484
 Alpha  occ. eigenvalues --   -0.64215  -0.62484  -0.61553  -0.55584  -0.54710
 Alpha  occ. eigenvalues --   -0.53432  -0.53187  -0.52501  -0.52302  -0.49303
 Alpha  occ. eigenvalues --   -0.49276  -0.48539  -0.48496  -0.45333  -0.44582
 Alpha  occ. eigenvalues --   -0.37676  -0.36760  -0.36692  -0.35728
 Alpha virt. eigenvalues --    0.04605   0.05467   0.10943   0.11879   0.16135
 Alpha virt. eigenvalues --    0.17045   0.19652   0.22219   0.25021   0.27536
 Alpha virt. eigenvalues --    0.28322   0.29514   0.31093   0.31371   0.31986

 Mulliken charges:
               1
     1  C   -0.170338
     2  C   -0.218450
     3  C   -0.170338
     4  C    0.157026
     5  C   -0.177477
     6  C   -0.220430
     7  H    0.227879
     8  H    0.224842
     9  H    0.276050
    10  H    0.278899
    11  H    0.228684
    12  N    0.487481
    13  O   -0.464961
    14  O   -0.458129
    15  C   -0.170653
    16  C   -0.204908
    17  C   -0.167181
    18  C    0.159448
    19  C   -0.171525
    20  C   -0.217877
    21  H    0.225731
    22  H    0.223838
    23  H    0.265420
    24  H    0.273674
    25  H    0.222042
    26  N    0.488421
    27  O   -0.460307
    28  O   -0.466859
 Sum of Mulliken charges =  -0.00000

 Dipole moment (field-independent basis, Debye):
    X=              3.5553    Y=             -0.8424    Z=              4.1819  Tot=              5.5532
 Quadrupole moment (field-independent basis, Debye-Ang):
   XX=            -84.9884   YY=           -109.5274   ZZ=           -106.7952
   XY=             26.9749   XZ=             -0.1352   YZ=             -0.3542

 Normal termination of Gaussian 16 at Thu May  6 00:27:25 2021.
