 Gaussian 16, Revision A.03,
 Gaussian 16:  EM64L-G16RevA.03 25-Dec-2016

 -------------
 #p 6-31g* mp2
 -------------

 ------------------------------------------------------
 Input file generated by CHIRIPA (05-May-2021 14:57:23)
 ------------------------------------------------------
 Symbolic Z-matrix:
 Charge =  0 Multiplicity = 1

                         Standard orientation:
 ---------------------------------------------------------------------
 Center     Atomic      Atomic             Coordinates (Angstroms)
 Number     Number       Type             X           Y           Z
 ---------------------------------------------------------------------
      1          6           0       -4.507195    1.031257    0.812123
      2          6           0       -3.952397   -0.063801    1.482622
      3          6           0       -2.875450   -0.763408    0.930099
      4          6           0       -2.375947   -0.338766   -0.300131
      5          6           0       -2.907022    0.748360   -0.992523
      6          6           0       -3.983659    1.433134   -0.421136
      7          1           0       -5.343673    1.568968    1.248664
      8          1           0       -4.356937   -0.378146    2.440526
      9          1           0       -2.426812   -1.614614    1.427684
     10          1           0       -2.482210    1.038089   -1.945944
     11          1           0       -4.412516    2.283209   -0.944107
     12          7           0       -1.235995   -1.071557   -0.895048
     13          8           0       -0.814123   -0.677500   -1.980119
     14          8           0       -0.785959   -2.026101   -0.265008
     15          6           0        2.673714    2.728941   -0.019251
     16          6           0        2.666158    1.924995   -1.163864
     17          6           0        2.605497    0.532653   -1.053177
     18          6           0        2.553201   -0.024756    0.223479
     19          6           0        2.559179    0.749401    1.382761
     20          6           0        2.620295    2.139617    1.248172
     21          1           0        2.721013    3.809720   -0.114519
     22          1           0        2.707558    2.379920   -2.149446
     23          1           0        2.598280   -0.113411   -1.922640
     24          1           0        2.517007    0.266917    2.351703
     25          1           0        2.626021    2.761489    2.138839
     26          7           0        2.488742   -1.497641    0.353310
     27          8           0        2.443431   -1.964243    1.489473
     28          8           0        2.484750   -2.157597   -0.683550
 ---------------------------------------------------------------------

 SCF Done:  E(RHF) =  -868.336734412     A.U. after   16 cycles
 E2 =    -0.2602014587D+01 EUMP2 =    -0.87093874899914D+03

 The electronic state is 1-A.
 Alpha  occ. eigenvalues --  -20.60621 -20.60574 -20.59413 -20.59289 -15.85638
 Alpha  occ. eigenvalues --  -15.84426 -11.31112 -11.30190 -11.27728 -11.27655
 Alpha  occ. eigenvalues --  -11.27472 -11.26902 -11.26760 -11.26740 -11.26717
 Alpha  occ. eigenvalues --  -11.26713 -11.26003 -11.25902  -1.59670  -1.58396
 Alpha  occ. eigenvalues --   -1.39219  -1.37951  -1.19299  -1.18431  -1.08676
 Alpha  occ. eigenvalues --   -1.07758  -1.04717  -1.03887  -0.95489  -0.94517
 Alpha  occ. eigenvalues --   -0.86110  -0.85269  -0.82317  -0.81355  -0.77347
 Alpha  occ. eigenvalues --   -0.76309  -0.71869  -0.71103  -0.70672  -0.70407
 Alpha  occ. eigenvalues --   -0.69588  -0.69545  -0.64948  -0.64719  -0.64076
 Alpha  occ. eigenvalues --   -0.63906  -0.62058  -0.61217  -0.55219  -0.54418
 Alpha  occ. eigenvalues --   -0.53046  -0.52809  -0.52214  -0.51987  -0.48625
 Alpha  occ. eigenvalues --   -0.48584  -0.47449  -0.47373  -0.44602  -0.43232
 Alpha  occ. eigenvalues --   -0.37296  -0.36468  -0.36327  -0.35494
 Alpha virt. eigenvalues --    0.05157   0.06257   0.11325   0.12145   0.16623
 Alpha virt. eigenvalues --    0.17653   0.21452   0.22169   0.27357   0.28055
 Alpha virt. eigenvalues --    0.28368   0.29131   0.30987   0.31664   0.32631

 Mulliken charges:
               1
     1  C   -0.171315
     2  C   -0.219003
     3  C   -0.171425
     4  C    0.158373
     5  C   -0.171132
     6  C   -0.218954
     7  H    0.224792
     8  H    0.223884
     9  H    0.280170
    10  H    0.273265
    11  H    0.221800
    12  N    0.485391
    13  O   -0.464649
    14  O   -0.449197
    15  C   -0.173139
    16  C   -0.220779
    17  C   -0.161490
    18  C    0.154314
    19  C   -0.173558
    20  C   -0.220067
    21  H    0.220455
    22  H    0.220849
    23  H    0.283438
    24  H    0.272289
    25  H    0.218171
    26  N    0.493719
    27  O   -0.468879
    28  O   -0.447322
 Sum of Mulliken charges =  -0.00000

 Dipole moment (field-independent basis, Debye):
    X=             -3.8892    Y=              7.3405    Z=              1.4540  Tot=              8.4334
 Quadrupole moment (field-independent basis, Debye-Ang):
   XX=            -86.7138   YY=           -106.1824   ZZ=            -98.7219
   XY=              7.9473   XZ=             -5.8198   YZ=             -2.5445

 Normal termination of Gaussian 16 at Fri May  7 07:59:04 2021.
