 Gaussian 16, Revision A.03,
 Gaussian 16:  EM64L-G16RevA.03 25-Dec-2016

 -------------
 #p 6-31g* mp2
 -------------

 ------------------------------------------------------
 Input file generated by CHIRIPA (05-May-2021 14:51:11)
 ------------------------------------------------------
 Symbolic Z-matrix:
 Charge =  0 Multiplicity = 1

                         Standard orientation:
 ---------------------------------------------------------------------
 Center     Atomic      Atomic             Coordinates (Angstroms)
 Number     Number       Type             X           Y           Z
 ---------------------------------------------------------------------
      1          6           0       -3.866127   -0.019345   -0.045886
      2          6           0       -2.852945   -1.118637   -0.366827
      3          6           0       -1.414502   -0.602194   -0.411123
      4          1           0       -3.783997    0.777151   -0.798078
      5          1           0       -3.609038    0.435779    0.920635
      6          1           0       -3.112676   -1.572486   -1.331802
      7          1           0       -2.937628   -1.912699    0.386108
      8          1           0       -1.131512   -0.167188    0.552873
      9          1           0       -1.307554    0.174957   -1.174797
     10          1           0       -0.706828   -1.404502   -0.642119
     11          6           0       -5.308579   -0.520117    0.001922
     12          6           0       -6.321762    0.579176    0.322863
     13          6           0       -7.760205    0.062733    0.367159
     14          1           0       -5.565668   -0.975240   -0.964599
     15          1           0       -5.390709   -1.316613    0.754114
     16          1           0       -6.237078    1.373237   -0.430071
     17          1           0       -6.062030    1.033025    1.287838
     18          1           0       -7.867152   -0.714419    1.130834
     19          1           0       -8.043195   -0.372273   -0.596837
     20          1           0       -8.467878    0.865041    0.598156
     21          6           0        5.230339   -0.006687   -0.283950
     22          6           0        6.299365   -0.345830    0.755353
     23          6           0        7.579813   -0.897707    0.127914
     24          1           0        4.995811   -0.907855   -0.866907
     25          1           0        5.638011    0.727008   -0.993097
     26          1           0        5.889336   -1.077628    1.463141
     27          1           0        6.531237    0.556204    1.336030
     28          1           0        8.014903   -0.169118   -0.563790
     29          1           0        7.369355   -1.812232   -0.435958
     30          1           0        8.330432   -1.133419    0.888750
     31          6           0        3.944367    0.546149    0.327914
     32          6           0        2.875341    0.885291   -0.711389
     33          6           0        1.594893    1.437168   -0.083951
     34          1           0        3.536694   -0.187547    1.037060
     35          1           0        4.178895    1.447316    0.910870
     36          1           0        2.643470   -0.016743   -1.292067
     37          1           0        3.285370    1.617089   -1.419177
     38          1           0        1.805352    2.351694    0.479922
     39          1           0        1.159804    0.708579    0.607754
     40          1           0        0.844275    1.672880   -0.844787
 ---------------------------------------------------------------------

 SCF Done:  E(RHF) =  -470.732460887     A.U. after   11 cycles
 E2 =    -0.1582733342D+01 EUMP2 =    -0.47231519422923D+03

 The electronic state is 1-A.
 Alpha  occ. eigenvalues --  -11.21588 -11.21572 -11.21554 -11.21509 -11.21385
 Alpha  occ. eigenvalues --  -11.21356 -11.21326 -11.21294 -11.21061 -11.21049
 Alpha  occ. eigenvalues --  -11.21008 -11.20886  -1.08411  -1.08370  -1.03532
 Alpha  occ. eigenvalues --   -1.03437  -0.96034  -0.95838  -0.87106  -0.86804
 Alpha  occ. eigenvalues --   -0.79674  -0.79430  -0.78230  -0.78177  -0.65046
 Alpha  occ. eigenvalues --   -0.65001  -0.60953  -0.60833  -0.59325  -0.59294
 Alpha  occ. eigenvalues --   -0.57593  -0.57512  -0.55355  -0.55128  -0.52823
 Alpha  occ. eigenvalues --   -0.52611  -0.52345  -0.52197  -0.50012  -0.49726
 Alpha  occ. eigenvalues --   -0.47876  -0.47838  -0.46663  -0.46471  -0.45779
 Alpha  occ. eigenvalues --   -0.45725  -0.45689  -0.45598  -0.43765  -0.43688
 Alpha virt. eigenvalues --    0.22287   0.22967   0.23577   0.24789   0.26175
 Alpha virt. eigenvalues --    0.26597   0.26940   0.27495   0.27662   0.29248
 Alpha virt. eigenvalues --    0.29330   0.31001   0.31453   0.32207   0.32350

 Mulliken charges:
               1
     1  C   -0.298204
     2  C   -0.301126
     3  C   -0.474280
     4  H    0.149464
     5  H    0.149625
     6  H    0.151417
     7  H    0.151411
     8  H    0.156950
     9  H    0.156035
    10  H    0.159034
    11  C   -0.298199
    12  C   -0.299622
    13  C   -0.475690
    14  H    0.149453
    15  H    0.149567
    16  H    0.151913
    17  H    0.151942
    18  H    0.155142
    19  H    0.155143
    20  H    0.160219
    21  C   -0.298187
    22  C   -0.299594
    23  C   -0.475664
    24  H    0.149484
    25  H    0.149426
    26  H    0.151808
    27  H    0.151867
    28  H    0.155138
    29  H    0.155107
    30  H    0.160130
    31  C   -0.298426
    32  C   -0.300154
    33  C   -0.476913
    34  H    0.149370
    35  H    0.149453
    36  H    0.151914
    37  H    0.151223
    38  H    0.153202
    39  H    0.159011
    40  H    0.161614
 Sum of Mulliken charges =  -0.00000

 Dipole moment (field-independent basis, Debye):
    X=             -0.0184    Y=              0.0033    Z=              0.0035  Tot=              0.0190
 Quadrupole moment (field-independent basis, Debye-Ang):
   XX=            -87.1035   YY=            -84.1346   ZZ=            -83.8796
   XY=              0.4333   XZ=              0.4409   YZ=             -0.4010

 Normal termination of Gaussian 16 at Thu May  6 00:40:29 2021.
