 Gaussian 16, Revision A.03,
 Gaussian 16:  EM64L-G16RevA.03 25-Dec-2016

 -------------
 #p 6-31g* mp2
 -------------

 ------------------------------------------------------
 Input file generated by CHIRIPA (05-May-2021 14:51:11)
 ------------------------------------------------------
 Symbolic Z-matrix:
 Charge =  0 Multiplicity = 1

                         Standard orientation:
 ---------------------------------------------------------------------
 Center     Atomic      Atomic             Coordinates (Angstroms)
 Number     Number       Type             X           Y           Z
 ---------------------------------------------------------------------
      1          6           0        2.533252    0.797715   -0.442467
      2          6           0        2.461054    2.182376    0.202117
      3          6           0        1.122208    2.879167   -0.042354
      4          1           0        2.360241    0.893846   -1.523101
      5          1           0        1.717631    0.175026   -0.049509
      6          1           0        3.277403    2.801830   -0.190907
      7          1           0        2.634448    2.082960    1.281314
      8          1           0        0.298352    2.284611    0.365526
      9          1           0        0.944960    3.007565   -1.115060
     10          1           0        1.092309    3.867377    0.427120
     11          6           0        3.865646    0.088527   -0.206866
     12          6           0        3.937844   -1.296133   -0.851450
     13          6           0        5.276690   -1.992924   -0.606979
     14          1           0        4.681267    0.711217   -0.599824
     15          1           0        4.038658   -0.007603    0.873768
     16          1           0        3.764450   -1.196718   -1.930647
     17          1           0        3.121496   -1.915587   -0.458426
     18          1           0        5.453938   -2.121322    0.465727
     19          1           0        6.100546   -1.398369   -1.014859
     20          1           0        5.306590   -2.981135   -1.076453
     21          6           0       -3.839339   -0.075323    0.127949
     22          6           0       -4.525449   -0.668215   -1.103195
     23          6           0       -5.804174    0.078385   -1.484308
     24          1           0       -4.540471   -0.090677    0.973599
     25          1           0       -3.604876    0.980786   -0.064548
     26          1           0       -4.757303   -1.723263   -0.908946
     27          1           0       -3.822539   -0.651624   -1.945963
     28          1           0       -5.586077    1.128373   -1.704675
     29          1           0       -6.526153    0.050644   -0.661766
     30          1           0       -6.278340   -0.362103   -2.366916
     31          6           0       -2.559559   -0.810919    0.521384
     32          6           0       -1.873449   -0.218028    1.752529
     33          6           0       -0.594725   -0.964628    2.133641
     34          1           0       -2.794023   -1.867029    0.713882
     35          1           0       -1.858428   -0.795565   -0.324266
     36          1           0       -2.576360   -0.234619    2.595296
     37          1           0       -1.641595    0.837020    1.558279
     38          1           0        0.127255   -0.936887    1.311099
     39          1           0       -0.812821   -2.014615    2.354008
     40          1           0       -0.120558   -0.524139    3.016249
 ---------------------------------------------------------------------

 SCF Done:  E(RHF) =  -470.733229898     A.U. after   11 cycles
 E2 =    -0.1583432218D+01 EUMP2 =    -0.47231666211604D+03

 The electronic state is 1-A.
 Alpha  occ. eigenvalues --  -11.21657 -11.21616 -11.21602 -11.21600 -11.21421
 Alpha  occ. eigenvalues --  -11.21408 -11.21359 -11.21349 -11.21137 -11.21104
 Alpha  occ. eigenvalues --  -11.21066 -11.21064  -1.08463  -1.08430  -1.03574
 Alpha  occ. eigenvalues --   -1.03525  -0.96014  -0.95988  -0.87048  -0.86988
 Alpha  occ. eigenvalues --   -0.79625  -0.79602  -0.78283  -0.78239  -0.65222
 Alpha  occ. eigenvalues --   -0.64958  -0.61114  -0.60784  -0.59376  -0.59354
 Alpha  occ. eigenvalues --   -0.57665  -0.57563  -0.55373  -0.55224  -0.52704
 Alpha  occ. eigenvalues --   -0.52684  -0.52474  -0.52392  -0.50127  -0.49782
 Alpha  occ. eigenvalues --   -0.48030  -0.47864  -0.46679  -0.46624  -0.45921
 Alpha  occ. eigenvalues --   -0.45767  -0.45722  -0.45502  -0.43810  -0.43793
 Alpha virt. eigenvalues --    0.19644   0.22919   0.23794   0.24883   0.25640
 Alpha virt. eigenvalues --    0.26036   0.27045   0.27687   0.28565   0.29110
 Alpha virt. eigenvalues --    0.30475   0.31581   0.31674   0.31838   0.32048

 Mulliken charges:
               1
     1  C   -0.306638
     2  C   -0.298770
     3  C   -0.480599
     4  H    0.149448
     5  H    0.156866
     6  H    0.152096
     7  H    0.152352
     8  H    0.158873
     9  H    0.155042
    10  H    0.160527
    11  C   -0.297806
    12  C   -0.299971
    13  C   -0.475714
    14  H    0.149561
    15  H    0.150052
    16  H    0.151821
    17  H    0.151969
    18  H    0.155398
    19  H    0.155139
    20  H    0.160287
    21  C   -0.298465
    22  C   -0.299715
    23  C   -0.475756
    24  H    0.149633
    25  H    0.149989
    26  H    0.151855
    27  H    0.152186
    28  H    0.155367
    29  H    0.155135
    30  H    0.160255
    31  C   -0.298573
    32  C   -0.303626
    33  C   -0.482477
    34  H    0.149651
    35  H    0.150095
    36  H    0.152619
    37  H    0.155178
    38  H    0.160552
    39  H    0.155885
    40  H    0.160281
 Sum of Mulliken charges =  -0.00000

 Dipole moment (field-independent basis, Debye):
    X=             -0.0067    Y=             -0.0056    Z=              0.0065  Tot=              0.0109
 Quadrupole moment (field-independent basis, Debye-Ang):
   XX=            -86.0207   YY=            -84.8213   ZZ=            -83.8476
   XY=              1.4825   XZ=             -1.0946   YZ=             -0.5110

 Normal termination of Gaussian 16 at Wed May  5 19:53:13 2021.
