 Gaussian 16, Revision A.03,
 Gaussian 16:  EM64L-G16RevA.03 25-Dec-2016

 -------------
 #p 6-31g* mp2
 -------------

 ------------------------------------------------------
 Input file generated by CHIRIPA (05-May-2021 14:53:16)
 ------------------------------------------------------
 Symbolic Z-matrix:
 Charge =  0 Multiplicity = 1

                         Standard orientation:
 ---------------------------------------------------------------------
 Center     Atomic      Atomic             Coordinates (Angstroms)
 Number     Number       Type             X           Y           Z
 ---------------------------------------------------------------------
      1          6           0       -2.938974   -0.318248   -0.290497
      2          6           0       -2.003616    0.593147   -1.085763
      3          6           0       -0.561928    0.084463   -1.109678
      4          1           0       -2.563967   -0.410166    0.738029
      5          1           0       -2.912418   -1.327484   -0.724240
      6          1           0       -2.032983    1.600703   -0.651500
      7          1           0       -2.380999    0.683060   -2.112464
      8          1           0       -0.512163   -0.911143   -1.562330
      9          1           0       -0.162170    0.011714   -0.093065
     10          1           0        0.089499    0.750973   -1.683495
     11          6           0       -4.383743    0.177005   -0.257412
     12          6           0       -5.319100   -0.734391    0.537854
     13          6           0       -6.760788   -0.225706    0.561769
     14          1           0       -4.410298    1.186241    0.176331
     15          1           0       -4.758749    0.268923   -1.285938
     16          1           0       -4.941717   -0.824303    1.564555
     17          1           0       -5.289733   -1.741947    0.103591
     18          1           0       -7.160546   -0.152957   -0.454844
     19          1           0       -6.810553    0.769900    1.014421
     20          1           0       -7.412215   -0.892216    1.135586
     21          6           0        2.255942    2.490763    0.475579
     22          6           0        2.167009    1.625881    1.571293
     23          6           0        2.499407    0.274482    1.437947
     24          6           0        2.918876   -0.180291    0.188742
     25          6           0        3.017780    0.656542   -0.921763
     26          6           0        2.680296    2.004191   -0.765264
     27          1           0        1.995752    3.539107    0.588158
     28          1           0        1.837757    2.000983    2.536144
     29          1           0        2.439642   -0.417028    2.269609
     30          1           0        3.349235    0.253372   -1.870979
     31          1           0        2.750316    2.673571   -1.617950
     32          7           0        3.273464   -1.608972    0.035319
     33          8           0        3.640281   -1.984934   -1.075867
     34          8           0        3.177856   -2.325758    1.029156
 ---------------------------------------------------------------------

 SCF Done:  E(RHF) =  -669.534159502     A.U. after   15 cycles
 E2 =    -0.2093755118D+01 EUMP2 =    -0.67162791461991D+03

 The electronic state is 1-A.
 Alpha  occ. eigenvalues --  -20.60763 -20.60758 -15.85818 -11.31187 -11.27791
 Alpha  occ. eigenvalues --  -11.27763 -11.27544 -11.26829 -11.26787 -11.21646
 Alpha  occ. eigenvalues --  -11.21645 -11.21458 -11.21386 -11.21130 -11.20904
 Alpha  occ. eigenvalues --   -1.59838  -1.39391  -1.19398  -1.08780  -1.08471
 Alpha  occ. eigenvalues --   -1.04814  -1.03553  -0.96001  -0.95608  -0.87019
 Alpha  occ. eigenvalues --   -0.86201  -0.82449  -0.79633  -0.78290  -0.77488
 Alpha  occ. eigenvalues --   -0.72040  -0.71158  -0.70504  -0.65109  -0.65050
 Alpha  occ. eigenvalues --   -0.64813  -0.62155  -0.60972  -0.59410  -0.57624
 Alpha  occ. eigenvalues --   -0.55403  -0.55305  -0.53549  -0.52900  -0.52467
 Alpha  occ. eigenvalues --   -0.52178  -0.49834  -0.48799  -0.48791  -0.47948
 Alpha  occ. eigenvalues --   -0.46636  -0.45822  -0.45757  -0.44794  -0.43818
 Alpha  occ. eigenvalues --   -0.37354  -0.36323
 Alpha virt. eigenvalues --    0.05041   0.11195   0.16477   0.21343   0.22824
 Alpha virt. eigenvalues --    0.24316   0.26598   0.27129   0.27427   0.27994
 Alpha virt. eigenvalues --    0.28328   0.30834   0.31365   0.31815   0.32201

 Mulliken charges:
               1
     1  C   -0.298208
     2  C   -0.299364
     3  C   -0.479714
     4  H    0.148475
     5  H    0.152244
     6  H    0.146708
     7  H    0.150948
     8  H    0.157604
     9  H    0.157241
    10  H    0.157289
    11  C   -0.297995
    12  C   -0.299651
    13  C   -0.475653
    14  H    0.147288
    15  H    0.149746
    16  H    0.151535
    17  H    0.153402
    18  H    0.155322
    19  H    0.154117
    20  H    0.160710
    21  C   -0.169243
    22  C   -0.217539
    23  C   -0.174739
    24  C    0.165019
    25  C   -0.168691
    26  C   -0.217870
    27  H    0.225738
    28  H    0.223546
    29  H    0.275759
    30  H    0.275820
    31  H    0.223506
    32  N    0.487810
    33  O   -0.460428
    34  O   -0.460731
 Sum of Mulliken charges =  -0.00000

 Dipole moment (field-independent basis, Debye):
    X=             -1.1372    Y=              5.0138    Z=              0.5494  Tot=              5.1705
 Quadrupole moment (field-independent basis, Debye-Ang):
   XX=           -103.8446   YY=            -96.8575   ZZ=            -89.2664
   XY=             15.8188   XZ=              0.4037   YZ=              0.4916

 Normal termination of Gaussian 16 at Thu May  6 17:14:22 2021.
