 Gaussian 16, Revision A.03,
 Gaussian 16:  EM64L-G16RevA.03 25-Dec-2016

 -------------
 #p 6-31g* mp2
 -------------

 ------------------------------------------------------
 Input file generated by CHIRIPA (05-May-2021 14:51:11)
 ------------------------------------------------------
 Symbolic Z-matrix:
 Charge =  0 Multiplicity = 1

                         Standard orientation:
 ---------------------------------------------------------------------
 Center     Atomic      Atomic             Coordinates (Angstroms)
 Number     Number       Type             X           Y           Z
 ---------------------------------------------------------------------
      1          6           0        4.376625    0.001317   -0.365862
      2          6           0        5.749527    0.289018    0.242704
      3          6           0        6.856093    0.374811   -0.808936
      4          1           0        4.422550   -0.940542   -0.929544
      5          1           0        4.133009    0.788842   -1.092396
      6          1           0        5.989874   -0.498069    0.968888
      7          1           0        5.700278    1.230204    0.805161
      8          1           0        6.643001    1.172212   -1.528202
      9          1           0        6.934241   -0.565881   -1.363545
     10          1           0        7.829010    0.581118   -0.352065
     11          6           0        3.260033   -0.087374    0.672928
     12          6           0        1.887130   -0.375074    0.064363
     13          6           0        0.780564   -0.460868    1.116002
     14          1           0        3.503648   -0.874898    1.399462
     15          1           0        3.214108    0.854486    1.236610
     16          1           0        1.936379   -1.316260   -0.498095
     17          1           0        1.646784    0.412013   -0.661822
     18          1           0        0.702416    0.479824    1.670611
     19          1           0        0.993657   -1.258269    1.835268
     20          1           0       -0.192353   -0.667174    0.659131
     21          6           0       -4.227420    0.677572   -0.037642
     22          6           0       -3.422363    1.962494   -0.234723
     23          6           0       -4.254496    3.223427    0.000647
     24          1           0       -5.088127    0.683337   -0.720354
     25          1           0       -4.637180    0.662598    0.981803
     26          1           0       -3.013094    1.974388   -1.253042
     27          1           0       -2.563366    1.953581    0.448402
     28          1           0       -4.650886    3.238492    1.021063
     29          1           0       -5.103168    3.259417   -0.690048
     30          1           0       -3.659396    4.130256   -0.145561
     31          6           0       -3.409237   -0.591515   -0.269424
     32          6           0       -4.214295   -1.876439   -0.072343
     33          6           0       -3.382161   -3.137370   -0.307714
     34          1           0       -2.999478   -0.576542   -1.288869
     35          1           0       -2.548531   -0.597282    0.413288
     36          1           0       -5.073293   -1.867525   -0.755469
     37          1           0       -4.623564   -1.888332    0.945976
     38          1           0       -2.533489   -3.173360    0.382982
     39          1           0       -2.985772   -3.152435   -1.328130
     40          1           0       -3.977262   -4.044199   -0.161505
 ---------------------------------------------------------------------

 SCF Done:  E(RHF) =  -470.733360128     A.U. after   11 cycles
 E2 =    -0.1582594645D+01 EUMP2 =    -0.47231595477259D+03

 The electronic state is 1-A.
 Alpha  occ. eigenvalues --  -11.21601 -11.21596 -11.21591 -11.21588 -11.21400
 Alpha  occ. eigenvalues --  -11.21396 -11.21341 -11.21336 -11.21071 -11.21067
 Alpha  occ. eigenvalues --  -11.21066 -11.21051  -1.08436  -1.08416  -1.03531
 Alpha  occ. eigenvalues --   -1.03516  -0.95994  -0.95958  -0.87017  -0.86971
 Alpha  occ. eigenvalues --   -0.79610  -0.79566  -0.78258  -0.78225  -0.65072
 Alpha  occ. eigenvalues --   -0.65048  -0.60934  -0.60908  -0.59407  -0.59298
 Alpha  occ. eigenvalues --   -0.57659  -0.57518  -0.55277  -0.55249  -0.52762
 Alpha  occ. eigenvalues --   -0.52648  -0.52442  -0.52319  -0.49921  -0.49910
 Alpha  occ. eigenvalues --   -0.47971  -0.47851  -0.46634  -0.46601  -0.45796
 Alpha  occ. eigenvalues --   -0.45762  -0.45716  -0.45693  -0.43791  -0.43697
 Alpha virt. eigenvalues --    0.21644   0.23072   0.23797   0.24428   0.26007
 Alpha virt. eigenvalues --    0.26660   0.27036   0.27515   0.27975   0.29039
 Alpha virt. eigenvalues --    0.30748   0.31445   0.31778   0.31925   0.32007

 Mulliken charges:
               1
     1  C   -0.298225
     2  C   -0.299621
     3  C   -0.475698
     4  H    0.149670
     5  H    0.149526
     6  H    0.151911
     7  H    0.151910
     8  H    0.155172
     9  H    0.155184
    10  H    0.160226
    11  C   -0.298593
    12  C   -0.298695
    13  C   -0.484465
    14  H    0.149445
    15  H    0.149542
    16  H    0.152096
    17  H    0.152250
    18  H    0.154572
    19  H    0.154785
    20  H    0.168423
    21  C   -0.297517
    22  C   -0.300272
    23  C   -0.475692
    24  H    0.149649
    25  H    0.149544
    26  H    0.151695
    27  H    0.152775
    28  H    0.155231
    29  H    0.155159
    30  H    0.160123
    31  C   -0.306976
    32  C   -0.298932
    33  C   -0.476508
    34  H    0.149118
    35  H    0.158074
    36  H    0.151975
    37  H    0.151974
    38  H    0.155691
    39  H    0.155084
    40  H    0.160389
 Sum of Mulliken charges =  -0.00000

 Dipole moment (field-independent basis, Debye):
    X=             -0.0116    Y=             -0.0038    Z=             -0.0024  Tot=              0.0124
 Quadrupole moment (field-independent basis, Debye-Ang):
   XX=            -85.7710   YY=            -84.7840   ZZ=            -84.2410
   XY=              0.2189   XZ=              0.8774   YZ=             -0.1875

 Normal termination of Gaussian 16 at Wed May  5 21:26:59 2021.
