 Gaussian 16, Revision A.03,
 Gaussian 16:  EM64L-G16RevA.03 25-Dec-2016

 -------------
 #p 6-31g* mp2
 -------------

 ------------------------------------------------------
 Input file generated by CHIRIPA (05-May-2021 14:57:22)
 ------------------------------------------------------
 Symbolic Z-matrix:
 Charge =  0 Multiplicity = 1

                         Standard orientation:
 ---------------------------------------------------------------------
 Center     Atomic      Atomic             Coordinates (Angstroms)
 Number     Number       Type             X           Y           Z
 ---------------------------------------------------------------------
      1          6           0       -1.409342    2.160732   -1.457456
      2          6           0       -2.181449    2.067155   -0.294865
      3          6           0       -2.426625    0.824291    0.296509
      4          6           0       -1.881810   -0.309637   -0.304052
      5          6           0       -1.108530   -0.249002   -1.462349
      6          6           0       -0.876287    1.004393   -2.036466
      7          1           0       -1.223907    3.130310   -1.910147
      8          1           0       -2.596695    2.963504    0.156992
      9          1           0       -3.020825    0.723083    1.196566
     10          1           0       -0.707962   -1.160226   -1.889706
     11          1           0       -0.276288    1.074051   -2.939347
     12          7           0       -2.134522   -1.630977    0.312875
     13          8           0       -1.643251   -2.615025   -0.235704
     14          8           0       -2.819082   -1.657574    1.333319
     15          6           0        1.061638    2.218749    1.517568
     16          6           0        0.716737    0.977402    2.062195
     17          6           0        1.142547   -0.207527    1.454595
     18          6           0        1.915425   -0.113755    0.298241
     19          6           0        2.275449    1.107914   -0.268500
     20          6           0        1.838524    2.279936    0.356007
     21          1           0        0.726541    3.134217    1.996133
     22          1           0        0.113503    0.926847    2.964192
     23          1           0        0.889999   -1.181876    1.854949
     24          1           0        2.877905    1.126333   -1.168570
     25          1           0        2.107894    3.242586   -0.069188
     26          7           0        2.372094   -1.361354   -0.353947
     27          8           0        3.052053   -1.251744   -1.371925
     28          8           0        2.041427   -2.425209    0.165195
 ---------------------------------------------------------------------

 SCF Done:  E(RHF) =  -868.331944944     A.U. after   16 cycles
 E2 =    -0.2610987727D+01 EUMP2 =    -0.87094293267082D+03

 The electronic state is 1-A.
 Alpha  occ. eigenvalues --  -20.60899 -20.60841 -20.60789 -20.60731 -15.85872
 Alpha  occ. eigenvalues --  -15.85820 -11.31260 -11.31222 -11.27916 -11.27890
 Alpha  occ. eigenvalues --  -11.27829 -11.27779 -11.27698 -11.27682 -11.26976
 Alpha  occ. eigenvalues --  -11.26962 -11.26900 -11.26870  -1.59928  -1.59871
 Alpha  occ. eigenvalues --   -1.39473  -1.39412  -1.19664  -1.19334  -1.08952
 Alpha  occ. eigenvalues --   -1.08840  -1.05000  -1.04853  -0.95733  -0.95687
 Alpha  occ. eigenvalues --   -0.86398  -0.86270  -0.82562  -0.82510  -0.77633
 Alpha  occ. eigenvalues --   -0.77496  -0.72105  -0.72037  -0.71439  -0.71123
 Alpha  occ. eigenvalues --   -0.70652  -0.70598  -0.65212  -0.65100  -0.64989
 Alpha  occ. eigenvalues --   -0.64914  -0.62324  -0.62215  -0.55478  -0.55447
 Alpha  occ. eigenvalues --   -0.54830  -0.53069  -0.52987  -0.51608  -0.48878
 Alpha  occ. eigenvalues --   -0.48865  -0.48825  -0.48783  -0.44974  -0.44659
 Alpha  occ. eigenvalues --   -0.38760  -0.38324  -0.35725  -0.35184
 Alpha virt. eigenvalues --    0.04443   0.05107   0.10289   0.11870   0.16352
 Alpha virt. eigenvalues --    0.16896   0.20473   0.21855   0.26290   0.27048
 Alpha virt. eigenvalues --    0.28343   0.28451   0.29981   0.31105   0.32068

 Mulliken charges:
               1
     1  C   -0.168046
     2  C   -0.218178
     3  C   -0.171697
     4  C    0.162472
     5  C   -0.178863
     6  C   -0.214984
     7  H    0.221505
     8  H    0.218296
     9  H    0.271436
    10  H    0.284008
    11  H    0.225224
    12  N    0.484278
    13  O   -0.448761
    14  O   -0.466731
    15  C   -0.167059
    16  C   -0.215362
    17  C   -0.180731
    18  C    0.161912
    19  C   -0.171964
    20  C   -0.217082
    21  H    0.221351
    22  H    0.225668
    23  H    0.284872
    24  H    0.271403
    25  H    0.218049
    26  N    0.484347
    27  O   -0.466966
    28  O   -0.448396
 Sum of Mulliken charges =  -0.00000

 Dipole moment (field-independent basis, Debye):
    X=             -0.6986    Y=              8.7587    Z=              0.1247  Tot=              8.7874
 Quadrupole moment (field-independent basis, Debye-Ang):
   XX=           -113.9931   YY=           -107.1829   ZZ=            -97.7180
   XY=             -0.4406   XZ=              4.0011   YZ=             -0.0340

 Normal termination of Gaussian 16 at Thu May  6 21:08:46 2021.
