 Gaussian 16, Revision A.03,
 Gaussian 16:  EM64L-G16RevA.03 25-Dec-2016

 -------------
 #p 6-31g* mp2
 -------------

 ------------------------------------------------------
 Input file generated by CHIRIPA (05-May-2021 14:57:27)
 ------------------------------------------------------
 Symbolic Z-matrix:
 Charge =  0 Multiplicity = 1

                         Standard orientation:
 ---------------------------------------------------------------------
 Center     Atomic      Atomic             Coordinates (Angstroms)
 Number     Number       Type             X           Y           Z
 ---------------------------------------------------------------------
      1          6           0       -0.579451    0.494610   -1.121622
      2          6           0       -0.799354   -0.701537   -0.430683
      3          6           0       -2.075859   -1.026536    0.037779
      4          6           0       -3.114247   -0.128277   -0.203412
      5          6           0       -2.926918    1.071182   -0.888609
      6          6           0       -1.642062    1.375599   -1.347981
      7          1           0        0.415413    0.739082   -1.482004
      8          1           0        0.024005   -1.387621   -0.253441
      9          1           0       -2.274130   -1.945751    0.575507
     10          1           0       -3.767484    1.735119   -1.050026
     11          1           0       -1.474221    2.305255   -1.884277
     12          7           0       -4.470047   -0.461444    0.287716
     13          8           0       -5.368150    0.346796    0.062339
     14          8           0       -4.608947   -1.524513    0.888740
     15          6           0        1.986290    2.259358    1.161419
     16          6           0        1.676337    1.061454    1.813705
     17          6           0        2.171951   -0.155631    1.336612
     18          6           0        2.978239   -0.137966    0.199564
     19          6           0        3.304863    1.038939   -0.472373
     20          6           0        2.798133    2.244304    0.022470
     21          1           0        1.596967    3.200266    1.538929
     22          1           0        1.046086    1.070125    2.698439
     23          1           0        1.947712   -1.097651    1.822136
     24          1           0        3.935634    0.998463   -1.352094
     25          1           0        3.040495    3.173076   -0.486144
     26          7           0        3.508808   -1.420235   -0.314908
     27          8           0        4.217032   -1.377798   -1.318528
     28          8           0        3.206397   -2.443436    0.295211
 ---------------------------------------------------------------------

 SCF Done:  E(RHF) =  -868.336708832     A.U. after   16 cycles
 E2 =    -0.2604459806D+01 EUMP2 =    -0.87094116863845D+03

 The electronic state is 1-A.
 Alpha  occ. eigenvalues --  -20.61935 -20.61929 -20.60867 -20.60858 -15.86972
 Alpha  occ. eigenvalues --  -15.85919 -11.32393 -11.31253 -11.28946 -11.28887
 Alpha  occ. eigenvalues --  -11.28569 -11.27939 -11.27860 -11.27820 -11.27797
 Alpha  occ. eigenvalues --  -11.27462 -11.26846 -11.26719  -1.61006  -1.59944
 Alpha  occ. eigenvalues --   -1.40555  -1.39497  -1.20575  -1.19425  -1.09913
 Alpha  occ. eigenvalues --   -1.08813  -1.05941  -1.04829  -0.96743  -0.95653
 Alpha  occ. eigenvalues --   -0.87319  -0.86224  -0.83548  -0.82492  -0.78620
 Alpha  occ. eigenvalues --   -0.77559  -0.73164  -0.72377  -0.72130  -0.71584
 Alpha  occ. eigenvalues --   -0.71272  -0.70519  -0.66163  -0.65876  -0.65070
 Alpha  occ. eigenvalues --   -0.64855  -0.63253  -0.62186  -0.56355  -0.55563
 Alpha  occ. eigenvalues --   -0.54218  -0.53969  -0.52998  -0.52844  -0.49942
 Alpha  occ. eigenvalues --   -0.49928  -0.48894  -0.48893  -0.45926  -0.44911
 Alpha  occ. eigenvalues --   -0.38597  -0.37978  -0.37030  -0.36229
 Alpha virt. eigenvalues --    0.03840   0.04984   0.09974   0.11251   0.15371
 Alpha virt. eigenvalues --    0.16518   0.20340   0.21425   0.25990   0.26854
 Alpha virt. eigenvalues --    0.27665   0.28227   0.30020   0.30615   0.31957

 Mulliken charges:
               1
     1  C   -0.168149
     2  C   -0.223269
     3  C   -0.174595
     4  C    0.157332
     5  C   -0.171809
     6  C   -0.223133
     7  H    0.228911
     8  H    0.227300
     9  H    0.276254
    10  H    0.274485
    11  H    0.220230
    12  N    0.487970
    13  O   -0.461275
    14  O   -0.460144
    15  C   -0.170069
    16  C   -0.209952
    17  C   -0.177718
    18  C    0.155077
    19  C   -0.180862
    20  C   -0.222305
    21  H    0.230689
    22  H    0.230454
    23  H    0.277373
    24  H    0.278535
    25  H    0.226921
    26  N    0.487281
    27  O   -0.455792
    28  O   -0.459737
 Sum of Mulliken charges =  -0.00000

 Dipole moment (field-independent basis, Debye):
    X=              3.1731    Y=              5.7646    Z=              0.2663  Tot=              6.5856
 Quadrupole moment (field-independent basis, Debye-Ang):
   XX=           -145.2663   YY=           -101.8810   ZZ=           -100.6594
   XY=              9.3241   XZ=              8.4035   YZ=             -3.0092

 Normal termination of Gaussian 16 at Fri May  7 03:35:50 2021.
