 Gaussian 16, Revision A.03,
 Gaussian 16:  EM64L-G16RevA.03 25-Dec-2016

 -------------
 #p 6-31g* mp2
 -------------

 ------------------------------------------------------
 Input file generated by CHIRIPA (05-May-2021 14:55:19)
 ------------------------------------------------------
 Symbolic Z-matrix:
 Charge =  0 Multiplicity = 1

                         Standard orientation:
 ---------------------------------------------------------------------
 Center     Atomic      Atomic             Coordinates (Angstroms)
 Number     Number       Type             X           Y           Z
 ---------------------------------------------------------------------
      1          6           0       -2.439915    2.271831   -0.407965
      2          6           0       -3.694528    1.867590    0.060070
      3          6           0       -3.978646    0.511877    0.249456
      4          6           0       -2.980332   -0.416885   -0.040477
      5          6           0       -1.720696   -0.045501   -0.508111
      6          6           0       -1.458733    1.315681   -0.690064
      7          1           0       -2.227811    3.327105   -0.552197
      8          1           0       -4.458445    2.607940    0.279972
      9          1           0       -4.941425    0.171245    0.610628
     10          1           0       -0.979397   -0.806787   -0.718676
     11          1           0       -0.483493    1.626718   -1.053668
     12          7           0       -3.269388   -1.855012    0.156083
     13          8           0       -2.372809   -2.653609   -0.106647
     14          8           0       -4.387055   -2.156389    0.569155
     15          6           0        3.700156    0.928154    0.398966
     16          6           0        2.510492    1.731145   -0.128187
     17          6           0        2.416514    3.125208    0.492741
     18          1           0        3.619858    0.840016    1.491087
     19          1           0        4.626637    1.483521    0.197481
     20          1           0        1.586646    1.173786    0.072998
     21          1           0        2.593531    1.817219   -1.219201
     22          1           0        3.321731    3.703268    0.280539
     23          1           0        2.309124    3.056180    1.580078
     24          1           0        1.559089    3.681852    0.101806
     25          6           0        3.807536   -0.467702   -0.212411
     26          6           0        4.997200   -1.270693    0.314740
     27          6           0        5.091179   -2.664756   -0.306186
     28          1           0        2.881056   -1.023069   -0.010927
     29          1           0        3.887835   -0.379563   -1.304533
     30          1           0        4.914160   -1.356767    1.405754
     31          1           0        5.921047   -0.713333    0.113557
     32          1           0        5.198568   -2.595727   -1.393524
     33          1           0        4.185962   -3.242817   -0.093984
     34          1           0        5.948603   -3.221400    0.084749
 ---------------------------------------------------------------------

 SCF Done:  E(RHF) =  -669.535504098     A.U. after   15 cycles
 E2 =    -0.2091589818D+01 EUMP2 =    -0.67162709391604D+03

 The electronic state is 1-A.
 Alpha  occ. eigenvalues --  -20.60755 -20.60750 -15.85808 -11.31168 -11.27738
 Alpha  occ. eigenvalues --  -11.27727 -11.27466 -11.26753 -11.26686 -11.22496
 Alpha  occ. eigenvalues --  -11.21970 -11.21946 -11.21871 -11.21792 -11.21195
 Alpha  occ. eigenvalues --   -1.59831  -1.39385  -1.19337  -1.08977  -1.08731
 Alpha  occ. eigenvalues --   -1.04741  -1.04070  -0.96493  -0.95569  -0.87510
 Alpha  occ. eigenvalues --   -0.86136  -0.82408  -0.80189  -0.78763  -0.77441
 Alpha  occ. eigenvalues --   -0.72026  -0.71154  -0.70446  -0.65617  -0.64986
 Alpha  occ. eigenvalues --   -0.64744  -0.62139  -0.61421  -0.59900  -0.58107
 Alpha  occ. eigenvalues --   -0.55751  -0.55235  -0.53222  -0.53064  -0.52920
 Alpha  occ. eigenvalues --   -0.52820  -0.50419  -0.48792  -0.48782  -0.48458
 Alpha  occ. eigenvalues --   -0.47196  -0.46290  -0.46184  -0.44791  -0.44315
 Alpha  occ. eigenvalues --   -0.37315  -0.36328
 Alpha virt. eigenvalues --    0.05063   0.11277   0.16467   0.20049   0.22626
 Alpha virt. eigenvalues --    0.23820   0.25274   0.26004   0.26609   0.28579
 Alpha virt. eigenvalues --    0.29259   0.30347   0.30848   0.31287   0.32283

 Mulliken charges:
               1
     1  C   -0.172283
     2  C   -0.218446
     3  C   -0.171115
     4  C    0.158779
     5  C   -0.173773
     6  C   -0.222597
     7  H    0.225542
     8  H    0.223329
     9  H    0.275515
    10  H    0.275659
    11  H    0.233020
    12  N    0.488098
    13  O   -0.460612
    14  O   -0.460496
    15  C   -0.297854
    16  C   -0.307317
    17  C   -0.474612
    18  H    0.152849
    19  H    0.151631
    20  H    0.149012
    21  H    0.150444
    22  H    0.159485
    23  H    0.159859
    24  H    0.151944
    25  C   -0.299535
    26  C   -0.300141
    27  C   -0.476670
    28  H    0.150039
    29  H    0.149395
    30  H    0.153555
    31  H    0.152072
    32  H    0.155116
    33  H    0.158502
    34  H    0.161610
 Sum of Mulliken charges =  -0.00000

 Dipole moment (field-independent basis, Debye):
    X=              1.1807    Y=              5.0332    Z=             -0.6318  Tot=              5.2083
 Quadrupole moment (field-independent basis, Debye-Ang):
   XX=            -95.6615   YY=           -100.1823   ZZ=            -94.5635
   XY=            -16.5602   XZ=              0.1974   YZ=             -0.0828

 Normal termination of Gaussian 16 at Thu May  6 07:39:15 2021.
