 Gaussian 16, Revision A.03,
 Gaussian 16:  EM64L-G16RevA.03 25-Dec-2016

 -------------
 #p 6-31g* mp2
 -------------

 ------------------------------------------------------
 Input file generated by CHIRIPA (05-May-2021 14:53:16)
 ------------------------------------------------------
 Symbolic Z-matrix:
 Charge =  0 Multiplicity = 1

                         Standard orientation:
 ---------------------------------------------------------------------
 Center     Atomic      Atomic             Coordinates (Angstroms)
 Number     Number       Type             X           Y           Z
 ---------------------------------------------------------------------
      1          6           0        3.390283    1.247990   -0.162599
      2          6           0        2.050658    1.940380    0.090356
      3          6           0        2.002364    3.359545   -0.476595
      4          1           0        4.195949    1.849085    0.280720
      5          1           0        3.581331    1.218403   -1.244274
      6          1           0        1.861542    1.967419    1.171152
      7          1           0        1.248068    1.337470   -0.353451
      8          1           0        2.165727    3.347703   -1.559080
      9          1           0        2.782687    3.981232   -0.025815
     10          1           0        1.035903    3.835914   -0.284538
     11          6           0        3.453981   -0.171537    0.398303
     12          6           0        4.793606   -0.863927    0.145349
     13          6           0        4.841900   -2.283092    0.712300
     14          1           0        3.262933   -0.141950    1.479978
     15          1           0        2.648314   -0.772632   -0.045016
     16          1           0        5.596196   -0.261017    0.589156
     17          1           0        4.982722   -0.890966   -0.935447
     18          1           0        4.061577   -2.904779    0.261519
     19          1           0        4.678537   -2.271250    1.794784
     20          1           0        5.808361   -2.759461    0.520243
     21          6           0       -4.520241    1.130158    0.650298
     22          6           0       -3.279622    1.651398    0.268600
     23          6           0       -2.249176    0.801635   -0.144478
     24          6           0       -2.495008   -0.570401   -0.163841
     25          6           0       -3.720154   -1.120120    0.210477
     26          6           0       -4.736168   -0.251502    0.620071
     27          1           0       -5.315110    1.797598    0.969834
     28          1           0       -3.109091    2.723992    0.291079
     29          1           0       -1.279100    1.178341   -0.445250
     30          1           0       -3.860229   -2.193767    0.177590
     31          1           0       -5.698639   -0.659114    0.915950
     32          7           0       -1.411761   -1.479987   -0.599305
     33          8           0       -1.653600   -2.685011   -0.607518
     34          8           0       -0.341385   -0.970674   -0.924161
 ---------------------------------------------------------------------

 SCF Done:  E(RHF) =  -669.536268863     A.U. after   15 cycles
 E2 =    -0.2092204543D+01 EUMP2 =    -0.67162847340618D+03

 The electronic state is 1-A.
 Alpha  occ. eigenvalues --  -20.60992 -20.60987 -15.86018 -11.31286 -11.27849
 Alpha  occ. eigenvalues --  -11.27829 -11.27581 -11.26847 -11.26833 -11.21114
 Alpha  occ. eigenvalues --  -11.20943 -11.20785 -11.20729 -11.20363 -11.20255
 Alpha  occ. eigenvalues --   -1.60047  -1.39606  -1.19453  -1.08868  -1.07710
 Alpha  occ. eigenvalues --   -1.04842  -1.02934  -0.95719  -0.95383  -0.86401
 Alpha  occ. eigenvalues --   -0.86246  -0.82558  -0.79019  -0.77683  -0.77402
 Alpha  occ. eigenvalues --   -0.72250  -0.71352  -0.70567  -0.65118  -0.64859
 Alpha  occ. eigenvalues --   -0.64308  -0.62205  -0.60314  -0.58800  -0.56996
 Alpha  occ. eigenvalues --   -0.55352  -0.54654  -0.53176  -0.52938  -0.52136
 Alpha  occ. eigenvalues --   -0.51812  -0.49364  -0.48997  -0.48965  -0.47305
 Alpha  occ. eigenvalues --   -0.45991  -0.45223  -0.45013  -0.44675  -0.43141
 Alpha  occ. eigenvalues --   -0.37432  -0.36439
 Alpha virt. eigenvalues --    0.04896   0.11208   0.16387   0.20590   0.23459
 Alpha virt. eigenvalues --    0.24351   0.26461   0.27371   0.27706   0.28546
 Alpha virt. eigenvalues --    0.29416   0.30687   0.31585   0.32030   0.32274

 Mulliken charges:
               1
     1  C   -0.295184
     2  C   -0.316204
     3  C   -0.474762
     4  H    0.145452
     5  H    0.150195
     6  H    0.147739
     7  H    0.171926
     8  H    0.156728
     9  H    0.155550
    10  H    0.148820
    11  C   -0.307368
    12  C   -0.298925
    13  C   -0.476293
    14  H    0.144357
    15  H    0.174047
    16  H    0.147325
    17  H    0.151693
    18  H    0.161509
    19  H    0.152626
    20  H    0.156930
    21  C   -0.170094
    22  C   -0.221501
    23  C   -0.171652
    24  C    0.155172
    25  C   -0.169946
    26  C   -0.219028
    27  H    0.226033
    28  H    0.224443
    29  H    0.284591
    30  H    0.275721
    31  H    0.223756
    32  N    0.492392
    33  O   -0.458644
    34  O   -0.467405
 Sum of Mulliken charges =  -0.00000

 Dipole moment (field-independent basis, Debye):
    X=             -4.0051    Y=              2.9895    Z=              1.4491  Tot=              5.2037
 Quadrupole moment (field-independent basis, Debye-Ang):
   XX=            -74.7800   YY=            -97.0395   ZZ=            -95.4773
   XY=             -3.1666   XZ=             -3.9482   YZ=             -1.3166

 Normal termination of Gaussian 16 at Thu May  6 13:54:50 2021.
