 Gaussian 16, Revision A.03,
 Gaussian 16:  EM64L-G16RevA.03 25-Dec-2016

 -------------
 #p 6-31g* mp2
 -------------

 ------------------------------------------------------
 Input file generated by CHIRIPA (05-May-2021 14:55:21)
 ------------------------------------------------------
 Symbolic Z-matrix:
 Charge =  0 Multiplicity = 1

                         Standard orientation:
 ---------------------------------------------------------------------
 Center     Atomic      Atomic             Coordinates (Angstroms)
 Number     Number       Type             X           Y           Z
 ---------------------------------------------------------------------
      1          6           0        5.141786    0.287655    0.292131
      2          6           0        4.204113    0.657758    1.261829
      3          6           0        2.865786    0.272655    1.138848
      4          6           0        2.498168   -0.485658    0.028394
      5          6           0        3.408888   -0.870031   -0.954528
      6          6           0        4.741886   -0.473716   -0.811007
      7          1           0        6.179361    0.591167    0.395644
      8          1           0        4.511831    1.249025    2.119592
      9          1           0        2.119128    0.545385    1.874742
     10          1           0        3.072111   -1.459688   -1.798509
     11          1           0        5.467921   -0.762589   -1.565640
     12          7           0        1.084161   -0.899284   -0.112672
     13          8           0        0.785642   -1.567145   -1.100338
     14          8           0        0.301157   -0.547791    0.767097
     15          6           0       -4.215941    0.281205   -0.035289
     16          6           0       -4.324125   -1.192828    0.356511
     17          6           0       -5.770720   -1.684627    0.413871
     18          1           0       -4.782698    0.887833    0.684249
     19          1           0       -4.693629    0.429353   -1.013686
     20          1           0       -3.845156   -1.338408    1.333246
     21          1           0       -3.756885   -1.795999   -0.363934
     22          1           0       -6.256113   -1.568205   -0.560521
     23          1           0       -6.344886   -1.108014    1.146301
     24          1           0       -5.824814   -2.740771    0.695814
     25          6           0       -2.775965    0.787563   -0.096919
     26          6           0       -2.667780    2.261595   -0.488719
     27          6           0       -1.221186    2.753395   -0.546079
     28          1           0       -2.298278    0.639415    0.881479
     29          1           0       -2.209207    0.180935   -0.816456
     30          1           0       -3.235020    2.864767    0.231726
     31          1           0       -3.146750    2.407176   -1.465453
     32          1           0       -0.647021    2.176782   -1.278509
     33          1           0       -0.735793    2.636973    0.428313
     34          1           0       -1.167092    3.809539   -0.828022
 ---------------------------------------------------------------------

 SCF Done:  E(RHF) =  -669.535887618     A.U. after   15 cycles
 E2 =    -0.2092268291D+01 EUMP2 =    -0.67162815590926D+03

 The electronic state is 1-A.
 Alpha  occ. eigenvalues --  -20.60966 -20.60949 -15.85977 -11.31292 -11.27854
 Alpha  occ. eigenvalues --  -11.27851 -11.27588 -11.26858 -11.26849 -11.20458
 Alpha  occ. eigenvalues --  -11.20279 -11.20170 -11.20060 -11.20049 -11.19605
 Alpha  occ. eigenvalues --   -1.60010  -1.39568  -1.19457  -1.08865  -1.07072
 Alpha  occ. eigenvalues --   -1.04853  -1.02364  -0.95710  -0.94811  -0.86255
 Alpha  occ. eigenvalues --   -0.85844  -0.82550  -0.78410  -0.77603  -0.76807
 Alpha  occ. eigenvalues --   -0.72195  -0.71313  -0.70569  -0.65116  -0.64858
 Alpha  occ. eigenvalues --   -0.63715  -0.62203  -0.59783  -0.58180  -0.56416
 Alpha  occ. eigenvalues --   -0.55359  -0.54110  -0.53184  -0.52947  -0.51589
 Alpha  occ. eigenvalues --   -0.51262  -0.48988  -0.48961  -0.48771  -0.46739
 Alpha  occ. eigenvalues --   -0.45441  -0.45077  -0.44267  -0.44126  -0.42543
 Alpha  occ. eigenvalues --   -0.37433  -0.36452
 Alpha virt. eigenvalues --    0.04910   0.11197   0.16401   0.21285   0.24102
 Alpha virt. eigenvalues --    0.25250   0.27166   0.27783   0.28122   0.28850
 Alpha virt. eigenvalues --    0.29229   0.30937   0.31893   0.32658   0.32892

 Mulliken charges:
               1
     1  C   -0.170525
     2  C   -0.218464
     3  C   -0.170206
     4  C    0.158602
     5  C   -0.170700
     6  C   -0.218543
     7  H    0.226000
     8  H    0.223822
     9  H    0.275292
    10  H    0.275679
    11  H    0.223783
    12  N    0.490208
    13  O   -0.460821
    14  O   -0.459150
    15  C   -0.298757
    16  C   -0.298406
    17  C   -0.475071
    18  H    0.143115
    19  H    0.144149
    20  H    0.153724
    21  H    0.158003
    22  H    0.152377
    23  H    0.151486
    24  H    0.157511
    25  C   -0.298736
    26  C   -0.299491
    27  C   -0.472405
    28  H    0.162140
    29  H    0.161851
    30  H    0.146209
    31  H    0.147339
    32  H    0.152821
    33  H    0.154316
    34  H    0.152849
 Sum of Mulliken charges =  -0.00000

 Dipole moment (field-independent basis, Debye):
    X=              5.3131    Y=              1.2594    Z=              0.5534  Tot=              5.4883
 Quadrupole moment (field-independent basis, Debye-Ang):
   XX=            -72.6713   YY=            -96.7559   ZZ=            -90.3676
   XY=              0.5258   XZ=              0.3082   YZ=              2.6945

 Normal termination of Gaussian 16 at Thu May  6 20:46:29 2021.
