 Gaussian 16, Revision A.03,
 Gaussian 16:  EM64L-G16RevA.03 25-Dec-2016

 -------------
 #p 6-31g* mp2
 -------------

 ------------------------------------------------------
 Input file generated by CHIRIPA (05-May-2021 14:53:13)
 ------------------------------------------------------
 Symbolic Z-matrix:
 Charge =  0 Multiplicity = 1

                         Standard orientation:
 ---------------------------------------------------------------------
 Center     Atomic      Atomic             Coordinates (Angstroms)
 Number     Number       Type             X           Y           Z
 ---------------------------------------------------------------------
      1          6           0       -5.524830   -0.232062   -0.486301
      2          6           0       -7.002144   -0.392612   -0.126088
      3          6           0       -7.880701   -0.674138   -1.345380
      4          1           0       -5.417925    0.584498   -1.213451
      5          1           0       -5.175624   -1.145129   -0.988055
      6          1           0       -7.348098    0.519947    0.376076
      7          1           0       -7.105522   -1.208758    0.600435
      8          1           0       -7.563245   -1.595390   -1.844495
      9          1           0       -7.807199    0.143137   -2.070128
     10          1           0       -8.932793   -0.785387   -1.065046
     11          6           0       -4.633783    0.049808    0.722133
     12          6           0       -3.156470    0.210358    0.361920
     13          6           0       -2.277912    0.491884    1.581212
     14          1           0       -4.982990    0.962875    1.223888
     15          1           0       -4.740688   -0.766751    1.449283
     16          1           0       -3.053091    1.026504   -0.364602
     17          1           0       -2.810515   -0.702201   -0.140243
     18          1           0       -2.351415   -0.325390    2.305961
     19          1           0       -2.595369    1.413137    2.080327
     20          1           0       -1.225820    0.603133    1.300878
     21          6           0        2.100568    1.757690    0.091093
     22          6           0        3.216041    2.032432   -0.706876
     23          6           0        4.256793    1.105328   -0.815797
     24          6           0        4.148766   -0.091851   -0.109835
     25          6           0        3.050319   -0.394673    0.693288
     26          6           0        2.021406    0.547149    0.787402
     27          1           0        1.296685    2.483603    0.169954
     28          1           0        3.280216    2.971730   -1.248768
     29          1           0        5.131762    1.292355   -1.426424
     30          1           0        3.014762   -1.339699    1.221569
     31          1           0        1.156310    0.331090    1.407864
     32          7           0        5.244295   -1.081125   -0.217306
     33          8           0        5.125133   -2.128508    0.414697
     34          8           0        6.201389   -0.790405   -0.931511
 ---------------------------------------------------------------------

 SCF Done:  E(RHF) =  -669.535506935     A.U. after   15 cycles
 E2 =    -0.2090752890D+01 EUMP2 =    -0.67162625982480D+03

 The electronic state is 1-A.
 Alpha  occ. eigenvalues --  -20.60743 -20.60738 -15.85796 -11.31161 -11.27733
 Alpha  occ. eigenvalues --  -11.27725 -11.27472 -11.26747 -11.26718 -11.22406
 Alpha  occ. eigenvalues --  -11.22166 -11.22012 -11.22000 -11.21859 -11.21402
 Alpha  occ. eigenvalues --   -1.59819  -1.39372  -1.19334  -1.09025  -1.08729
 Alpha  occ. eigenvalues --   -1.04737  -1.04165  -0.96633  -0.95564  -0.87658
 Alpha  occ. eigenvalues --   -0.86136  -0.82395  -0.80231  -0.78798  -0.77445
 Alpha  occ. eigenvalues --   -0.72015  -0.71141  -0.70442  -0.65648  -0.64987
 Alpha  occ. eigenvalues --   -0.64779  -0.62124  -0.61552  -0.60022  -0.58222
 Alpha  occ. eigenvalues --   -0.55904  -0.55238  -0.53456  -0.53100  -0.53048
 Alpha  occ. eigenvalues --   -0.52694  -0.50556  -0.48778  -0.48770  -0.48538
 Alpha  occ. eigenvalues --   -0.47244  -0.46351  -0.46249  -0.44778  -0.44415
 Alpha  occ. eigenvalues --   -0.37314  -0.36338
 Alpha virt. eigenvalues --    0.05093   0.11264   0.16584   0.19891   0.22480
 Alpha virt. eigenvalues --    0.23847   0.25834   0.26103   0.26947   0.27952
 Alpha virt. eigenvalues --    0.28442   0.30344   0.30804   0.31473   0.31724

 Mulliken charges:
               1
     1  C   -0.298756
     2  C   -0.300098
     3  C   -0.476032
     4  H    0.149832
     5  H    0.150929
     6  H    0.152173
     7  H    0.152812
     8  H    0.156045
     9  H    0.155383
    10  H    0.161470
    11  C   -0.299271
    12  C   -0.298866
    13  C   -0.480788
    14  H    0.150119
    15  H    0.151281
    16  H    0.151565
    17  H    0.154852
    18  H    0.159217
    19  H    0.157875
    20  H    0.150545
    21  C   -0.172320
    22  C   -0.218594
    23  C   -0.171142
    24  C    0.158815
    25  C   -0.171509
    26  C   -0.224034
    27  H    0.225695
    28  H    0.223315
    29  H    0.275533
    30  H    0.275946
    31  H    0.230989
    32  N    0.487963
    33  O   -0.460433
    34  O   -0.460510
 Sum of Mulliken charges =  -0.00000

 Dipole moment (field-independent basis, Debye):
    X=             -4.0640    Y=              3.4620    Z=              0.3638  Tot=              5.3511
 Quadrupole moment (field-independent basis, Debye-Ang):
   XX=           -125.8936   YY=            -92.9553   ZZ=            -94.0716
   XY=             16.4480   XZ=             -0.3669   YZ=             -2.9807

 Normal termination of Gaussian 16 at Thu May  6 12:04:49 2021.
