 Gaussian 16, Revision A.03,
 Gaussian 16:  EM64L-G16RevA.03 25-Dec-2016

 -------------
 #p 6-31g* mp2
 -------------

 ------------------------------------------------------
 Input file generated by CHIRIPA (05-May-2021 14:55:23)
 ------------------------------------------------------
 Symbolic Z-matrix:
 Charge =  0 Multiplicity = 1

                         Standard orientation:
 ---------------------------------------------------------------------
 Center     Atomic      Atomic             Coordinates (Angstroms)
 Number     Number       Type             X           Y           Z
 ---------------------------------------------------------------------
      1          6           0        3.687897    2.527523    0.219252
      2          6           0        2.700849    1.866914    0.958070
      3          6           0        2.477243    0.498408    0.779912
      4          6           0        3.262572   -0.181585   -0.149689
      5          6           0        4.253569    0.448428   -0.900886
      6          6           0        4.459746    1.817424   -0.706237
      7          1           0        3.854830    3.590802    0.364055
      8          1           0        2.099912    2.415843    1.677512
      9          1           0        1.719790   -0.037869    1.338561
     10          1           0        4.836712   -0.125569   -1.610739
     11          1           0        5.227001    2.327857   -1.281408
     12          7           0        3.035076   -1.630621   -0.347027
     13          8           0        3.740376   -2.207072   -1.172189
     14          8           0        2.155771   -2.162486    0.327199
     15          6           0       -3.748210   -0.613799    0.404515
     16          6           0       -2.418888   -0.058875    0.917300
     17          6           0       -1.477556   -1.152405    1.423145
     18          1           0       -4.238146   -1.177517    1.210200
     19          1           0       -3.550597   -1.331524   -0.403702
     20          1           0       -2.619022    0.658626    1.723373
     21          1           0       -1.932149    0.503749    0.110357
     22          1           0       -1.248713   -1.864056    0.623280
     23          1           0       -1.939488   -1.708299    2.245461
     24          1           0       -0.533362   -0.733572    1.784998
     25          6           0       -4.699959    0.467282   -0.104572
     26          6           0       -6.029281   -0.087642   -0.617356
     27          6           0       -6.970613    1.005889   -1.123202
     28          1           0       -4.897571    1.185006    0.703645
     29          1           0       -4.210023    1.031000   -0.910257
     30          1           0       -6.516019   -0.650266    0.189586
     31          1           0       -5.829147   -0.805143   -1.423430
     32          1           0       -6.508682    1.561782   -1.945517
     33          1           0       -7.199457    1.717539   -0.323337
     34          1           0       -7.914807    0.587055   -1.485055
 ---------------------------------------------------------------------

 SCF Done:  E(RHF) =  -669.535396438     A.U. after   15 cycles
 E2 =    -0.2091211575D+01 EUMP2 =    -0.67162660801295D+03

 The electronic state is 1-A.
 Alpha  occ. eigenvalues --  -20.60767 -20.60760 -15.85813 -11.31182 -11.27755
 Alpha  occ. eigenvalues --  -11.27738 -11.27501 -11.26774 -11.26762 -11.21543
 Alpha  occ. eigenvalues --  -11.21539 -11.21342 -11.21261 -11.21040 -11.20834
 Alpha  occ. eigenvalues --   -1.59839  -1.39391  -1.19358  -1.08753  -1.08355
 Alpha  occ. eigenvalues --   -1.04763  -1.03443  -0.95879  -0.95583  -0.86885
 Alpha  occ. eigenvalues --   -0.86159  -0.82417  -0.79503  -0.78171  -0.77463
 Alpha  occ. eigenvalues --   -0.72033  -0.71160  -0.70476  -0.65013  -0.64979
 Alpha  occ. eigenvalues --   -0.64777  -0.62149  -0.60825  -0.59260  -0.57510
 Alpha  occ. eigenvalues --   -0.55269  -0.55131  -0.53093  -0.52970  -0.52481
 Alpha  occ. eigenvalues --   -0.52263  -0.49786  -0.48794  -0.48783  -0.47820
 Alpha  occ. eigenvalues --   -0.46531  -0.45709  -0.45633  -0.44788  -0.43702
 Alpha  occ. eigenvalues --   -0.37341  -0.36364
 Alpha virt. eigenvalues --    0.05056   0.11273   0.16548   0.20605   0.22962
 Alpha virt. eigenvalues --    0.23954   0.26239   0.26744   0.27606   0.27779
 Alpha virt. eigenvalues --    0.29114   0.30475   0.31540   0.31566   0.31979

 Mulliken charges:
               1
     1  C   -0.170577
     2  C   -0.221879
     3  C   -0.176662
     4  C    0.156196
     5  C   -0.170137
     6  C   -0.218967
     7  H    0.225624
     8  H    0.223799
     9  H    0.287918
    10  H    0.275591
    11  H    0.223413
    12  N    0.486886
    13  O   -0.460478
    14  O   -0.460596
    15  C   -0.298721
    16  C   -0.301150
    17  C   -0.475103
    18  H    0.150228
    19  H    0.152597
    20  H    0.147407
    21  H    0.149753
    22  H    0.170111
    23  H    0.155767
    24  H    0.150513
    25  C   -0.298011
    26  C   -0.299755
    27  C   -0.475634
    28  H    0.147989
    29  H    0.148902
    30  H    0.152214
    31  H    0.153092
    32  H    0.154774
    33  H    0.154411
    34  H    0.160485
 Sum of Mulliken charges =  -0.00000

 Dipole moment (field-independent basis, Debye):
    X=              0.7944    Y=              4.9929    Z=              0.6488  Tot=              5.0971
 Quadrupole moment (field-independent basis, Debye-Ang):
   XX=            -87.8514   YY=            -97.5247   ZZ=            -92.4857
   XY=             17.4579   XZ=             -1.4000   YZ=             -0.4891

 Normal termination of Gaussian 16 at Thu May  6 14:17:33 2021.
