 Gaussian 16, Revision A.03,
 Gaussian 16:  EM64L-G16RevA.03 25-Dec-2016

 -------------
 #p 6-31g* mp2
 -------------

 ------------------------------------------------------
 Input file generated by CHIRIPA (05-May-2021 14:57:26)
 ------------------------------------------------------
 Symbolic Z-matrix:
 Charge =  0 Multiplicity = 1

                         Standard orientation:
 ---------------------------------------------------------------------
 Center     Atomic      Atomic             Coordinates (Angstroms)
 Number     Number       Type             X           Y           Z
 ---------------------------------------------------------------------
      1          6           0        4.251078    1.503948    0.846279
      2          6           0        3.239442    0.926365    1.620561
      3          6           0        2.422400   -0.075504    1.088352
      4          6           0        2.645818   -0.477512   -0.227613
      5          6           0        3.645470    0.078627   -1.024291
      6          6           0        4.450511    1.078985   -0.471353
      7          1           0        4.881115    2.281637    1.267763
      8          1           0        3.082274    1.254419    2.644145
      9          1           0        1.631932   -0.539697    1.665503
     10          1           0        3.778054   -0.269242   -2.041555
     11          1           0        5.235396    1.525756   -1.075005
     12          7           0        1.787204   -1.537346   -0.802012
     13          8           0        2.004373   -1.873913   -1.963991
     14          8           0        0.913311   -2.011409   -0.079369
     15          6           0       -2.879107   -2.054220    1.028362
     16          6           0       -3.746107   -1.660373    0.003806
     17          6           0       -3.704097   -0.356939   -0.500023
     18          6           0       -2.778456    0.530710    0.046380
     19          6           0       -1.901484    0.168400    1.067625
     20          6           0       -1.961181   -1.140188    1.556072
     21          1           0       -2.918612   -3.068762    1.413774
     22          1           0       -4.460006   -2.368093   -0.407929
     23          1           0       -4.363690   -0.025485   -1.292798
     24          1           0       -1.200641    0.896329    1.457956
     25          1           0       -1.286641   -1.443273    2.351799
     26          7           0       -2.724618    1.913326   -0.478858
     27          8           0       -1.900002    2.676403    0.019498
     28          8           0       -3.508057    2.207764   -1.378952
 ---------------------------------------------------------------------

 SCF Done:  E(RHF) =  -868.337929988     A.U. after   16 cycles
 E2 =    -0.2600794895D+01 EUMP2 =    -0.87093872488283D+03

 The electronic state is 1-A.
 Alpha  occ. eigenvalues --  -20.61065 -20.61059 -20.60340 -20.60322 -15.86099
 Alpha  occ. eigenvalues --  -15.85380 -11.31400 -11.30534 -11.28039 -11.27901
 Alpha  occ. eigenvalues --  -11.27633 -11.27110 -11.27045 -11.26973 -11.26900
 Alpha  occ. eigenvalues --  -11.26714 -11.26071 -11.26030  -1.60128  -1.59412
 Alpha  occ. eigenvalues --   -1.39690  -1.38973  -1.19547  -1.18660  -1.08947
 Alpha  occ. eigenvalues --   -1.08087  -1.04952  -1.04059  -0.95807  -0.94973
 Alpha  occ. eigenvalues --   -0.86352  -0.85469  -0.82653  -0.81835  -0.77731
 Alpha  occ. eigenvalues --   -0.76915  -0.72343  -0.71611  -0.71439  -0.70726
 Alpha  occ. eigenvalues --   -0.70666  -0.69788  -0.65211  -0.64961  -0.64336
 Alpha  occ. eigenvalues --   -0.64092  -0.62338  -0.61441  -0.55432  -0.54546
 Alpha  occ. eigenvalues --   -0.53255  -0.53054  -0.52335  -0.52189  -0.49109
 Alpha  occ. eigenvalues --   -0.49068  -0.48376  -0.48343  -0.45110  -0.44427
 Alpha  occ. eigenvalues --   -0.37490  -0.36578  -0.36525  -0.35563
 Alpha virt. eigenvalues --    0.04788   0.05653   0.11070   0.12066   0.16326
 Alpha virt. eigenvalues --    0.17166   0.20182   0.22212   0.25606   0.27570
 Alpha virt. eigenvalues --    0.28810   0.29326   0.30457   0.31499   0.32812

 Mulliken charges:
               1
     1  C   -0.169186
     2  C   -0.216409
     3  C   -0.171279
     4  C    0.160571
     5  C   -0.169473
     6  C   -0.217164
     7  H    0.227479
     8  H    0.223110
     9  H    0.265557
    10  H    0.276723
    11  H    0.225310
    12  N    0.489995
    13  O   -0.458073
    14  O   -0.466770
    15  C   -0.165774
    16  C   -0.216831
    17  C   -0.170993
    18  C    0.158274
    19  C   -0.172238
    20  C   -0.198229
    21  H    0.225639
    22  H    0.222126
    23  H    0.273415
    24  H    0.265568
    25  H    0.217151
    26  N    0.488305
    27  O   -0.465615
    28  O   -0.461187
 Sum of Mulliken charges =  -0.00000

 Dipole moment (field-independent basis, Debye):
    X=              3.0126    Y=             -1.2832    Z=              3.7580  Tot=              4.9845
 Quadrupole moment (field-independent basis, Debye-Ang):
   XX=            -84.1196   YY=           -114.6130   ZZ=           -100.5220
   XY=             24.1527   XZ=             -0.3765   YZ=             -0.6033

 Normal termination of Gaussian 16 at Fri May  7 11:12:36 2021.
