 Gaussian 16, Revision A.03,
 Gaussian 16:  EM64L-G16RevA.03 25-Dec-2016

 -------------
 #p 6-31g* mp2
 -------------

 ------------------------------------------------------
 Input file generated by CHIRIPA (05-May-2021 14:51:13)
 ------------------------------------------------------
 Symbolic Z-matrix:
 Charge =  0 Multiplicity = 1

                         Standard orientation:
 ---------------------------------------------------------------------
 Center     Atomic      Atomic             Coordinates (Angstroms)
 Number     Number       Type             X           Y           Z
 ---------------------------------------------------------------------
      1          6           0       -2.531210   -0.654425    0.300955
      2          6           0       -3.359463    0.039731   -0.780771
      3          6           0       -4.300459    1.103021   -0.213554
      4          1           0       -3.208395   -1.115044    1.033209
      5          1           0       -1.947358    0.099873    0.846432
      6          1           0       -3.940527   -0.715813   -1.324952
      7          1           0       -2.680229    0.498587   -1.510639
      8          1           0       -3.733650    1.877865    0.312702
      9          1           0       -5.001109    0.656564    0.499444
     10          1           0       -4.882866    1.586574   -1.004021
     11          6           0       -1.585656   -1.720039   -0.250519
     12          6           0       -0.757404   -2.414195    0.831206
     13          6           0        0.183592   -3.477485    0.263989
     14          1           0       -2.169508   -2.474337   -0.795997
     15          1           0       -0.908472   -1.259420   -0.982774
     16          1           0       -1.436637   -2.873051    1.561074
     17          1           0       -0.176339   -1.658651    1.375388
     18          1           0        0.884242   -3.031028   -0.449009
     19          1           0       -0.383217   -4.252328   -0.262267
     20          1           0        0.765999   -3.961038    1.054456
     21          6           0        1.344948    1.453752   -0.082987
     22          6           0        1.189403    2.886120    0.428983
     23          6           0       -0.243559    3.405237    0.306790
     24          1           0        1.025861    1.409872   -1.133322
     25          1           0        0.666549    0.795735    0.477532
     26          1           0        1.868898    3.541011   -0.131392
     27          1           0        1.509078    2.926636    1.478165
     28          1           0       -0.931549    2.775809    0.880452
     29          1           0       -0.569685    3.393676   -0.738249
     30          1           0       -0.332076    4.430846    0.678482
     31          6           0        2.771919    0.920712    0.032552
     32          6           0        2.927463   -0.511657   -0.479418
     33          6           0        4.360425   -1.030775   -0.357226
     34          1           0        3.450318    1.578730   -0.527968
     35          1           0        3.091006    0.964592    1.082886
     36          1           0        2.607788   -0.552172   -1.528600
     37          1           0        2.247969   -1.166547    0.080957
     38          1           0        4.686552   -1.019211    0.687815
     39          1           0        5.048417   -0.401345   -0.930887
     40          1           0        4.448942   -2.056381   -0.728917
 ---------------------------------------------------------------------

 SCF Done:  E(RHF) =  -470.732691710     A.U. after   11 cycles
 E2 =    -0.1585623614D+01 EUMP2 =    -0.47231831532448D+03

 The electronic state is 1-A.
 Alpha  occ. eigenvalues --  -11.21686 -11.21626 -11.21612 -11.21552 -11.21484
 Alpha  occ. eigenvalues --  -11.21419 -11.21367 -11.21305 -11.21167 -11.21102
 Alpha  occ. eigenvalues --  -11.21026 -11.21014  -1.08536  -1.08375  -1.03623
 Alpha  occ. eigenvalues --   -1.03482  -0.96063  -0.95935  -0.87068  -0.86961
 Alpha  occ. eigenvalues --   -0.79681  -0.79563  -0.78343  -0.78217  -0.65395
 Alpha  occ. eigenvalues --   -0.64801  -0.61207  -0.60747  -0.59397  -0.59317
 Alpha  occ. eigenvalues --   -0.57694  -0.57552  -0.55421  -0.55153  -0.52735
 Alpha  occ. eigenvalues --   -0.52644  -0.52482  -0.52350  -0.50045  -0.49861
 Alpha  occ. eigenvalues --   -0.48105  -0.47756  -0.46710  -0.46627  -0.46172
 Alpha  occ. eigenvalues --   -0.45935  -0.45545  -0.45271  -0.43850  -0.43751
 Alpha virt. eigenvalues --    0.19305   0.21462   0.23776   0.24611   0.25061
 Alpha virt. eigenvalues --    0.25648   0.26727   0.28257   0.28612   0.30001
 Alpha virt. eigenvalues --    0.30197   0.31246   0.31738   0.31965   0.32655

 Mulliken charges:
               1
     1  C   -0.302293
     2  C   -0.299161
     3  C   -0.477683
     4  H    0.149367
     5  H    0.152210
     6  H    0.151637
     7  H    0.152486
     8  H    0.157435
     9  H    0.154713
    10  H    0.160097
    11  C   -0.299843
    12  C   -0.302880
    13  C   -0.480283
    14  H    0.149684
    15  H    0.152658
    16  H    0.152383
    17  H    0.152072
    18  H    0.160209
    19  H    0.155483
    20  H    0.159562
    21  C   -0.305818
    22  C   -0.299683
    23  C   -0.479508
    24  H    0.149453
    25  H    0.156386
    26  H    0.152552
    27  H    0.152180
    28  H    0.157619
    29  H    0.155764
    30  H    0.161050
    31  C   -0.297429
    32  C   -0.308739
    33  C   -0.475596
    34  H    0.149839
    35  H    0.149606
    36  H    0.151079
    37  H    0.162076
    38  H    0.155282
    39  H    0.155307
    40  H    0.160728
 Sum of Mulliken charges =  -0.00000

 Dipole moment (field-independent basis, Debye):
    X=              0.0348    Y=              0.0178    Z=             -0.0094  Tot=              0.0402
 Quadrupole moment (field-independent basis, Debye-Ang):
   XX=            -85.7472   YY=            -85.0434   ZZ=            -83.9660
   XY=              1.6479   XZ=             -0.0792   YZ=             -0.5635

 Normal termination of Gaussian 16 at Thu May  6 00:48:58 2021.
