 Gaussian 16, Revision A.03,
 Gaussian 16:  EM64L-G16RevA.03 25-Dec-2016

 -------------
 #p 6-31g* mp2
 -------------

 ------------------------------------------------------
 Input file generated by CHIRIPA (05-May-2021 14:53:14)
 ------------------------------------------------------
 Symbolic Z-matrix:
 Charge =  0 Multiplicity = 1

                         Standard orientation:
 ---------------------------------------------------------------------
 Center     Atomic      Atomic             Coordinates (Angstroms)
 Number     Number       Type             X           Y           Z
 ---------------------------------------------------------------------
      1          6           0       -3.304524    0.904141   -0.642636
      2          6           0       -2.093827    1.626864   -0.051141
      3          6           0       -1.840935    2.986907   -0.702389
      4          1           0       -3.153350    0.772605   -1.722817
      5          1           0       -4.194224    1.538442   -0.526490
      6          1           0       -1.206931    0.990799   -0.167126
      7          1           0       -2.247815    1.756524    1.027790
      8          1           0       -2.708402    3.642480   -0.574615
      9          1           0       -1.661604    2.872404   -1.776321
     10          1           0       -0.970962    3.486159   -0.264492
     11          6           0       -3.570197   -0.456942   -0.001855
     12          6           0       -4.780894   -1.179665   -0.593350
     13          6           0       -5.033785   -2.539708    0.057898
     14          1           0       -2.680496   -1.091244   -0.118001
     15          1           0       -3.721370   -0.325407    1.078326
     16          1           0       -4.626906   -1.309325   -1.672281
     17          1           0       -5.667790   -0.543600   -0.477364
     18          1           0       -5.213117   -2.425205    1.131831
     19          1           0       -4.166319   -3.195281   -0.069875
     20          1           0       -5.903758   -3.038961   -0.379998
     21          6           0        0.925712    0.789469    1.781360
     22          6           0        1.199761   -0.581950    1.806436
     23          6           0        2.172677   -1.127113    0.963358
     24          6           0        2.855561   -0.267898    0.103878
     25          6           0        2.605256    1.102613    0.055553
     26          6           0        1.628096    1.625898    0.907539
     27          1           0        0.168279    1.204467    2.439743
     28          1           0        0.655845   -1.233924    2.484028
     29          1           0        2.404898   -2.185173    0.962178
     30          1           0        3.163945    1.727332   -0.630749
     31          1           0        1.417369    2.691343    0.885905
     32          7           0        3.887790   -0.833457   -0.793366
     33          8           0        4.475493   -0.055211   -1.541414
     34          8           0        4.089603   -2.044280   -0.731589
 ---------------------------------------------------------------------

 SCF Done:  E(RHF) =  -669.534632552     A.U. after   15 cycles
 E2 =    -0.2093045375D+01 EUMP2 =    -0.67162767792633D+03

 The electronic state is 1-A.
 Alpha  occ. eigenvalues --  -20.60777 -20.60772 -15.85833 -11.31194 -11.27792
 Alpha  occ. eigenvalues --  -11.27783 -11.27501 -11.26771 -11.26760 -11.22204
 Alpha  occ. eigenvalues --  -11.22017 -11.21929 -11.21871 -11.21812 -11.21456
 Alpha  occ. eigenvalues --   -1.59854  -1.39408  -1.19389  -1.08983  -1.08763
 Alpha  occ. eigenvalues --   -1.04791  -1.04075  -0.96531  -0.95607  -0.87544
 Alpha  occ. eigenvalues --   -0.86182  -0.82442  -0.80152  -0.78789  -0.77485
 Alpha  occ. eigenvalues --   -0.72051  -0.71180  -0.70482  -0.65592  -0.65033
 Alpha  occ. eigenvalues --   -0.64798  -0.62147  -0.61470  -0.59927  -0.58156
 Alpha  occ. eigenvalues --   -0.55805  -0.55284  -0.53316  -0.53120  -0.52979
 Alpha  occ. eigenvalues --   -0.52790  -0.50450  -0.48814  -0.48805  -0.48448
 Alpha  occ. eigenvalues --   -0.47159  -0.46329  -0.46224  -0.44815  -0.44333
 Alpha  occ. eigenvalues --   -0.37253  -0.36396
 Alpha virt. eigenvalues --    0.05050   0.11160   0.16506   0.20017   0.22596
 Alpha virt. eigenvalues --    0.23904   0.25444   0.25898   0.26742   0.28169
 Alpha virt. eigenvalues --    0.28691   0.29517   0.31118   0.31755   0.31980

 Mulliken charges:
               1
     1  C   -0.297954
     2  C   -0.306737
     3  C   -0.474966
     4  H    0.152807
     5  H    0.149928
     6  H    0.163768
     7  H    0.141554
     8  H    0.157385
     9  H    0.160070
    10  H    0.150388
    11  C   -0.298755
    12  C   -0.299966
    13  C   -0.476068
    14  H    0.150172
    15  H    0.145890
    16  H    0.154185
    17  H    0.152624
    18  H    0.153953
    19  H    0.155496
    20  H    0.162225
    21  C   -0.167599
    22  C   -0.220063
    23  C   -0.170995
    24  C    0.157810
    25  C   -0.171404
    26  C   -0.218930
    27  H    0.227840
    28  H    0.223954
    29  H    0.275698
    30  H    0.275861
    31  H    0.224744
    32  N    0.488137
    33  O   -0.460453
    34  O   -0.460597
 Sum of Mulliken charges =  -0.00000

 Dipole moment (field-independent basis, Debye):
    X=             -3.6884    Y=              1.9384    Z=              3.0933  Tot=              5.1894
 Quadrupole moment (field-independent basis, Debye-Ang):
   XX=           -115.8364   YY=            -92.7708   ZZ=            -93.6140
   XY=              7.2129   XZ=              8.3047   YZ=             -1.9825

 Normal termination of Gaussian 16 at Wed May  5 20:12:09 2021.
