 Gaussian 16, Revision A.03,
 Gaussian 16:  EM64L-G16RevA.03 25-Dec-2016

 -------------
 #p 6-31g* mp2
 -------------

 ------------------------------------------------------
 Input file generated by CHIRIPA (05-May-2021 14:55:22)
 ------------------------------------------------------
 Symbolic Z-matrix:
 Charge =  0 Multiplicity = 1

                         Standard orientation:
 ---------------------------------------------------------------------
 Center     Atomic      Atomic             Coordinates (Angstroms)
 Number     Number       Type             X           Y           Z
 ---------------------------------------------------------------------
      1          6           0       -0.657635   -0.379514    0.859375
      2          6           0       -1.181586   -1.363740    0.014806
      3          6           0       -2.521650   -1.319588   -0.381208
      4          6           0       -3.312864   -0.272290    0.088300
      5          6           0       -2.820125    0.723159    0.930666
      6          6           0       -1.477133    0.658963    1.313808
      7          1           0        0.384496   -0.421598    1.162008
      8          1           0       -0.547491   -2.171404   -0.339662
      9          1           0       -2.953116   -2.068448   -1.034249
     10          1           0       -3.476851    1.515963    1.267698
     11          1           0       -1.072934    1.424699    1.969795
     12          7           0       -4.733079   -0.214938   -0.324129
     13          8           0       -5.409346    0.718131    0.103286
     14          8           0       -5.143086   -1.104140   -1.066996
     15          6           0        3.275881    0.696481   -0.368681
     16          6           0        3.332707    2.222895   -0.299289
     17          6           0        1.994799    2.880330   -0.639256
     18          1           0        2.962311    0.393039   -1.376918
     19          1           0        2.501999    0.333557    0.321816
     20          1           0        4.107204    2.582749   -0.988691
     21          1           0        3.646365    2.522734    0.708844
     22          1           0        1.215613    2.549641    0.055089
     23          1           0        1.679070    2.609996   -1.652091
     24          1           0        2.058044    3.971546   -0.583507
     25          6           0        4.605833    0.024778   -0.031379
     26          6           0        4.549008   -1.501636   -0.100771
     27          6           0        5.886915   -2.159070    0.239196
     28          1           0        5.379716    0.387702   -0.721876
     29          1           0        4.919405    0.328220    0.976858
     30          1           0        4.235350   -1.801475   -1.108904
     31          1           0        3.774511   -1.861490    0.588631
     32          1           0        6.202645   -1.888737    1.252032
     33          1           0        6.666102   -1.828381   -0.455149
     34          1           0        5.823671   -3.250286    0.183447
 ---------------------------------------------------------------------

 SCF Done:  E(RHF) =  -669.535429751     A.U. after   15 cycles
 E2 =    -0.2091788520D+01 EUMP2 =    -0.67162721827088D+03

 The electronic state is 1-A.
 Alpha  occ. eigenvalues --  -20.60744 -20.60739 -15.85798 -11.31165 -11.27741
 Alpha  occ. eigenvalues --  -11.27735 -11.27465 -11.26761 -11.26734 -11.22477
 Alpha  occ. eigenvalues --  -11.22443 -11.22384 -11.22224 -11.21807 -11.21768
 Alpha  occ. eigenvalues --   -1.59819  -1.39373  -1.19340  -1.09320  -1.08733
 Alpha  occ. eigenvalues --   -1.04744  -1.04340  -0.96781  -0.95569  -0.87792
 Alpha  occ. eigenvalues --   -0.86140  -0.82404  -0.80406  -0.79160  -0.77446
 Alpha  occ. eigenvalues --   -0.72016  -0.71142  -0.70469  -0.65957  -0.64993
 Alpha  occ. eigenvalues --   -0.64744  -0.62095  -0.61734  -0.60148  -0.58400
 Alpha  occ. eigenvalues --   -0.56110  -0.55248  -0.53442  -0.53201  -0.53057
 Alpha  occ. eigenvalues --   -0.52834  -0.50720  -0.48776  -0.48771  -0.48712
 Alpha  occ. eigenvalues --   -0.47449  -0.46671  -0.46608  -0.44778  -0.44617
 Alpha  occ. eigenvalues --   -0.37295  -0.36344
 Alpha virt. eigenvalues --    0.05070   0.11211   0.16489   0.19272   0.22652
 Alpha virt. eigenvalues --    0.23534   0.24861   0.26010   0.26492   0.27847
 Alpha virt. eigenvalues --    0.29687   0.30696   0.30938   0.31232   0.31359

 Mulliken charges:
               1
     1  C   -0.171608
     2  C   -0.220524
     3  C   -0.170797
     4  C    0.158453
     5  C   -0.170775
     6  C   -0.220585
     7  H    0.231358
     8  H    0.223988
     9  H    0.275556
    10  H    0.275674
    11  H    0.223465
    12  N    0.488047
    13  O   -0.460440
    14  O   -0.460503
    15  C   -0.300852
    16  C   -0.300657
    17  C   -0.476012
    18  H    0.152976
    19  H    0.139267
    20  H    0.155907
    21  H    0.151881
    22  H    0.149307
    23  H    0.159178
    24  H    0.163250
    25  C   -0.298398
    26  C   -0.299417
    27  C   -0.476012
    28  H    0.153495
    29  H    0.150643
    30  H    0.152936
    31  H    0.145355
    32  H    0.156361
    33  H    0.157689
    34  H    0.161794
 Sum of Mulliken charges =  -0.00000

 Dipole moment (field-independent basis, Debye):
    X=              5.1774    Y=             -0.1632    Z=              1.3603  Tot=              5.3556
 Quadrupole moment (field-independent basis, Debye-Ang):
   XX=           -128.4013   YY=            -91.5643   ZZ=            -92.6732
   XY=             -0.6517   XZ=             -5.4914   YZ=              2.2171

 Normal termination of Gaussian 16 at Thu May  6 01:28:48 2021.
