 Gaussian 16, Revision A.03,
 Gaussian 16:  EM64L-G16RevA.03 25-Dec-2016

 -------------
 #p 6-31g* mp2
 -------------

 ------------------------------------------------------
 Input file generated by CHIRIPA (05-May-2021 14:55:22)
 ------------------------------------------------------
 Symbolic Z-matrix:
 Charge =  0 Multiplicity = 1

                         Standard orientation:
 ---------------------------------------------------------------------
 Center     Atomic      Atomic             Coordinates (Angstroms)
 Number     Number       Type             X           Y           Z
 ---------------------------------------------------------------------
      1          6           0       -1.807411   -2.797015    0.051904
      2          6           0       -0.980544   -1.807996   -0.490916
      3          6           0       -1.414451   -0.480975   -0.563624
      4          6           0       -2.686806   -0.176897   -0.082022
      5          6           0       -3.533924   -1.139793    0.464340
      6          6           0       -3.079220   -2.460350    0.526962
      7          1           0       -1.462264   -3.825366    0.104467
      8          1           0        0.007642   -2.066555   -0.860619
      9          1           0       -0.794868    0.304533   -0.978971
     10          1           0       -4.513910   -0.851497    0.824800
     11          1           0       -3.723530   -3.226355    0.949035
     12          7           0       -3.157173    1.224540   -0.153656
     13          8           0       -4.282413    1.466639    0.277456
     14          8           0       -2.391698    2.054350   -0.639558
     15          6           0        3.160322    1.166022    0.459364
     16          6           0        2.161838    2.041664   -0.298439
     17          6           0        1.812490    3.326321    0.453497
     18          1           0        2.743859    0.914343    1.444332
     19          1           0        4.076347    1.743603    0.645628
     20          1           0        1.248498    1.462154   -0.484432
     21          1           0        2.580645    2.291128   -1.281793
     22          1           0        2.710690    3.927993    0.626201
     23          1           0        1.370973    3.094308    1.428092
     24          1           0        1.097344    3.937239   -0.106153
     25          6           0        3.519445   -0.121874   -0.279611
     26          6           0        4.517929   -0.997516    0.478193
     27          6           0        4.867277   -2.282172   -0.273744
     28          1           0        2.603420   -0.699455   -0.465875
     29          1           0        3.935908    0.129805   -1.264579
     30          1           0        4.099122   -1.246980    1.461546
     31          1           0        5.431269   -0.418006    0.664185
     32          1           0        5.308794   -2.050160   -1.248338
     33          1           0        3.969076   -2.883845   -0.446448
     34          1           0        5.582422   -2.893090    0.285905
 ---------------------------------------------------------------------

 SCF Done:  E(RHF) =  -669.535509229     A.U. after   15 cycles
 E2 =    -0.2091928411D+01 EUMP2 =    -0.67162743763970D+03

 The electronic state is 1-A.
 Alpha  occ. eigenvalues --  -20.60787 -20.60782 -15.85838 -11.31207 -11.27781
 Alpha  occ. eigenvalues --  -11.27763 -11.27525 -11.26800 -11.26790 -11.22061
 Alpha  occ. eigenvalues --  -11.21906 -11.21752 -11.21623 -11.21597 -11.20815
 Alpha  occ. eigenvalues --   -1.59860  -1.39414  -1.19383  -1.08778  -1.08770
 Alpha  occ. eigenvalues --   -1.04789  -1.03774  -0.96206  -0.95611  -0.87220
 Alpha  occ. eigenvalues --   -0.86187  -0.82444  -0.79867  -0.78597  -0.77483
 Alpha  occ. eigenvalues --   -0.72058  -0.71182  -0.70500  -0.65423  -0.65034
 Alpha  occ. eigenvalues --   -0.64802  -0.62160  -0.61152  -0.59591  -0.57807
 Alpha  occ. eigenvalues --   -0.55512  -0.55291  -0.53116  -0.52915  -0.52842
 Alpha  occ. eigenvalues --   -0.52614  -0.50155  -0.48818  -0.48812  -0.48159
 Alpha  occ. eigenvalues --   -0.46917  -0.46122  -0.46035  -0.44815  -0.44036
 Alpha  occ. eigenvalues --   -0.37365  -0.36386
 Alpha virt. eigenvalues --    0.05017   0.11222   0.16479   0.19119   0.22891
 Alpha virt. eigenvalues --    0.23593   0.24642   0.26797   0.27189   0.27926
 Alpha virt. eigenvalues --    0.28962   0.30959   0.31433   0.31585   0.32167

 Mulliken charges:
               1
     1  C   -0.170837
     2  C   -0.223587
     3  C   -0.178726
     4  C    0.158448
     5  C   -0.170453
     6  C   -0.218568
     7  H    0.225891
     8  H    0.226141
     9  H    0.286410
    10  H    0.275710
    11  H    0.223572
    12  N    0.487297
    13  O   -0.460250
    14  O   -0.460742
    15  C   -0.298493
    16  C   -0.303443
    17  C   -0.475341
    18  H    0.150747
    19  H    0.151992
    20  H    0.147249
    21  H    0.152838
    22  H    0.153227
    23  H    0.156513
    24  H    0.171317
    25  C   -0.297588
    26  C   -0.300043
    27  C   -0.474752
    28  H    0.138425
    29  H    0.151667
    30  H    0.152466
    31  H    0.154986
    32  H    0.156775
    33  H    0.149015
    34  H    0.162137
 Sum of Mulliken charges =  -0.00000

 Dipole moment (field-independent basis, Debye):
    X=              1.7011    Y=             -4.7886    Z=              0.2989  Tot=              5.0905
 Quadrupole moment (field-independent basis, Debye-Ang):
   XX=            -99.2170   YY=            -93.4464   ZZ=            -94.6314
   XY=             15.3699   XZ=             -3.0915   YZ=             -0.9787

 Normal termination of Gaussian 16 at Thu May  6 03:02:35 2021.
