 Gaussian 16, Revision A.03,
 Gaussian 16:  EM64L-G16RevA.03 25-Dec-2016

 -------------
 #p 6-31g* mp2
 -------------

 ------------------------------------------------------
 Input file generated by CHIRIPA (05-May-2021 14:53:12)
 ------------------------------------------------------
 Symbolic Z-matrix:
 Charge =  0 Multiplicity = 1

                         Standard orientation:
 ---------------------------------------------------------------------
 Center     Atomic      Atomic             Coordinates (Angstroms)
 Number     Number       Type             X           Y           Z
 ---------------------------------------------------------------------
      1          6           0        3.368528   -0.449313    0.372087
      2          6           0        3.570657   -1.725451   -0.445594
      3          6           0        3.408597   -2.995218    0.390601
      4          1           0        4.086470   -0.436619    1.203558
      5          1           0        2.367110   -0.466504    0.824042
      6          1           0        4.570876   -1.705216   -0.897000
      7          1           0        2.852278   -1.735016   -1.275326
      8          1           0        2.406562   -3.042426    0.829119
      9          1           0        4.134925   -3.012457    1.209595
     10          1           0        3.557233   -3.895556   -0.213681
     11          6           0        3.527340    0.828458   -0.449988
     12          6           0        3.325211    2.104595    0.367694
     13          6           0        3.487271    3.374362   -0.468502
     14          1           0        4.528758    0.845649   -0.901942
     15          1           0        2.809398    0.815764   -1.281458
     16          1           0        4.043590    2.114161    1.197426
     17          1           0        2.324992    2.084361    0.819100
     18          1           0        2.760943    3.391602   -1.287496
     19          1           0        4.489306    3.421571   -0.907020
     20          1           0        3.338635    4.274701    0.135781
     21          6           0       -5.102483    0.588542   -0.114614
     22          6           0       -4.478034    0.013944   -1.226559
     23          6           0       -3.143797   -0.397889   -1.157610
     24          6           0       -2.460827   -0.219320    0.044452
     25          6           0       -3.055244    0.349897    1.169596
     26          6           0       -4.390350    0.754392    1.077813
     27          1           0       -6.139286    0.905614   -0.177045
     28          1           0       -5.028630   -0.116091   -2.153910
     29          1           0       -2.635898   -0.845610   -2.003189
     30          1           0       -2.480513    0.466531    2.080365
     31          1           0       -4.872739    1.200331    1.942963
     32          7           0       -1.047869   -0.651425    0.129533
     33          8           0       -0.468011   -0.483137    1.200085
     34          8           0       -0.547007   -1.150214   -0.875944
 ---------------------------------------------------------------------

 SCF Done:  E(RHF) =  -669.537235442     A.U. after   15 cycles
 E2 =    -0.2091996944D+01 EUMP2 =    -0.67162923238592D+03

 The electronic state is 1-A.
 Alpha  occ. eigenvalues --  -20.61229 -20.61215 -15.86212 -11.31446 -11.27991
 Alpha  occ. eigenvalues --  -11.27988 -11.27712 -11.26976 -11.26966 -11.20444
 Alpha  occ. eigenvalues --  -11.20219 -11.19950 -11.19867 -11.19484 -11.19444
 Alpha  occ. eigenvalues --   -1.60254  -1.39812  -1.19600  -1.09022  -1.06895
 Alpha  occ. eigenvalues --   -1.04980  -1.02124  -0.95877  -0.94593  -0.86385
 Alpha  occ. eigenvalues --   -0.85620  -0.82714  -0.78226  -0.77780  -0.76651
 Alpha  occ. eigenvalues --   -0.72419  -0.71554  -0.70707  -0.65255  -0.64985
 Alpha  occ. eigenvalues --   -0.63506  -0.62327  -0.59510  -0.58006  -0.56204
 Alpha  occ. eigenvalues --   -0.55488  -0.53873  -0.53316  -0.53070  -0.51368
 Alpha  occ. eigenvalues --   -0.51032  -0.49272  -0.49185  -0.48467  -0.46545
 Alpha  occ. eigenvalues --   -0.45290  -0.45213  -0.44222  -0.43925  -0.42333
 Alpha  occ. eigenvalues --   -0.37573  -0.36576
 Alpha virt. eigenvalues --    0.04732   0.11081   0.16248   0.21217   0.24330
 Alpha virt. eigenvalues --    0.25688   0.27153   0.27951   0.28363   0.29028
 Alpha virt. eigenvalues --    0.29343   0.30842   0.32331   0.32706   0.32900

 Mulliken charges:
               1
     1  C   -0.310793
     2  C   -0.297962
     3  C   -0.476537
     4  H    0.139864
     5  H    0.180426
     6  H    0.141906
     7  H    0.160963
     8  H    0.165005
     9  H    0.148215
    10  H    0.153033
    11  C   -0.297209
    12  C   -0.299731
    13  C   -0.474604
    14  H    0.142749
    15  H    0.151273
    16  H    0.148674
    17  H    0.155410
    18  H    0.152610
    19  H    0.152974
    20  H    0.155500
    21  C   -0.170205
    22  C   -0.218610
    23  C   -0.170536
    24  C    0.158169
    25  C   -0.170517
    26  C   -0.218570
    27  H    0.226603
    28  H    0.224389
    29  H    0.276113
    30  H    0.276177
    31  H    0.224420
    32  N    0.489119
    33  O   -0.459165
    34  O   -0.459153
 Sum of Mulliken charges =  -0.00000

 Dipole moment (field-independent basis, Debye):
    X=             -5.5310    Y=              1.4457    Z=             -0.2668  Tot=              5.7230
 Quadrupole moment (field-independent basis, Debye-Ang):
   XX=            -71.5449   YY=            -97.6980   ZZ=            -90.5119
   XY=             -2.8235   XZ=              1.0962   YZ=              2.4256

 Normal termination of Gaussian 16 at Thu May  6 00:58:19 2021.
