 Gaussian 16, Revision A.03,
 Gaussian 16:  EM64L-G16RevA.03 25-Dec-2016

 -------------
 #p 6-31g* mp2
 -------------

 ------------------------------------------------------
 Input file generated by CHIRIPA (05-May-2021 14:57:27)
 ------------------------------------------------------
 Symbolic Z-matrix:
 Charge =  0 Multiplicity = 1

                         Standard orientation:
 ---------------------------------------------------------------------
 Center     Atomic      Atomic             Coordinates (Angstroms)
 Number     Number       Type             X           Y           Z
 ---------------------------------------------------------------------
      1          6           0       -5.418540   -1.986407    0.078045
      2          6           0       -5.701364   -0.948119   -0.815537
      3          6           0       -4.933708    0.220317   -0.812259
      4          6           0       -3.886002    0.317293    0.102179
      5          6           0       -3.579364   -0.699699    1.004947
      6          6           0       -4.360308   -1.859108    0.983838
      7          1           0       -6.020034   -2.890570    0.068573
      8          1           0       -6.522587   -1.044220   -1.520096
      9          1           0       -5.130731    1.039549   -1.493037
     10          1           0       -2.754261   -0.574805    1.695617
     11          1           0       -4.138364   -2.663839    1.678959
     12          7           0       -3.066285    1.549486    0.115088
     13          8           0       -2.148715    1.610357    0.930561
     14          8           0       -3.356883    2.431075   -0.690511
     15          6           0        1.535986    0.262863   -0.318995
     16          6           0        2.368940    1.308124    0.093481
     17          6           0        3.747328    1.110586    0.218279
     18          6           0        4.261353   -0.150667   -0.078885
     19          6           0        3.457510   -1.211956   -0.492156
     20          6           0        2.081966   -0.991630   -0.609984
     21          1           0        0.466326    0.425167   -0.413235
     22          1           0        1.947694    2.283432    0.320137
     23          1           0        4.415159    1.902261    0.535565
     24          1           0        3.906616   -2.173108   -0.711037
     25          1           0        1.437492   -1.805230   -0.930532
     26          7           0        5.719085   -0.371854    0.049544
     27          8           0        6.147300   -1.492378   -0.218219
     28          8           0        6.405837    0.579490    0.415538
 ---------------------------------------------------------------------

 SCF Done:  E(RHF) =  -868.339766765     A.U. after   16 cycles
 E2 =    -0.2598379630D+01 EUMP2 =    -0.87093814639497D+03

 The electronic state is 1-A.
 Alpha  occ. eigenvalues --  -20.61950 -20.61899 -20.60316 -20.60306 -15.86942
 Alpha  occ. eigenvalues --  -15.85363 -11.32078 -11.30595 -11.28625 -11.28594
 Alpha  occ. eigenvalues --  -11.28290 -11.27568 -11.27547 -11.27200 -11.27114
 Alpha  occ. eigenvalues --  -11.26734 -11.26169 -11.25992  -1.60992  -1.59392
 Alpha  occ. eigenvalues --   -1.40549  -1.38950  -1.20226  -1.18744  -1.09660
 Alpha  occ. eigenvalues --   -1.08135  -1.05586  -1.04132  -0.96531  -0.94997
 Alpha  occ. eigenvalues --   -0.86993  -0.85516  -0.83365  -0.81843  -0.78447
 Alpha  occ. eigenvalues --   -0.76933  -0.73160  -0.72311  -0.71582  -0.71314
 Alpha  occ. eigenvalues --   -0.70715  -0.69770  -0.65872  -0.65574  -0.64381
 Alpha  occ. eigenvalues --   -0.64112  -0.62931  -0.61485  -0.56079  -0.54535
 Alpha  occ. eigenvalues --   -0.53935  -0.53665  -0.52468  -0.52205  -0.49940
 Alpha  occ. eigenvalues --   -0.49899  -0.48346  -0.48327  -0.45984  -0.44386
 Alpha  occ. eigenvalues --   -0.38189  -0.37184  -0.36680  -0.35752
 Alpha virt. eigenvalues --    0.04035   0.05605   0.10467   0.11914   0.15558
 Alpha virt. eigenvalues --    0.17145   0.20654   0.22161   0.26593   0.27432
 Alpha virt. eigenvalues --    0.27995   0.28859   0.30367   0.31401   0.32272

 Mulliken charges:
               1
     1  C   -0.169961
     2  C   -0.218446
     3  C   -0.170639
     4  C    0.156368
     5  C   -0.173668
     6  C   -0.218655
     7  H    0.228701
     8  H    0.226372
     9  H    0.277144
    10  H    0.275360
    11  H    0.226070
    12  N    0.486935
    13  O   -0.466725
    14  O   -0.455299
    15  C   -0.172875
    16  C   -0.220016
    17  C   -0.172105
    18  C    0.157563
    19  C   -0.171935
    20  C   -0.220348
    21  H    0.234931
    22  H    0.232071
    23  H    0.274513
    24  H    0.272440
    25  H    0.218267
    26  N    0.488219
    27  O   -0.463002
    28  O   -0.461282
 Sum of Mulliken charges =  -0.00000

 Dipole moment (field-independent basis, Debye):
    X=             -8.5121    Y=             -3.4700    Z=             -0.5013  Tot=              9.2059
 Quadrupole moment (field-independent basis, Debye-Ang):
   XX=           -125.3336   YY=           -102.9402   ZZ=           -102.7325
   XY=             20.4187   XZ=              1.2272   YZ=             -0.6179

 Normal termination of Gaussian 16 at Fri May  7 05:06:24 2021.
