 Gaussian 16, Revision A.03,
 Gaussian 16:  EM64L-G16RevA.03 25-Dec-2016

 -------------
 #p 6-31g* mp2
 -------------

 ------------------------------------------------------
 Input file generated by CHIRIPA (05-May-2021 14:53:14)
 ------------------------------------------------------
 Symbolic Z-matrix:
 Charge =  0 Multiplicity = 1

                         Standard orientation:
 ---------------------------------------------------------------------
 Center     Atomic      Atomic             Coordinates (Angstroms)
 Number     Number       Type             X           Y           Z
 ---------------------------------------------------------------------
      1          6           0       -2.745017    0.946339    0.371939
      2          6           0       -3.035419    2.446335    0.432490
      3          6           0       -1.904751    3.241452    1.086074
      4          1           0       -2.572096    0.571413    1.390012
      5          1           0       -1.811506    0.782826   -0.184132
      6          1           0       -3.968832    2.606877    0.987091
      7          1           0       -3.207859    2.817697   -0.585828
      8          1           0       -0.970635    3.110826    0.530228
      9          1           0       -1.735932    2.898808    2.112084
     10          1           0       -2.133206    4.311306    1.118942
     11          6           0       -3.866127    0.138013   -0.278791
     12          6           0       -3.575726   -1.361982   -0.339342
     13          6           0       -4.706394   -2.157099   -0.992926
     14          1           0       -4.799638    0.301527    0.277280
     15          1           0       -4.039049    0.512940   -1.296864
     16          1           0       -3.403286   -1.733344    0.678976
     17          1           0       -2.642313   -1.522524   -0.893943
     18          1           0       -4.875213   -1.814455   -2.018936
     19          1           0       -5.640510   -2.026473   -0.437079
     20          1           0       -4.477939   -3.226953   -1.025793
     21          6           0        1.070278   -2.124827    1.052154
     22          6           0        0.681362   -1.503101   -0.138948
     23          6           0        1.511239   -0.558979   -0.750902
     24          6           0        2.728673   -0.259105   -0.141622
     25          6           0        3.144179   -0.861412    1.044915
     26          6           0        2.298280   -1.802566    1.639249
     27          1           0        0.419386   -2.857090    1.520690
     28          1           0       -0.271760   -1.751411   -0.597145
     29          1           0        1.234878   -0.062541   -1.673177
     30          1           0        4.100200   -0.593220    1.477946
     31          1           0        2.602909   -2.283822    2.564256
     32          7           0        3.615706    0.738825   -0.780143
     33          8           0        4.683284    0.985569   -0.223338
     34          8           0        3.226590    1.255360   -1.825330
 ---------------------------------------------------------------------

 SCF Done:  E(RHF) =  -669.535489549     A.U. after   15 cycles
 E2 =    -0.2092021979D+01 EUMP2 =    -0.67162751152771D+03

 The electronic state is 1-A.
 Alpha  occ. eigenvalues --  -20.60752 -20.60746 -15.85805 -11.31164 -11.27730
 Alpha  occ. eigenvalues --  -11.27727 -11.27455 -11.26747 -11.26704 -11.22586
 Alpha  occ. eigenvalues --  -11.22041 -11.21940 -11.21877 -11.21828 -11.21230
 Alpha  occ. eigenvalues --   -1.59827  -1.39381  -1.19332  -1.09045  -1.08724
 Alpha  occ. eigenvalues --   -1.04735  -1.04094  -0.96502  -0.95563  -0.87522
 Alpha  occ. eigenvalues --   -0.86132  -0.82401  -0.80212  -0.78841  -0.77440
 Alpha  occ. eigenvalues --   -0.72023  -0.71150  -0.70437  -0.65712  -0.64982
 Alpha  occ. eigenvalues --   -0.64725  -0.62102  -0.61477  -0.59904  -0.58121
 Alpha  occ. eigenvalues --   -0.55773  -0.55232  -0.53232  -0.53080  -0.52917
 Alpha  occ. eigenvalues --   -0.52810  -0.50448  -0.48796  -0.48779  -0.48479
 Alpha  occ. eigenvalues --   -0.47248  -0.46350  -0.46270  -0.44788  -0.44344
 Alpha  occ. eigenvalues --   -0.37302  -0.36314
 Alpha virt. eigenvalues --    0.05063   0.11291   0.16471   0.19821   0.22753
 Alpha virt. eigenvalues --    0.23735   0.24805   0.26272   0.27510   0.28218
 Alpha virt. eigenvalues --    0.29485   0.29626   0.31217   0.31399   0.31862

 Mulliken charges:
               1
     1  C   -0.299341
     2  C   -0.300409
     3  C   -0.476281
     4  H    0.149107
     5  H    0.147062
     6  H    0.152363
     7  H    0.153549
     8  H    0.158688
     9  H    0.154565
    10  H    0.162403
    11  C   -0.298450
    12  C   -0.303861
    13  C   -0.475182
    14  H    0.152516
    15  H    0.152045
    16  H    0.150363
    17  H    0.144079
    18  H    0.158113
    19  H    0.158659
    20  H    0.159588
    21  C   -0.173698
    22  C   -0.221122
    23  C   -0.174432
    24  C    0.158924
    25  C   -0.171107
    26  C   -0.218405
    27  H    0.226108
    28  H    0.233420
    29  H    0.275088
    30  H    0.275490
    31  H    0.223262
    32  N    0.488095
    33  O   -0.460432
    34  O   -0.460769
 Sum of Mulliken charges =  -0.00000

 Dipole moment (field-independent basis, Debye):
    X=             -3.2540    Y=             -3.4415    Z=              2.2845  Tot=              5.2585
 Quadrupole moment (field-independent basis, Debye-Ang):
   XX=           -109.7765   YY=            -93.8684   ZZ=            -92.4063
   XY=             -9.8615   XZ=              8.8252   YZ=             -1.1190

 Normal termination of Gaussian 16 at Thu May  6 17:09:11 2021.
