 Gaussian 16, Revision A.03,
 Gaussian 16:  EM64L-G16RevA.03 25-Dec-2016

 -------------
 #p 6-31g* mp2
 -------------

 ------------------------------------------------------
 Input file generated by CHIRIPA (05-May-2021 14:51:13)
 ------------------------------------------------------
 Symbolic Z-matrix:
 Charge =  0 Multiplicity = 1

                         Standard orientation:
 ---------------------------------------------------------------------
 Center     Atomic      Atomic             Coordinates (Angstroms)
 Number     Number       Type             X           Y           Z
 ---------------------------------------------------------------------
      1          6           0        3.430199    0.821595   -0.515283
      2          6           0        2.946818    1.941307    0.406981
      3          6           0        2.754888    3.269385   -0.325934
      4          1           0        4.377004    1.123855   -0.983410
      5          1           0        2.706140    0.689860   -1.331236
      6          1           0        3.670878    2.069954    1.221723
      7          1           0        2.001151    1.636266    0.873115
      8          1           0        2.016848    3.163802   -1.127651
      9          1           0        3.696062    3.599954   -0.777062
     10          1           0        2.409054    4.055811    0.352147
     11          6           0        3.626736   -0.512341    0.202852
     12          6           0        4.110117   -1.632053   -0.719413
     13          6           0        4.302048   -2.960131    0.013502
     14          1           0        4.350795   -0.380606    1.018805
     15          1           0        2.679931   -0.814601    0.670979
     16          1           0        5.055784   -1.327012   -1.185546
     17          1           0        3.386058   -1.760700   -1.534154
     18          1           0        3.360873   -3.290700    0.464631
     19          1           0        5.040087   -2.854548    0.815220
     20          1           0        4.647881   -3.746557   -0.664579
     21          6           0       -2.794519   -0.074760   -0.039675
     22          6           0       -1.834758   -0.189631    1.145081
     23          6           0       -0.370103   -0.027670    0.737220
     24          1           0       -2.534796   -0.835179   -0.788843
     25          1           0       -2.653489    0.901667   -0.523510
     26          1           0       -1.978527   -1.164996    1.627376
     27          1           0       -2.096917    0.571026    1.891601
     28          1           0       -0.204774    0.951113    0.275432
     29          1           0       -0.085712   -0.794772    0.009705
     30          1           0        0.298563   -0.113300    1.599434
     31          6           0       -4.262416   -0.234494    0.352107
     32          6           0       -5.222178   -0.119624   -0.832650
     33          6           0       -6.686831   -0.281584   -0.424789
     34          1           0       -4.403446   -1.210921    0.835941
     35          1           0       -4.522138    0.525925    1.101274
     36          1           0       -4.960019   -0.880280   -1.579170
     37          1           0       -5.078408    0.855742   -1.314945
     38          1           0       -6.971223    0.485518    0.302726
     39          1           0       -6.852161   -1.260367    0.037001
     40          1           0       -7.355499   -0.195954   -1.287003
 ---------------------------------------------------------------------

 SCF Done:  E(RHF) =  -470.732265653     A.U. after   11 cycles
 E2 =    -0.1583839709D+01 EUMP2 =    -0.47231610536160D+03

 The electronic state is 1-A.
 Alpha  occ. eigenvalues --  -11.21695 -11.21645 -11.21522 -11.21476 -11.21412
 Alpha  occ. eigenvalues --  -11.21384 -11.21262 -11.21212 -11.21202 -11.21105
 Alpha  occ. eigenvalues --  -11.21021 -11.20991  -1.08508  -1.08306  -1.03622
 Alpha  occ. eigenvalues --   -1.03423  -0.96080  -0.95883  -0.87114  -0.86896
 Alpha  occ. eigenvalues --   -0.79726  -0.79474  -0.78327  -0.78097  -0.65143
 Alpha  occ. eigenvalues --   -0.64950  -0.61144  -0.60738  -0.59459  -0.59237
 Alpha  occ. eigenvalues --   -0.57680  -0.57494  -0.55454  -0.55095  -0.52841
 Alpha  occ. eigenvalues --   -0.52547  -0.52494  -0.52314  -0.50138  -0.49729
 Alpha  occ. eigenvalues --   -0.48006  -0.47799  -0.46823  -0.46364  -0.45915
 Alpha  occ. eigenvalues --   -0.45770  -0.45636  -0.45556  -0.43766  -0.43655
 Alpha virt. eigenvalues --    0.21206   0.22965   0.23923   0.24471   0.25923
 Alpha virt. eigenvalues --    0.26639   0.26911   0.27696   0.27857   0.29571
 Alpha virt. eigenvalues --    0.30611   0.31319   0.31717   0.32031   0.32157

 Mulliken charges:
               1
     1  C   -0.296867
     2  C   -0.307937
     3  C   -0.475920
     4  H    0.148831
     5  H    0.149298
     6  H    0.150575
     7  H    0.162224
     8  H    0.154154
     9  H    0.155020
    10  H    0.159409
    11  C   -0.304318
    12  C   -0.299331
    13  C   -0.475586
    14  H    0.148510
    15  H    0.156745
    16  H    0.151663
    17  H    0.151293
    18  H    0.154751
    19  H    0.155058
    20  H    0.159886
    21  C   -0.299014
    22  C   -0.300128
    23  C   -0.480423
    24  H    0.149679
    25  H    0.149823
    26  H    0.152290
    27  H    0.152512
    28  H    0.158551
    29  H    0.155799
    30  H    0.162747
    31  C   -0.298374
    32  C   -0.299690
    33  C   -0.475751
    34  H    0.149693
    35  H    0.149856
    36  H    0.151989
    37  H    0.152036
    38  H    0.155275
    39  H    0.155253
    40  H    0.160419
 Sum of Mulliken charges =  -0.00000

 Dipole moment (field-independent basis, Debye):
    X=             -0.0957    Y=             -0.0183    Z=              0.0265  Tot=              0.1010
 Quadrupole moment (field-independent basis, Debye-Ang):
   XX=            -85.3785   YY=            -84.9268   ZZ=            -84.9093
   XY=              0.1850   XZ=              0.2913   YZ=              0.6331

 Normal termination of Gaussian 16 at Wed May  5 18:21:49 2021.
