 Gaussian 16, Revision A.03,
 Gaussian 16:  EM64L-G16RevA.03 25-Dec-2016

 -------------
 #p 6-31g* mp2
 -------------

 ------------------------------------------------------
 Input file generated by CHIRIPA (05-May-2021 14:51:12)
 ------------------------------------------------------
 Symbolic Z-matrix:
 Charge =  0 Multiplicity = 1

                         Standard orientation:
 ---------------------------------------------------------------------
 Center     Atomic      Atomic             Coordinates (Angstroms)
 Number     Number       Type             X           Y           Z
 ---------------------------------------------------------------------
      1          6           0       -3.476874    1.171901    0.011853
      2          6           0       -2.082512    1.757123   -0.214541
      3          6           0       -2.007602    3.249152    0.111085
      4          1           0       -4.202220    1.720110   -0.604821
      5          1           0       -3.769871    1.334935    1.058260
      6          1           0       -1.791661    1.591807   -1.259860
      7          1           0       -1.360372    1.207333    0.402599
      8          1           0       -2.272156    3.428694    1.158165
      9          1           0       -2.705895    3.815352   -0.513740
     10          1           0       -1.002061    3.646932   -0.057788
     11          6           0       -3.567683   -0.318840   -0.309350
     12          6           0       -4.962045   -0.904062   -0.082956
     13          6           0       -5.036954   -2.396091   -0.408582
     14          1           0       -3.274686   -0.481874   -1.355757
     15          1           0       -2.842337   -0.867049    0.307324
     16          1           0       -5.684184   -0.354271   -0.700096
     17          1           0       -5.252895   -0.738746    0.962363
     18          1           0       -4.338662   -2.962291    0.216243
     19          1           0       -4.772401   -2.575633   -1.455662
     20          1           0       -6.042496   -2.793870   -0.239710
     21          6           0        4.083259   -0.409723   -0.369373
     22          6           0        5.429255    0.029133    0.208283
     23          6           0        6.541536    0.057773   -0.840432
     24          1           0        4.191612   -1.406537   -0.818334
     25          1           0        3.802399    0.271406   -1.184589
     26          1           0        5.706830   -0.651799    1.023082
     27          1           0        5.317638    1.024938    0.656090
     28          1           0        6.290471    0.751376   -1.649432
     29          1           0        6.681875   -0.934888   -1.280355
     30          1           0        7.494930    0.374168   -0.405929
     31          6           0        2.961298   -0.443339    0.666870
     32          6           0        1.615302   -0.882195    0.089214
     33          6           0        0.503020   -0.910834    1.137929
     34          1           0        3.242157   -1.124467    1.482085
     35          1           0        2.852945    0.553476    1.115832
     36          1           0        1.726919   -1.877999   -0.358593
     37          1           0        1.337726   -0.201262   -0.725585
     38          1           0        0.362682    0.081826    1.577852
     39          1           0        0.754085   -1.604437    1.946930
     40          1           0       -0.450374   -1.227230    0.703426
 ---------------------------------------------------------------------

 SCF Done:  E(RHF) =  -470.732329615     A.U. after   11 cycles
 E2 =    -0.1583755972D+01 EUMP2 =    -0.47231608558655D+03

 The electronic state is 1-A.
 Alpha  occ. eigenvalues --  -11.21615 -11.21608 -11.21588 -11.21472 -11.21415
 Alpha  occ. eigenvalues --  -11.21376 -11.21356 -11.21312 -11.21090 -11.21076
 Alpha  occ. eigenvalues --  -11.21065 -11.21040  -1.08453  -1.08390  -1.03567
 Alpha  occ. eigenvalues --   -1.03479  -0.96008  -0.95956  -0.87040  -0.86962
 Alpha  occ. eigenvalues --   -0.79650  -0.79537  -0.78263  -0.78206  -0.65149
 Alpha  occ. eigenvalues --   -0.64984  -0.61110  -0.60764  -0.59412  -0.59289
 Alpha  occ. eigenvalues --   -0.57671  -0.57514  -0.55354  -0.55205  -0.52789
 Alpha  occ. eigenvalues --   -0.52591  -0.52450  -0.52349  -0.50085  -0.49811
 Alpha  occ. eigenvalues --   -0.47986  -0.47808  -0.46798  -0.46440  -0.45810
 Alpha  occ. eigenvalues --   -0.45750  -0.45718  -0.45562  -0.43776  -0.43700
 Alpha virt. eigenvalues --    0.21543   0.23069   0.23817   0.24298   0.26189
 Alpha virt. eigenvalues --    0.26531   0.26809   0.27578   0.27783   0.28946
 Alpha virt. eigenvalues --    0.30772   0.31323   0.31719   0.32055   0.32204

 Mulliken charges:
               1
     1  C   -0.297238
     2  C   -0.310013
     3  C   -0.475236
     4  H    0.149313
     5  H    0.149142
     6  H    0.150595
     7  H    0.164988
     8  H    0.154769
     9  H    0.154987
    10  H    0.159180
    11  C   -0.304539
    12  C   -0.299130
    13  C   -0.475766
    14  H    0.149184
    15  H    0.155049
    16  H    0.152017
    17  H    0.151992
    18  H    0.154997
    19  H    0.155112
    20  H    0.160296
    21  C   -0.298266
    22  C   -0.299651
    23  C   -0.475712
    24  H    0.149690
    25  H    0.149592
    26  H    0.151927
    27  H    0.151949
    28  H    0.155202
    29  H    0.155192
    30  H    0.160275
    31  C   -0.298726
    32  C   -0.300127
    33  C   -0.484781
    34  H    0.149524
    35  H    0.149747
    36  H    0.152207
    37  H    0.153562
    38  H    0.155813
    39  H    0.155835
    40  H    0.167050
 Sum of Mulliken charges =  -0.00000

 Dipole moment (field-independent basis, Debye):
    X=              0.0227    Y=             -0.0286    Z=              0.0117  Tot=              0.0383
 Quadrupole moment (field-independent basis, Debye-Ang):
   XX=            -85.6517   YY=            -85.0577   ZZ=            -84.2738
   XY=             -0.5114   XZ=              0.7741   YZ=             -0.5677

 Normal termination of Gaussian 16 at Thu May  6 00:42:29 2021.
