 Gaussian 16, Revision A.03,
 Gaussian 16:  EM64L-G16RevA.03 25-Dec-2016

 -------------
 #p 6-31g* mp2
 -------------

 ------------------------------------------------------
 Input file generated by CHIRIPA (05-May-2021 14:53:13)
 ------------------------------------------------------
 Symbolic Z-matrix:
 Charge =  0 Multiplicity = 1

                         Standard orientation:
 ---------------------------------------------------------------------
 Center     Atomic      Atomic             Coordinates (Angstroms)
 Number     Number       Type             X           Y           Z
 ---------------------------------------------------------------------
      1          6           0        2.948231    0.164518    0.250448
      2          6           0        2.432927   -1.257550    0.474432
      3          6           0        3.550811   -2.245538    0.809110
      4          1           0        3.687508    0.156076   -0.562167
      5          1           0        3.478582    0.501125    1.152013
      6          1           0        1.902511   -1.590860   -0.426777
      7          1           0        1.694650   -1.245690    1.286480
      8          1           0        4.075132   -1.939810    1.720273
      9          1           0        4.284174   -2.286941   -0.002719
     10          1           0        3.160179   -3.255923    0.965278
     11          6           0        1.842467    1.163753   -0.085025
     12          6           0        2.357771    2.585821   -0.309009
     13          6           0        1.239887    3.573810   -0.643686
     14          1           0        1.312116    0.827147   -0.986589
     15          1           0        1.103190    1.172196    0.727591
     16          1           0        3.096048    2.573962   -1.121057
     17          1           0        2.888187    2.919131    0.592201
     18          1           0        0.506524    3.615213    0.168142
     19          1           0        0.715566    3.268082   -1.554850
     20          1           0        1.630518    4.584195   -0.799855
     21          6           0       -2.974639    1.384254    1.171053
     22          6           0       -2.857247    1.428807   -0.222057
     23          6           0       -2.247809    0.379995   -0.917131
     24          6           0       -1.764706   -0.702842   -0.184079
     25          6           0       -1.866673   -0.776450    1.204256
     26          6           0       -2.479850    0.283708    1.878517
     27          1           0       -3.449517    2.203403    1.702919
     28          1           0       -3.240594    2.282241   -0.774089
     29          1           0       -2.143698    0.388702   -1.995325
     30          1           0       -1.474918   -1.640513    1.727077
     31          1           0       -2.569632    0.246405    2.960456
     32          7           0       -1.117543   -1.819177   -0.908905
     33          8           0       -0.700046   -2.761915   -0.239890
     34          8           0       -1.040046   -1.730286   -2.132315
 ---------------------------------------------------------------------

 SCF Done:  E(RHF) =  -669.536077635     A.U. after   15 cycles
 E2 =    -0.2094301898D+01 EUMP2 =    -0.67163037953302D+03

 The electronic state is 1-A.
 Alpha  occ. eigenvalues --  -20.60890 -20.60877 -15.85893 -11.31230 -11.27807
 Alpha  occ. eigenvalues --  -11.27794 -11.27549 -11.26829 -11.26810 -11.21530
 Alpha  occ. eigenvalues --  -11.21186 -11.21148 -11.20941 -11.20838 -11.20370
 Alpha  occ. eigenvalues --   -1.59940  -1.39496  -1.19405  -1.08809  -1.08099
 Alpha  occ. eigenvalues --   -1.04807  -1.03170  -0.95660  -0.95644  -0.86681
 Alpha  occ. eigenvalues --   -0.86206  -0.82490  -0.79273  -0.77912  -0.77524
 Alpha  occ. eigenvalues --   -0.72132  -0.71240  -0.70520  -0.65066  -0.64816
 Alpha  occ. eigenvalues --   -0.64727  -0.62158  -0.60571  -0.59041  -0.57237
 Alpha  occ. eigenvalues --   -0.55315  -0.54963  -0.53155  -0.52902  -0.52338
 Alpha  occ. eigenvalues --   -0.52079  -0.49628  -0.48901  -0.48899  -0.47604
 Alpha  occ. eigenvalues --   -0.46311  -0.45522  -0.45300  -0.44697  -0.43420
 Alpha  occ. eigenvalues --   -0.37356  -0.36388
 Alpha virt. eigenvalues --    0.04952   0.11152   0.16460   0.21235   0.23095
 Alpha virt. eigenvalues --    0.24510   0.26548   0.26975   0.27491   0.28132
 Alpha virt. eigenvalues --    0.28544   0.30730   0.31559   0.31798   0.32332

 Mulliken charges:
               1
     1  C   -0.297924
     2  C   -0.302871
     3  C   -0.476226
     4  H    0.150142
     5  H    0.145829
     6  H    0.167543
     7  H    0.145467
     8  H    0.149502
     9  H    0.154454
    10  H    0.166298
    11  C   -0.302084
    12  C   -0.298870
    13  C   -0.474724
    14  H    0.150518
    15  H    0.148103
    16  H    0.153499
    17  H    0.150934
    18  H    0.151543
    19  H    0.152816
    20  H    0.159306
    21  C   -0.171203
    22  C   -0.217196
    23  C   -0.170664
    24  C    0.162948
    25  C   -0.171601
    26  C   -0.219179
    27  H    0.225912
    28  H    0.224135
    29  H    0.275322
    30  H    0.275859
    31  H    0.223606
    32  N    0.487332
    33  O   -0.457538
    34  O   -0.460984
 Sum of Mulliken charges =  -0.00000

 Dipole moment (field-independent basis, Debye):
    X=             -2.3856    Y=              3.7685    Z=              2.4840  Tot=              5.1052
 Quadrupole moment (field-independent basis, Debye-Ang):
   XX=            -87.9611   YY=           -100.4115   ZZ=            -91.2704
   XY=             -5.6133   XZ=             -3.9572   YZ=             -4.3967

 Normal termination of Gaussian 16 at Wed May  5 15:34:30 2021.
