 Gaussian 16, Revision A.03,
 Gaussian 16:  EM64L-G16RevA.03 25-Dec-2016

 -------------
 #p 6-31g* mp2
 -------------

 ------------------------------------------------------
 Input file generated by CHIRIPA (05-May-2021 14:51:09)
 ------------------------------------------------------
 Symbolic Z-matrix:
 Charge =  0 Multiplicity = 1

                         Standard orientation:
 ---------------------------------------------------------------------
 Center     Atomic      Atomic             Coordinates (Angstroms)
 Number     Number       Type             X           Y           Z
 ---------------------------------------------------------------------
      1          6           0       -2.631080   -0.480683   -0.263092
      2          6           0       -2.271810   -1.194387   -1.566755
      3          6           0       -2.357973   -2.716512   -1.450550
      4          1           0       -1.959805   -0.827544    0.534418
      5          1           0       -3.648001   -0.769479    0.036678
      6          1           0       -1.256387   -0.903257   -1.864707
      7          1           0       -2.943893   -0.845644   -2.361298
      8          1           0       -3.372076   -3.025183   -1.176839
      9          1           0       -1.674982   -3.083123   -0.677426
     10          1           0       -2.097135   -3.206562   -2.393776
     11          6           0       -2.549588    1.041494   -0.363418
     12          6           0       -2.908858    1.755198    0.940245
     13          6           0       -2.822695    3.277324    0.824040
     14          1           0       -1.532666    1.330290   -0.663188
     15          1           0       -3.220862    1.388356   -1.160928
     16          1           0       -2.236775    1.406455    1.734788
     17          1           0       -3.924281    1.464068    1.238197
     18          1           0       -3.505686    3.643934    0.050916
     19          1           0       -1.808591    3.585994    0.550329
     20          1           0       -3.083532    3.767373    1.767266
     21          6           0        3.282298   -0.011363    0.133719
     22          6           0        3.240217    1.176507   -0.828144
     23          6           0        4.632224    1.703572   -1.177873
     24          1           0        3.804341    0.287654    1.052961
     25          1           0        3.878289   -0.817509   -0.316079
     26          1           0        2.643328    1.979651   -0.377258
     27          1           0        2.718045    0.874683   -1.745126
     28          1           0        5.233147    0.920168   -1.650919
     29          1           0        5.158004    2.031414   -0.275280
     30          1           0        4.578727    2.552509   -1.866570
     31          6           0        1.898369   -0.549448    0.492791
     32          6           0        1.940451   -1.737318    1.454654
     33          6           0        0.548443   -2.264383    1.804383
     34          1           0        1.302378    0.256697    0.942588
     35          1           0        1.376327   -0.848465   -0.426451
     36          1           0        2.462622   -1.435494    2.371636
     37          1           0        2.537340   -2.540462    1.003768
     38          1           0        0.022663   -2.592226    0.901789
     39          1           0       -0.052479   -1.480979    2.277429
     40          1           0        0.601941   -3.113321    2.493080
 ---------------------------------------------------------------------

 SCF Done:  E(RHF) =  -470.732878903     A.U. after   11 cycles
 E2 =    -0.1584415222D+01 EUMP2 =    -0.47231729412585D+03

 The electronic state is 1-A.
 Alpha  occ. eigenvalues --  -11.21700 -11.21669 -11.21574 -11.21558 -11.21504
 Alpha  occ. eigenvalues --  -11.21436 -11.21312 -11.21225 -11.21170 -11.21118
 Alpha  occ. eigenvalues --  -11.21054 -11.21048  -1.08527  -1.08361  -1.03625
 Alpha  occ. eigenvalues --   -1.03489  -0.96071  -0.95938  -0.87091  -0.86957
 Alpha  occ. eigenvalues --   -0.79711  -0.79537  -0.78346  -0.78163  -0.65172
 Alpha  occ. eigenvalues --   -0.64995  -0.61138  -0.60807  -0.59430  -0.59307
 Alpha  occ. eigenvalues --   -0.57678  -0.57558  -0.55479  -0.55124  -0.52756
 Alpha  occ. eigenvalues --   -0.52654  -0.52513  -0.52370  -0.50159  -0.49739
 Alpha  occ. eigenvalues --   -0.48154  -0.47804  -0.46734  -0.46514  -0.46052
 Alpha  occ. eigenvalues --   -0.45805  -0.45607  -0.45411  -0.43870  -0.43731
 Alpha virt. eigenvalues --    0.19811   0.22741   0.23246   0.24360   0.25613
 Alpha virt. eigenvalues --    0.25865   0.26607   0.27649   0.29129   0.29780
 Alpha virt. eigenvalues --    0.30639   0.31260   0.31498   0.31771   0.32161

 Mulliken charges:
               1
     1  C   -0.304855
     2  C   -0.300995
     3  C   -0.481347
     4  H    0.158479
     5  H    0.148675
     6  H    0.152493
     7  H    0.151898
     8  H    0.155754
     9  H    0.159405
    10  H    0.159886
    11  C   -0.298795
    12  C   -0.299585
    13  C   -0.475605
    14  H    0.150590
    15  H    0.149116
    16  H    0.150827
    17  H    0.151989
    18  H    0.155303
    19  H    0.154899
    20  H    0.159987
    21  C   -0.298292
    22  C   -0.299771
    23  C   -0.475760
    24  H    0.150055
    25  H    0.149947
    26  H    0.151711
    27  H    0.151942
    28  H    0.155371
    29  H    0.155338
    30  H    0.160552
    31  C   -0.301515
    32  C   -0.299360
    33  C   -0.484870
    34  H    0.149657
    35  H    0.151646
    36  H    0.152422
    37  H    0.152438
    38  H    0.162550
    39  H    0.156461
    40  H    0.161360
 Sum of Mulliken charges =  -0.00000

 Dipole moment (field-independent basis, Debye):
    X=              0.0523    Y=             -0.0243    Z=              0.0251  Tot=              0.0629
 Quadrupole moment (field-independent basis, Debye-Ang):
   XX=            -84.6723   YY=            -85.8462   ZZ=            -84.2103
   XY=             -0.5396   XZ=              0.5505   YZ=              0.5167

 Normal termination of Gaussian 16 at Thu May  6 05:19:38 2021.
