 Gaussian 16, Revision A.03,
 Gaussian 16:  EM64L-G16RevA.03 25-Dec-2016

 -------------
 #p 6-31g* mp2
 -------------

 ------------------------------------------------------
 Input file generated by CHIRIPA (05-May-2021 14:51:10)
 ------------------------------------------------------
 Symbolic Z-matrix:
 Charge =  0 Multiplicity = 1

                         Standard orientation:
 ---------------------------------------------------------------------
 Center     Atomic      Atomic             Coordinates (Angstroms)
 Number     Number       Type             X           Y           Z
 ---------------------------------------------------------------------
      1          6           0       -2.013927    1.254081   -0.233276
      2          6           0       -1.970666    2.350066    0.832054
      3          6           0       -0.793465    3.308083    0.647135
      4          1           0       -1.072048    0.689150   -0.207510
      5          1           0       -2.071805    1.720121   -1.226680
      6          1           0       -1.914282    1.882078    1.823227
      7          1           0       -2.912834    2.912331    0.803878
      8          1           0       -0.848051    3.801656   -0.328574
      9          1           0        0.156175    2.765550    0.696568
     10          1           0       -0.781775    4.083521    1.419416
     11          6           0       -3.185218    0.288467   -0.061824
     12          6           0       -3.228479   -0.807518   -1.127154
     13          6           0       -4.405680   -1.765535   -0.942235
     14          1           0       -3.127339   -0.177574    0.931580
     15          1           0       -4.127096    0.853397   -0.087590
     16          1           0       -2.286311   -1.369783   -1.098978
     17          1           0       -3.284863   -0.339531   -2.118327
     18          1           0       -5.355320   -1.223002   -0.991667
     19          1           0       -4.351094   -2.259109    0.033474
     20          1           0       -4.417369   -2.540974   -1.714516
     21          6           0        3.334567   -0.727564   -0.055685
     22          6           0        3.724670    0.634396   -0.630897
     23          6           0        5.198128    0.706279   -1.032829
     24          1           0        3.965257   -0.943991    0.817433
     25          1           0        3.551331   -1.507376   -0.798853
     26          1           0        3.505948    1.411554    0.112610
     27          1           0        3.092848    0.847691   -1.502632
     28          1           0        5.427458   -0.047995   -1.792486
     29          1           0        5.842906    0.519070   -0.168067
     30          1           0        5.455332    1.688476   -1.441483
     31          6           0        1.864578   -0.814984    0.350784
     32          6           0        1.474475   -2.176943    0.925997
     33          6           0        0.001017   -2.248827    1.327929
     34          1           0        1.647814   -0.035171    1.093954
     35          1           0        1.233888   -0.598557   -0.522334
     36          1           0        2.106297   -2.390239    1.797732
     37          1           0        1.693197   -2.954102    0.182490
     38          1           0       -0.643761   -2.061618    0.463166
     39          1           0       -0.228314   -1.494553    2.087586
     40          1           0       -0.256188   -3.231023    1.736582
 ---------------------------------------------------------------------

 SCF Done:  E(RHF) =  -470.733021208     A.U. after   11 cycles
 E2 =    -0.1584530815D+01 EUMP2 =    -0.47231755202286D+03

 The electronic state is 1-A.
 Alpha  occ. eigenvalues --  -11.21693 -11.21639 -11.21577 -11.21541 -11.21493
 Alpha  occ. eigenvalues --  -11.21421 -11.21318 -11.21245 -11.21156 -11.21095
 Alpha  occ. eigenvalues --  -11.21041 -11.21017  -1.08516  -1.08360  -1.03599
 Alpha  occ. eigenvalues --   -1.03482  -0.96052  -0.95923  -0.87077  -0.86935
 Alpha  occ. eigenvalues --   -0.79670  -0.79550  -0.78407  -0.78104  -0.65194
 Alpha  occ. eigenvalues --   -0.64970  -0.61091  -0.60807  -0.59417  -0.59297
 Alpha  occ. eigenvalues --   -0.57652  -0.57538  -0.55370  -0.55184  -0.52738
 Alpha  occ. eigenvalues --   -0.52634  -0.52489  -0.52341  -0.50095  -0.49773
 Alpha  occ. eigenvalues --   -0.48031  -0.47851  -0.46816  -0.46556  -0.46196
 Alpha  occ. eigenvalues --   -0.45778  -0.45671  -0.45151  -0.43854  -0.43725
 Alpha virt. eigenvalues --    0.20062   0.22351   0.23496   0.24382   0.25472
 Alpha virt. eigenvalues --    0.26060   0.26503   0.27943   0.28607   0.29927
 Alpha virt. eigenvalues --    0.30618   0.31245   0.31667   0.31974   0.32339

 Mulliken charges:
               1
     1  C   -0.306066
     2  C   -0.299056
     3  C   -0.477230
     4  H    0.158475
     5  H    0.148483
     6  H    0.151303
     7  H    0.151639
     8  H    0.155059
     9  H    0.156550
    10  H    0.159700
    11  C   -0.298491
    12  C   -0.304374
    13  C   -0.475693
    14  H    0.151069
    15  H    0.149462
    16  H    0.154534
    17  H    0.151932
    18  H    0.155261
    19  H    0.155885
    20  H    0.159850
    21  C   -0.298102
    22  C   -0.300182
    23  C   -0.475771
    24  H    0.149948
    25  H    0.149849
    26  H    0.152119
    27  H    0.152549
    28  H    0.155266
    29  H    0.155223
    30  H    0.160626
    31  C   -0.303073
    32  C   -0.299331
    33  C   -0.484019
    34  H    0.150390
    35  H    0.152702
    36  H    0.152384
    37  H    0.152266
    38  H    0.162782
    39  H    0.155215
    40  H    0.160867
 Sum of Mulliken charges =  -0.00000

 Dipole moment (field-independent basis, Debye):
    X=              0.0472    Y=             -0.0348    Z=             -0.0003  Tot=              0.0586
 Quadrupole moment (field-independent basis, Debye-Ang):
   XX=            -86.0937   YY=            -85.0036   ZZ=            -83.6792
   XY=             -1.0753   XZ=              0.8748   YZ=             -0.0070

 Normal termination of Gaussian 16 at Wed May  5 21:26:31 2021.
