 Gaussian 16, Revision A.03,
 Gaussian 16:  EM64L-G16RevA.03 25-Dec-2016

 -------------
 #p 6-31g* mp2
 -------------

 ------------------------------------------------------
 Input file generated by CHIRIPA (05-May-2021 14:55:23)
 ------------------------------------------------------
 Symbolic Z-matrix:
 Charge =  0 Multiplicity = 1

                         Standard orientation:
 ---------------------------------------------------------------------
 Center     Atomic      Atomic             Coordinates (Angstroms)
 Number     Number       Type             X           Y           Z
 ---------------------------------------------------------------------
      1          6           0       -6.212067    0.923170    0.508355
      2          6           0       -5.918812   -0.416958    0.781449
      3          6           0       -4.666781   -0.949552    0.460030
      4          6           0       -3.727401   -0.109813   -0.136369
      5          6           0       -3.989496    1.229432   -0.421009
      6          6           0       -5.248173    1.740647   -0.090946
      7          1           0       -7.187256    1.328598    0.761398
      8          1           0       -6.665445   -1.054157    1.246809
      9          1           0       -4.413209   -1.983467    0.660378
     10          1           0       -3.224777    1.840000   -0.885583
     11          1           0       -5.473137    2.781781   -0.304195
     12          7           0       -2.398414   -0.662329   -0.481216
     13          8           0       -1.588074    0.098272   -1.006071
     14          8           0       -2.192258   -1.845532   -0.220123
     15          6           0        5.646025    0.466222    0.287101
     16          6           0        6.995611   -0.137773   -0.102503
     17          6           0        8.175438    0.758619    0.274704
     18          1           0        5.535197    1.444815   -0.199745
     19          1           0        5.634521    0.652712    1.369914
     20          1           0        7.004053   -0.324351   -1.184045
     21          1           0        7.103157   -1.115127    0.385175
     22          1           0        8.195179    0.935139    1.355005
     23          1           0        8.095513    1.730408   -0.223130
     24          1           0        9.130303    0.307626   -0.012869
     25          6           0        4.456845   -0.418220   -0.083494
     26          6           0        3.107259    0.185776    0.306111
     27          6           0        1.927433   -0.710616   -0.071095
     28          1           0        4.468349   -0.604710   -1.166306
     29          1           0        4.567673   -1.396812    0.403353
     30          1           0        2.999714    1.163130   -0.181566
     31          1           0        3.098818    0.372354    1.387654
     32          1           0        2.007358   -1.682405    0.426739
     33          1           0        1.907690   -0.887136   -1.151398
     34          1           0        0.972568   -0.259623    0.216478
 ---------------------------------------------------------------------

 SCF Done:  E(RHF) =  -669.535948033     A.U. after   15 cycles
 E2 =    -0.2090881112D+01 EUMP2 =    -0.67162682914510D+03

 The electronic state is 1-A.
 Alpha  occ. eigenvalues --  -20.60920 -20.60915 -15.85948 -11.31287 -11.27851
 Alpha  occ. eigenvalues --  -11.27847 -11.27590 -11.26860 -11.26850 -11.20986
 Alpha  occ. eigenvalues --  -11.20629 -11.20573 -11.20409 -11.20331 -11.19213
 Alpha  occ. eigenvalues --   -1.59977  -1.39533  -1.19455  -1.08856  -1.07532
 Alpha  occ. eigenvalues --   -1.04853  -1.02523  -0.95696  -0.94930  -0.86253
 Alpha  occ. eigenvalues --   -0.85935  -0.82527  -0.78621  -0.77580  -0.77308
 Alpha  occ. eigenvalues --   -0.72161  -0.71298  -0.70563  -0.65109  -0.64855
 Alpha  occ. eigenvalues --   -0.64177  -0.62200  -0.59934  -0.58378  -0.56538
 Alpha  occ. eigenvalues --   -0.55356  -0.54236  -0.53186  -0.52945  -0.51601
 Alpha  occ. eigenvalues --   -0.51364  -0.48976  -0.48914  -0.48795  -0.46913
 Alpha  occ. eigenvalues --   -0.45695  -0.44950  -0.44829  -0.44766  -0.42715
 Alpha  occ. eigenvalues --   -0.37434  -0.36455
 Alpha virt. eigenvalues --    0.04923   0.11200   0.16416   0.21339   0.23688
 Alpha virt. eigenvalues --    0.25387   0.27253   0.27488   0.28211   0.28329
 Alpha virt. eigenvalues --    0.29151   0.30889   0.32370   0.32449   0.32579

 Mulliken charges:
               1
     1  C   -0.170613
     2  C   -0.218579
     3  C   -0.170815
     4  C    0.158473
     5  C   -0.170881
     6  C   -0.218550
     7  H    0.225960
     8  H    0.223802
     9  H    0.275917
    10  H    0.275771
    11  H    0.223793
    12  N    0.487701
    13  O   -0.459081
    14  O   -0.458342
    15  C   -0.297229
    16  C   -0.298944
    17  C   -0.475159
    18  H    0.148048
    19  H    0.147532
    20  H    0.151403
    21  H    0.151173
    22  H    0.154098
    23  H    0.154212
    24  H    0.158486
    25  C   -0.297141
    26  C   -0.300950
    27  C   -0.473917
    28  H    0.148858
    29  H    0.148052
    30  H    0.148908
    31  H    0.146030
    32  H    0.149594
    33  H    0.156714
    34  H    0.175676
 Sum of Mulliken charges =  -0.00000

 Dipole moment (field-independent basis, Debye):
    X=             -5.0726    Y=              1.9125    Z=              1.1584  Tot=              5.5436
 Quadrupole moment (field-independent basis, Debye-Ang):
   XX=            -62.3492   YY=            -91.4712   ZZ=            -94.4993
   XY=             -6.0964   XZ=             -4.9421   YZ=             -2.8265

 Normal termination of Gaussian 16 at Wed May  5 22:19:32 2021.
