 Gaussian 16, Revision A.03,
 Gaussian 16:  EM64L-G16RevA.03 25-Dec-2016

 -------------
 #p 6-31g* mp2
 -------------

 ------------------------------------------------------
 Input file generated by CHIRIPA (05-May-2021 14:57:24)
 ------------------------------------------------------
 Symbolic Z-matrix:
 Charge =  0 Multiplicity = 1

                         Standard orientation:
 ---------------------------------------------------------------------
 Center     Atomic      Atomic             Coordinates (Angstroms)
 Number     Number       Type             X           Y           Z
 ---------------------------------------------------------------------
      1          6           0       -2.891304    2.474589    0.349499
      2          6           0       -3.641043    1.720692    1.258373
      3          6           0       -3.802090    0.343942    1.076238
      4          6           0       -3.196869   -0.249079   -0.030706
      5          6           0       -2.443891    0.474947   -0.953799
      6          6           0       -2.296170    1.850411   -0.751744
      7          1           0       -2.771375    3.543581    0.498724
      8          1           0       -4.104367    2.202767    2.114515
      9          1           0       -4.377223   -0.263613    1.764364
     10          1           0       -1.993988   -0.033739   -1.797744
     11          1           0       -1.713359    2.433390   -1.459212
     12          7           0       -3.360308   -1.705901   -0.234068
     13          8           0       -2.817009   -2.204605   -1.217307
     14          8           0       -4.028617   -2.321469    0.593625
     15          6           0        5.569808   -0.416950    0.649193
     16          6           0        5.259440   -0.013468   -0.653648
     17          6           0        3.933228    0.225358   -1.026032
     18          6           0        2.937921    0.050153   -0.065844
     19          6           0        3.215281   -0.350921    1.240104
     20          6           0        4.548538   -0.584094    1.590252
     21          1           0        6.602777   -0.600279    0.929833
     22          1           0        6.050517    0.117141   -1.386576
     23          1           0        3.664831    0.538534   -2.027681
     24          1           0        2.405050   -0.472665    1.948710
     25          1           0        4.786626   -0.897357    2.602786
     26          7           0        1.530190    0.299996   -0.448299
     27          8           0        0.671600    0.138502    0.416211
     28          8           0        1.312057    0.652583   -1.605338
 ---------------------------------------------------------------------

 SCF Done:  E(RHF) =  -868.339376275     A.U. after   16 cycles
 E2 =    -0.2600122742D+01 EUMP2 =    -0.87093949901646D+03

 The electronic state is 1-A.
 Alpha  occ. eigenvalues --  -20.61340 -20.61311 -20.59466 -20.59447 -15.86337
 Alpha  occ. eigenvalues --  -15.84501 -11.31499 -11.29531 -11.28053 -11.28031
 Alpha  occ. eigenvalues --  -11.27756 -11.27020 -11.27004 -11.26231 -11.26002
 Alpha  occ. eigenvalues --  -11.25932 -11.25232 -11.24975  -1.60383  -1.58536
 Alpha  occ. eigenvalues --   -1.39941  -1.38100  -1.19654  -1.17719  -1.09091
 Alpha  occ. eigenvalues --   -1.07213  -1.05026  -1.03081  -0.95960  -0.94090
 Alpha  occ. eigenvalues --   -0.86434  -0.84538  -0.82798  -0.80933  -0.77867
 Alpha  occ. eigenvalues --   -0.75989  -0.72573  -0.71676  -0.70764  -0.70746
 Alpha  occ. eigenvalues --   -0.69838  -0.68933  -0.65311  -0.65031  -0.63412
 Alpha  occ. eigenvalues --   -0.63149  -0.62375  -0.60463  -0.55545  -0.53721
 Alpha  occ. eigenvalues --   -0.53365  -0.53118  -0.51541  -0.51222  -0.49347
 Alpha  occ. eigenvalues --   -0.49190  -0.47503  -0.47470  -0.45386  -0.43579
 Alpha  occ. eigenvalues --   -0.37624  -0.36618  -0.35742  -0.34546
 Alpha virt. eigenvalues --    0.04646   0.06545   0.11040   0.13004   0.16194
 Alpha virt. eigenvalues --    0.18062   0.21195   0.22888   0.27115   0.28068
 Alpha virt. eigenvalues --    0.28847   0.29732   0.30780   0.32277   0.32379

 Mulliken charges:
               1
     1  C   -0.171623
     2  C   -0.219900
     3  C   -0.172698
     4  C    0.157023
     5  C   -0.148642
     6  C   -0.212177
     7  H    0.218225
     8  H    0.215481
     9  H    0.269009
    10  H    0.278531
    11  H    0.224690
    12  N    0.488394
    13  O   -0.462367
    14  O   -0.467640
    15  C   -0.169988
    16  C   -0.218562
    17  C   -0.170446
    18  C    0.158553
    19  C   -0.170043
    20  C   -0.218550
    21  H    0.226880
    22  H    0.224347
    23  H    0.275077
    24  H    0.276860
    25  H    0.224905
    26  N    0.489500
    27  O   -0.456090
    28  O   -0.468749
 Sum of Mulliken charges =  -0.00000

 Dipole moment (field-independent basis, Debye):
    X=              6.0669    Y=              4.2139    Z=              1.9478  Tot=              7.6393
 Quadrupole moment (field-independent basis, Debye-Ang):
   XX=            -79.6681   YY=           -109.3277   ZZ=            -97.7756
   XY=            -18.5279   XZ=             -2.0786   YZ=             -1.9649

 Normal termination of Gaussian 16 at Thu May  6 01:53:35 2021.
