 Gaussian 16, Revision A.03,
 Gaussian 16:  EM64L-G16RevA.03 25-Dec-2016

 -------------
 #p 6-31g* mp2
 -------------

 ------------------------------------------------------
 Input file generated by CHIRIPA (05-May-2021 14:51:11)
 ------------------------------------------------------
 Symbolic Z-matrix:
 Charge =  0 Multiplicity = 1

                         Standard orientation:
 ---------------------------------------------------------------------
 Center     Atomic      Atomic             Coordinates (Angstroms)
 Number     Number       Type             X           Y           Z
 ---------------------------------------------------------------------
      1          6           0        4.794047   -0.592662    0.242423
      2          6           0        6.228504   -0.571875   -0.286619
      3          6           0        7.107999   -1.650129    0.347141
      4          1           0        4.810230   -0.460458    1.332929
      5          1           0        4.355463   -1.582383    0.054026
      6          1           0        6.663786    0.417956   -0.098521
      7          1           0        6.208892   -0.703952   -1.376016
      8          1           0        6.699852   -2.646316    0.148076
      9          1           0        7.157330   -1.518033    1.432829
     10          1           0        8.129131   -1.617216   -0.045371
     11          6           0        3.902569    0.479472   -0.381696
     12          6           0        2.468111    0.458684    0.147345
     13          6           0        1.588616    1.536938   -0.486414
     14          1           0        4.341152    1.469192   -0.193299
     15          1           0        3.886385    0.347267   -1.472203
     16          1           0        2.487723    0.590762    1.236743
     17          1           0        2.032829   -0.531146   -0.040752
     18          1           0        1.539285    1.404843   -1.572102
     19          1           0        1.996763    2.533126   -0.287349
     20          1           0        0.567484    1.504025   -0.093902
     21          6           0       -3.891881    0.500342    0.491768
     22          6           0       -3.146279    1.555315   -0.326212
     23          6           0       -2.237191    2.435267    0.532298
     24          1           0       -4.488791    1.000693    1.266555
     25          1           0       -3.161213   -0.129323    1.018114
     26          1           0       -3.878103    2.181932   -0.851951
     27          1           0       -2.551225    1.052405   -1.099264
     28          1           0       -1.485338    1.827114    1.045588
     29          1           0       -2.819755    2.963058    1.294306
     30          1           0       -1.713931    3.182389   -0.072572
     31          6           0       -4.804734   -0.387151   -0.352496
     32          6           0       -5.550337   -1.442125    0.465485
     33          6           0       -6.459425   -2.322076   -0.393025
     34          1           0       -5.535403    0.242514   -0.878841
     35          1           0       -4.207825   -0.887503   -1.127282
     36          1           0       -6.145390   -0.939215    1.238537
     37          1           0       -4.818512   -2.068742    0.991224
     38          1           0       -5.876860   -2.849867   -1.155032
     39          1           0       -7.211278   -1.713923   -0.906315
     40          1           0       -6.982685   -3.069199    0.211846
 ---------------------------------------------------------------------

 SCF Done:  E(RHF) =  -470.733021919     A.U. after   11 cycles
 E2 =    -0.1582419251D+01 EUMP2 =    -0.47231544116914D+03

 The electronic state is 1-A.
 Alpha  occ. eigenvalues --  -11.21608 -11.21605 -11.21594 -11.21579 -11.21411
 Alpha  occ. eigenvalues --  -11.21390 -11.21351 -11.21330 -11.21074 -11.21072
 Alpha  occ. eigenvalues --  -11.21066 -11.20968  -1.08439  -1.08411  -1.03555
 Alpha  occ. eigenvalues --   -1.03492  -0.96033  -0.95913  -0.87071  -0.86908
 Alpha  occ. eigenvalues --   -0.79632  -0.79539  -0.78248  -0.78227  -0.65076
 Alpha  occ. eigenvalues --   -0.65043  -0.61001  -0.60903  -0.59431  -0.59243
 Alpha  occ. eigenvalues --   -0.57603  -0.57577  -0.55300  -0.55237  -0.52821
 Alpha  occ. eigenvalues --   -0.52506  -0.52446  -0.52322  -0.49920  -0.49877
 Alpha  occ. eigenvalues --   -0.47951  -0.47845  -0.46636  -0.46597  -0.45791
 Alpha  occ. eigenvalues --   -0.45767  -0.45714  -0.45695  -0.43840  -0.43676
 Alpha virt. eigenvalues --    0.21752   0.23030   0.23563   0.25007   0.26543
 Alpha virt. eigenvalues --    0.26663   0.27300   0.27417   0.27608   0.28877
 Alpha virt. eigenvalues --    0.30630   0.31432   0.31505   0.31917   0.32068

 Mulliken charges:
               1
     1  C   -0.298205
     2  C   -0.299622
     3  C   -0.475688
     4  H    0.149596
     5  H    0.149336
     6  H    0.151947
     7  H    0.151899
     8  H    0.155118
     9  H    0.155168
    10  H    0.160228
    11  C   -0.298291
    12  C   -0.299269
    13  C   -0.483962
    14  H    0.149568
    15  H    0.149548
    16  H    0.151609
    17  H    0.151115
    18  H    0.154282
    19  H    0.154870
    20  H    0.170349
    21  C   -0.298351
    22  C   -0.301210
    23  C   -0.478840
    24  H    0.149719
    25  H    0.149507
    26  H    0.152300
    27  H    0.152930
    28  H    0.156142
    29  H    0.155852
    30  H    0.162271
    31  C   -0.298303
    32  C   -0.299669
    33  C   -0.475708
    34  H    0.149576
    35  H    0.149664
    36  H    0.151960
    37  H    0.151935
    38  H    0.155164
    39  H    0.155200
    40  H    0.160267
 Sum of Mulliken charges =  -0.00000

 Dipole moment (field-independent basis, Debye):
    X=             -0.0338    Y=              0.0194    Z=              0.0033  Tot=              0.0391
 Quadrupole moment (field-independent basis, Debye-Ang):
   XX=            -85.2635   YY=            -84.9258   ZZ=            -84.5997
   XY=             -0.3211   XZ=             -0.5044   YZ=              0.5219

 Normal termination of Gaussian 16 at Thu May  6 00:39:20 2021.
