 Gaussian 16, Revision A.03,
 Gaussian 16:  EM64L-G16RevA.03 25-Dec-2016

 -------------
 #p 6-31g* mp2
 -------------

 ------------------------------------------------------
 Input file generated by CHIRIPA (05-May-2021 14:55:20)
 ------------------------------------------------------
 Symbolic Z-matrix:
 Charge =  0 Multiplicity = 1

                         Standard orientation:
 ---------------------------------------------------------------------
 Center     Atomic      Atomic             Coordinates (Angstroms)
 Number     Number       Type             X           Y           Z
 ---------------------------------------------------------------------
      1          6           0        2.864670    1.646521    1.312843
      2          6           0        2.232829    1.788681    0.073050
      3          6           0        1.873787    0.662894   -0.674105
      4          6           0        2.162946   -0.595614   -0.148904
      5          6           0        2.791427   -0.769923    1.083134
      6          6           0        3.141465    0.369923    1.813047
      7          1           0        3.140085    2.526520    1.886554
      8          1           0        2.016629    2.778865   -0.317897
      9          1           0        1.383721    0.744121   -1.636734
     10          1           0        2.993906   -1.770045    1.446696
     11          1           0        3.632065    0.256498    2.775591
     12          7           0        1.787610   -1.794876   -0.930756
     13          8           0        2.053369   -2.892599   -0.445973
     14          8           0        1.234771   -1.614427   -2.013550
     15          6           0       -2.459924    0.883175   -0.515921
     16          6           0       -1.977086    2.264418   -0.072055
     17          6           0       -1.202858    2.999843   -1.166367
     18          1           0       -1.594302    0.280349   -0.822916
     19          1           0       -3.095597    0.993019   -1.405442
     20          1           0       -1.343635    2.152130    0.817185
     21          1           0       -2.843938    2.863962    0.234100
     22          1           0       -1.829433    3.141161   -2.052954
     23          1           0       -0.320606    2.425284   -1.466556
     24          1           0       -0.867086    3.984945   -0.827709
     25          6           0       -3.235578    0.135605    0.567235
     26          6           0       -3.718416   -1.245639    0.123370
     27          6           0       -4.492643   -1.981064    1.217682
     28          1           0       -2.599904    0.025761    1.456757
     29          1           0       -4.101199    0.738431    0.874231
     30          1           0       -2.851564   -1.845182   -0.182785
     31          1           0       -4.351866   -1.133351   -0.765870
     32          1           0       -5.374896   -1.406505    1.517871
     33          1           0       -3.866069   -2.122382    2.104268
     34          1           0       -4.828416   -2.966166    0.879024
 ---------------------------------------------------------------------

 SCF Done:  E(RHF) =  -669.535045724     A.U. after   15 cycles
 E2 =    -0.2093311843D+01 EUMP2 =    -0.67162835756733D+03

 The electronic state is 1-A.
 Alpha  occ. eigenvalues --  -20.60873 -20.60867 -15.85915 -11.31272 -11.27827
 Alpha  occ. eigenvalues --  -11.27822 -11.27558 -11.26845 -11.26813 -11.21866
 Alpha  occ. eigenvalues --  -11.21656 -11.21368 -11.21322 -11.21259 -11.20825
 Alpha  occ. eigenvalues --   -1.59941  -1.39495  -1.19441  -1.08833  -1.08427
 Alpha  occ. eigenvalues --   -1.04851  -1.03582  -0.96067  -0.95671  -0.87095
 Alpha  occ. eigenvalues --   -0.86233  -0.82507  -0.79660  -0.78189  -0.77551
 Alpha  occ. eigenvalues --   -0.72132  -0.71263  -0.70556  -0.65154  -0.65022
 Alpha  occ. eigenvalues --   -0.64838  -0.62289  -0.60912  -0.59459  -0.57641
 Alpha  occ. eigenvalues --   -0.55455  -0.55243  -0.53149  -0.52965  -0.52747
 Alpha  occ. eigenvalues --   -0.52473  -0.50021  -0.48890  -0.48886  -0.47962
 Alpha  occ. eigenvalues --   -0.46665  -0.45744  -0.45639  -0.44875  -0.43815
 Alpha  occ. eigenvalues --   -0.37413  -0.36400
 Alpha virt. eigenvalues --    0.04940   0.11121   0.16374   0.20443   0.23053
 Alpha virt. eigenvalues --    0.24198   0.25788   0.26771   0.27149   0.28106
 Alpha virt. eigenvalues --    0.29416   0.30556   0.31386   0.31552   0.32001

 Mulliken charges:
               1
     1  C   -0.171952
     2  C   -0.216875
     3  C   -0.174240
     4  C    0.158146
     5  C   -0.171412
     6  C   -0.218306
     7  H    0.226106
     8  H    0.227088
     9  H    0.277474
    10  H    0.275737
    11  H    0.223793
    12  N    0.488295
    13  O   -0.459728
    14  O   -0.460676
    15  C   -0.301561
    16  C   -0.299710
    17  C   -0.477624
    18  H    0.155218
    19  H    0.151060
    20  H    0.151417
    21  H    0.152984
    22  H    0.160389
    23  H    0.146358
    24  H    0.155714
    25  C   -0.298479
    26  C   -0.301275
    27  C   -0.475680
    28  H    0.148245
    29  H    0.148166
    30  H    0.159372
    31  H    0.152338
    32  H    0.153231
    33  H    0.154359
    34  H    0.162028
 Sum of Mulliken charges =  -0.00000

 Dipole moment (field-independent basis, Debye):
    X=              1.3139    Y=              4.1271    Z=              2.7520  Tot=              5.1315
 Quadrupole moment (field-independent basis, Debye-Ang):
   XX=            -88.3982   YY=            -98.9119   ZZ=            -93.7526
   XY=              6.5955   XZ=              8.3782   YZ=             -4.2613

 Normal termination of Gaussian 16 at Wed May  5 22:11:08 2021.
