 Gaussian 16, Revision A.03,
 Gaussian 16:  EM64L-G16RevA.03 25-Dec-2016

 -------------
 #p 6-31g* mp2
 -------------

 ------------------------------------------------------
 Input file generated by CHIRIPA (05-May-2021 14:55:22)
 ------------------------------------------------------
 Symbolic Z-matrix:
 Charge =  0 Multiplicity = 1

                         Standard orientation:
 ---------------------------------------------------------------------
 Center     Atomic      Atomic             Coordinates (Angstroms)
 Number     Number       Type             X           Y           Z
 ---------------------------------------------------------------------
      1          6           0        2.178429    2.032589   -0.788546
      2          6           0        3.564450    2.159400   -0.649319
      3          6           0        4.352270    1.045449   -0.344358
      4          6           0        3.718182   -0.185699   -0.184685
      5          6           0        2.339536   -0.344181   -0.317012
      6          6           0        1.571465    0.783405   -0.622241
      7          1           0        1.574102    2.903228   -1.025551
      8          1           0        4.038541    3.128289   -0.777916
      9          1           0        5.427295    1.115267   -0.230936
     10          1           0        1.895548   -1.323120   -0.182953
     11          1           0        0.495274    0.681949   -0.729776
     12          7           0        4.541758   -1.372207    0.138306
     13          8           0        3.958972   -2.445788    0.274025
     14          8           0        5.754468   -1.206143    0.249631
     15          6           0       -5.340308    0.031469    0.195899
     16          6           0       -5.842923   -0.862512   -0.938191
     17          6           0       -7.354837   -0.763358   -1.143316
     18          1           0       -5.856707   -0.242065    1.126198
     19          1           0       -5.614545    1.073579   -0.019037
     20          1           0       -5.566609   -1.902447   -0.721855
     21          1           0       -5.325128   -0.586947   -1.865859
     22          1           0       -7.644378    0.264723   -1.383768
     23          1           0       -7.887231   -1.058252   -0.233264
     24          1           0       -7.692641   -1.410495   -1.958769
     25          6           0       -3.830755   -0.056689    0.413169
     26          6           0       -3.328140    0.837293    1.547260
     27          6           0       -1.816225    0.738139    1.752384
     28          1           0       -3.556518   -1.098797    0.628106
     29          1           0       -3.314356    0.216845   -0.517130
     30          1           0       -3.845936    0.561728    2.474927
     31          1           0       -3.604454    1.877227    1.330923
     32          1           0       -1.283832    1.033032    0.842332
     33          1           0       -1.526686   -0.289942    1.992836
     34          1           0       -1.478422    1.385275    2.567837
 ---------------------------------------------------------------------

 SCF Done:  E(RHF) =  -669.535360825     A.U. after   15 cycles
 E2 =    -0.2090910881D+01 EUMP2 =    -0.67162627170550D+03

 The electronic state is 1-A.
 Alpha  occ. eigenvalues --  -20.60729 -20.60724 -15.85782 -11.31142 -11.27715
 Alpha  occ. eigenvalues --  -11.27703 -11.27458 -11.26731 -11.26700 -11.22260
 Alpha  occ. eigenvalues --  -11.22024 -11.22012 -11.21899 -11.21860 -11.21408
 Alpha  occ. eigenvalues --   -1.59804  -1.39358  -1.19315  -1.08993  -1.08713
 Alpha  occ. eigenvalues --   -1.04718  -1.04089  -0.96551  -0.95548  -0.87571
 Alpha  occ. eigenvalues --   -0.86118  -0.82380  -0.80157  -0.78796  -0.77426
 Alpha  occ. eigenvalues --   -0.72001  -0.71127  -0.70427  -0.65634  -0.64968
 Alpha  occ. eigenvalues --   -0.64743  -0.62108  -0.61462  -0.59913  -0.58151
 Alpha  occ. eigenvalues --   -0.55866  -0.55220  -0.53246  -0.53128  -0.53002
 Alpha  occ. eigenvalues --   -0.52692  -0.50484  -0.48766  -0.48755  -0.48456
 Alpha  occ. eigenvalues --   -0.47184  -0.46340  -0.46250  -0.44764  -0.44335
 Alpha  occ. eigenvalues --   -0.37295  -0.36308
 Alpha virt. eigenvalues --    0.05108   0.11271   0.16574   0.20156   0.22521
 Alpha virt. eigenvalues --    0.23773   0.25398   0.26447   0.27216   0.28245
 Alpha virt. eigenvalues --    0.28789   0.30062   0.31276   0.31471   0.32047

 Mulliken charges:
               1
     1  C   -0.171827
     2  C   -0.218560
     3  C   -0.171026
     4  C    0.158539
     5  C   -0.171928
     6  C   -0.218763
     7  H    0.225136
     8  H    0.223194
     9  H    0.275443
    10  H    0.275792
    11  H    0.227288
    12  N    0.488089
    13  O   -0.460493
    14  O   -0.460615
    15  C   -0.298534
    16  C   -0.300050
    17  C   -0.476020
    18  H    0.151656
    19  H    0.149665
    20  H    0.153215
    21  H    0.151145
    22  H    0.155245
    23  H    0.156207
    24  H    0.161576
    25  C   -0.298213
    26  C   -0.300051
    27  C   -0.477427
    28  H    0.151432
    29  H    0.144192
    30  H    0.155758
    31  H    0.152001
    32  H    0.144768
    33  H    0.158463
    34  H    0.164701
 Sum of Mulliken charges =  -0.00000

 Dipole moment (field-independent basis, Debye):
    X=             -3.0504    Y=              4.1629    Z=             -1.0645  Tot=              5.2696
 Quadrupole moment (field-independent basis, Debye-Ang):
   XX=           -113.7029   YY=            -94.5538   ZZ=            -94.6657
   XY=             19.0899   XZ=             -4.3324   YZ=             -1.1405

 Normal termination of Gaussian 16 at Thu May  6 19:12:55 2021.
