 Gaussian 16, Revision A.03,
 Gaussian 16:  EM64L-G16RevA.03 25-Dec-2016

 -------------
 #p 6-31g* mp2
 -------------

 ------------------------------------------------------
 Input file generated by CHIRIPA (05-May-2021 14:51:07)
 ------------------------------------------------------
 Symbolic Z-matrix:
 Charge =  0 Multiplicity = 1

                         Standard orientation:
 ---------------------------------------------------------------------
 Center     Atomic      Atomic             Coordinates (Angstroms)
 Number     Number       Type             X           Y           Z
 ---------------------------------------------------------------------
      1          6           0        4.543004   -0.630319    0.175442
      2          6           0        5.555769    0.166934   -0.647162
      3          6           0        6.966422   -0.418639   -0.576762
      4          1           0        4.875670   -0.664224    1.221926
      5          1           0        4.527910   -1.669412   -0.181563
      6          1           0        5.567944    1.204545   -0.289626
      7          1           0        5.220554    0.199108   -1.691773
      8          1           0        6.975923   -1.446833   -0.952697
      9          1           0        7.325286   -0.435683    0.457417
     10          1           0        7.674256    0.166733   -1.171885
     11          6           0        3.128194   -0.057261    0.115047
     12          6           0        2.115429   -0.854514    0.937651
     13          6           0        0.704776   -0.268941    0.867251
     14          1           0        3.143288    0.981832    0.472052
     15          1           0        2.795528   -0.023356   -0.931437
     16          1           0        2.450644   -0.886688    1.982262
     17          1           0        2.103254   -1.892125    0.580115
     18          1           0        0.345912   -0.251897   -0.166928
     19          1           0        0.695275    0.759253    1.243186
     20          1           0       -0.003058   -0.854313    1.462373
     21          6           0       -4.408045   -0.050418    0.171517
     22          6           0       -5.021503   -1.089300   -0.767833
     23          6           0       -6.165455   -1.869821   -0.119792
     24          1           0       -4.043263   -0.554269    1.077062
     25          1           0       -5.191700    0.647896    0.496534
     26          1           0       -4.236642   -1.784624   -1.092076
     27          1           0       -5.384695   -0.582944   -1.671331
     28          1           0       -6.968255   -1.192142    0.188208
     29          1           0       -5.813679   -2.400651    0.770754
     30          1           0       -6.589402   -2.606976   -0.808801
     31          6           0       -3.263153    0.737998   -0.462005
     32          6           0       -2.649695    1.776881    0.477344
     33          6           0       -1.505743    2.557400   -0.170696
     34          1           0       -2.479498    0.039684   -0.787024
     35          1           0       -3.627935    1.241850   -1.367551
     36          1           0       -2.286504    1.270523    1.380843
     37          1           0       -3.434556    2.472204    0.801587
     38          1           0       -1.857518    3.088231   -1.061243
     39          1           0       -0.702943    1.879722   -0.478697
     40          1           0       -1.081796    3.294555    0.518312
 ---------------------------------------------------------------------

 SCF Done:  E(RHF) =  -470.732235353     A.U. after   11 cycles
 E2 =    -0.1583556729D+01 EUMP2 =    -0.47231579208142D+03

 The electronic state is 1-A.
 Alpha  occ. eigenvalues --  -11.21655 -11.21621 -11.21558 -11.21463 -11.21444
 Alpha  occ. eigenvalues --  -11.21383 -11.21328 -11.21260 -11.21144 -11.21087
 Alpha  occ. eigenvalues --  -11.21039 -11.20843  -1.08476  -1.08341  -1.03604
 Alpha  occ. eigenvalues --   -1.03414  -0.96075  -0.95852  -0.87091  -0.86876
 Alpha  occ. eigenvalues --   -0.79681  -0.79480  -0.78290  -0.78155  -0.65103
 Alpha  occ. eigenvalues --   -0.64978  -0.60981  -0.60874  -0.59407  -0.59259
 Alpha  occ. eigenvalues --   -0.57706  -0.57470  -0.55364  -0.55170  -0.52721
 Alpha  occ. eigenvalues --   -0.52580  -0.52535  -0.52222  -0.49997  -0.49817
 Alpha  occ. eigenvalues --   -0.48056  -0.47698  -0.46704  -0.46484  -0.45867
 Alpha  occ. eigenvalues --   -0.45752  -0.45670  -0.45496  -0.43826  -0.43694
 Alpha virt. eigenvalues --    0.21312   0.22951   0.23751   0.24838   0.25831
 Alpha virt. eigenvalues --    0.26549   0.27004   0.27581   0.28014   0.29423
 Alpha virt. eigenvalues --    0.30150   0.31142   0.31749   0.31979   0.32266

 Mulliken charges:
               1
     1  C   -0.298245
     2  C   -0.299696
     3  C   -0.475742
     4  H    0.149743
     5  H    0.149568
     6  H    0.152090
     7  H    0.152048
     8  H    0.155190
     9  H    0.155201
    10  H    0.160374
    11  C   -0.298649
    12  C   -0.300513
    13  C   -0.479423
    14  H    0.149955
    15  H    0.149503
    16  H    0.152144
    17  H    0.151857
    18  H    0.156601
    19  H    0.160373
    20  H    0.159978
    21  C   -0.298088
    22  C   -0.299586
    23  C   -0.475634
    24  H    0.149341
    25  H    0.149353
    26  H    0.151709
    27  H    0.151809
    28  H    0.155135
    29  H    0.155037
    30  H    0.160042
    31  C   -0.300173
    32  C   -0.299924
    33  C   -0.480363
    34  H    0.151108
    35  H    0.149110
    36  H    0.153791
    37  H    0.151098
    38  H    0.153482
    39  H    0.162545
    40  H    0.157851
 Sum of Mulliken charges =  -0.00000

 Dipole moment (field-independent basis, Debye):
    X=              0.0685    Y=             -0.0247    Z=              0.0161  Tot=              0.0745
 Quadrupole moment (field-independent basis, Debye-Ang):
   XX=            -86.3167   YY=            -84.6637   ZZ=            -84.1125
   XY=             -0.4686   XZ=              0.7125   YZ=              0.4760

 Normal termination of Gaussian 16 at Thu May  6 06:51:42 2021.
