 Gaussian 16, Revision A.03,
 Gaussian 16:  EM64L-G16RevA.03 25-Dec-2016

 -------------
 #p 6-31g* mp2
 -------------

 ------------------------------------------------------
 Input file generated by CHIRIPA (05-May-2021 14:55:25)
 ------------------------------------------------------
 Symbolic Z-matrix:
 Charge =  0 Multiplicity = 1

                         Standard orientation:
 ---------------------------------------------------------------------
 Center     Atomic      Atomic             Coordinates (Angstroms)
 Number     Number       Type             X           Y           Z
 ---------------------------------------------------------------------
      1          6           0       -3.110651   -0.153385   -2.215562
      2          6           0       -1.794245   -0.576394   -2.004234
      3          6           0       -1.286859   -0.697168   -0.707114
      4          6           0       -2.127344   -0.385280    0.360407
      5          6           0       -3.443313    0.038741    0.182303
      6          6           0       -3.929540    0.152294   -1.123545
      7          1           0       -3.496582   -0.062370   -3.226586
      8          1           0       -1.156010   -0.814467   -2.850415
      9          1           0       -0.271625   -1.022382   -0.514881
     10          1           0       -4.055558    0.268918    1.045780
     11          1           0       -4.952285    0.481046   -1.284664
     12          7           0       -1.601397   -0.509316    1.738230
     13          8           0       -2.362110   -0.228510    2.661864
     14          8           0       -0.438405   -0.884991    1.868444
     15          6           0        2.424145    1.036757   -0.472084
     16          6           0        2.294293    2.246318    0.454246
     17          6           0        1.471713    3.377866   -0.162804
     18          1           0        2.885817    1.354467   -1.416999
     19          1           0        1.420489    0.666775   -0.723446
     20          1           0        3.297933    2.613059    0.704896
     21          1           0        1.833052    1.925653    1.397139
     22          1           0        0.458900    3.034423   -0.397022
     23          1           0        1.932103    3.725735   -1.093197
     24          1           0        1.391614    4.232430    0.516287
     25          6           0        3.243762   -0.102772    0.130770
     26          6           0        3.373612   -1.312332   -0.795559
     27          6           0        4.196194   -2.443881   -0.178508
     28          1           0        4.247418    0.267210    0.382132
     29          1           0        2.782090   -0.420482    1.075685
     30          1           0        3.834853   -0.991668   -1.738452
     31          1           0        2.369974   -1.679074   -1.046210
     32          1           0        3.735804   -2.791749    0.751883
     33          1           0        5.209007   -2.100437    0.055708
     34          1           0        4.276293   -3.298445   -0.857601
 ---------------------------------------------------------------------

 SCF Done:  E(RHF) =  -669.535757861     A.U. after   15 cycles
 E2 =    -0.2093051379D+01 EUMP2 =    -0.67162880924003D+03

 The electronic state is 1-A.
 Alpha  occ. eigenvalues --  -20.60923 -20.60915 -15.85963 -11.31285 -11.27844
 Alpha  occ. eigenvalues --  -11.27827 -11.27573 -11.26853 -11.26842 -11.21607
 Alpha  occ. eigenvalues --  -11.21274 -11.21214 -11.21016 -11.20900 -11.20875
 Alpha  occ. eigenvalues --   -1.59985  -1.39541  -1.19454  -1.08853  -1.08219
 Alpha  occ. eigenvalues --   -1.04849  -1.03338  -0.95788  -0.95687  -0.86799
 Alpha  occ. eigenvalues --   -0.86249  -0.82529  -0.79411  -0.78064  -0.77572
 Alpha  occ. eigenvalues --   -0.72185  -0.71303  -0.70568  -0.65110  -0.65051
 Alpha  occ. eigenvalues --   -0.64655  -0.62178  -0.60733  -0.59153  -0.57398
 Alpha  occ. eigenvalues --   -0.55366  -0.55041  -0.53183  -0.52942  -0.52490
 Alpha  occ. eigenvalues --   -0.52202  -0.49718  -0.48940  -0.48935  -0.47733
 Alpha  occ. eigenvalues --   -0.46437  -0.45609  -0.45446  -0.44924  -0.43582
 Alpha  occ. eigenvalues --   -0.37425  -0.36422
 Alpha virt. eigenvalues --    0.04897   0.11127   0.16406   0.19755   0.23013
 Alpha virt. eigenvalues --    0.24258   0.25486   0.27317   0.27836   0.28113
 Alpha virt. eigenvalues --    0.29871   0.30890   0.31387   0.31947   0.32135

 Mulliken charges:
               1
     1  C   -0.170392
     2  C   -0.220953
     3  C   -0.175187
     4  C    0.157099
     5  C   -0.170395
     6  C   -0.218468
     7  H    0.226196
     8  H    0.224846
     9  H    0.283969
    10  H    0.275845
    11  H    0.223935
    12  N    0.488604
    13  O   -0.459032
    14  O   -0.462917
    15  C   -0.298133
    16  C   -0.302540
    17  C   -0.475889
    18  H    0.145751
    19  H    0.141385
    20  H    0.151378
    21  H    0.163894
    22  H    0.153047
    23  H    0.152183
    24  H    0.161216
    25  C   -0.304210
    26  C   -0.298895
    27  C   -0.476441
    28  H    0.149030
    29  H    0.168615
    30  H    0.149567
    31  H    0.141446
    32  H    0.161882
    33  H    0.155811
    34  H    0.157754
 Sum of Mulliken charges =  -0.00000

 Dipole moment (field-independent basis, Debye):
    X=             -1.9018    Y=              0.4104    Z=             -4.6514  Tot=              5.0419
 Quadrupole moment (field-independent basis, Debye-Ang):
   XX=            -82.4082   YY=            -96.2915   ZZ=            -98.0145
   XY=             -1.0124   XZ=              8.0836   YZ=              2.8343

 Normal termination of Gaussian 16 at Thu May  6 17:44:08 2021.
