 Gaussian 16, Revision A.03,
 Gaussian 16:  EM64L-G16RevA.03 25-Dec-2016

 -------------
 #p 6-31g* mp2
 -------------

 ------------------------------------------------------
 Input file generated by CHIRIPA (05-May-2021 14:55:24)
 ------------------------------------------------------
 Symbolic Z-matrix:
 Charge =  0 Multiplicity = 1

                         Standard orientation:
 ---------------------------------------------------------------------
 Center     Atomic      Atomic             Coordinates (Angstroms)
 Number     Number       Type             X           Y           Z
 ---------------------------------------------------------------------
      1          6           0       -3.418038   -2.600713    0.055087
      2          6           0       -2.735530   -2.063541    1.151513
      3          6           0       -2.372043   -0.713691    1.169707
      4          6           0       -2.708471    0.073720    0.069666
      5          6           0       -3.388014   -0.432108   -1.037425
      6          6           0       -3.741531   -1.784721   -1.033962
      7          1           0       -3.696531   -3.650382    0.049366
      8          1           0       -2.482994   -2.694886    1.998670
      9          1           0       -1.843265   -0.271915    2.005558
     10          1           0       -3.625990    0.222180   -1.867300
     11          1           0       -4.271534   -2.199179   -1.886820
     12          7           0       -2.328941    1.504208    0.077464
     13          8           0       -2.636954    2.176869   -0.904011
     14          8           0       -1.730638    1.925677    1.064903
     15          6           0        3.021353    0.671903   -0.389975
     16          6           0        2.777133    1.932896    0.439627
     17          6           0        1.723135    2.852136   -0.178337
     18          1           0        3.333798    0.961673   -1.402573
     19          1           0        2.074921    0.124492   -0.499534
     20          1           0        3.724025    2.477049    0.548756
     21          1           0        2.465419    1.640088    1.450426
     22          1           0        0.764860    2.331073   -0.272162
     23          1           0        2.030616    3.172790   -1.178955
     24          1           0        1.564299    3.747360    0.430929
     25          6           0        4.072463   -0.257075    0.214920
     26          6           0        4.316683   -1.518069   -0.614682
     27          6           0        5.370681   -2.437308    0.003282
     28          1           0        5.018895    0.290335    0.324479
     29          1           0        3.760019   -0.546846    1.227518
     30          1           0        4.628397   -1.225260   -1.625481
     31          1           0        3.369791   -2.062222   -0.723811
     32          1           0        5.063200   -2.757963    1.003900
     33          1           0        6.328956   -1.916246    0.097107
     34          1           0        5.529516   -3.332533   -0.605984
 ---------------------------------------------------------------------

 SCF Done:  E(RHF) =  -669.535816367     A.U. after   15 cycles
 E2 =    -0.2091239332D+01 EUMP2 =    -0.67162705569885D+03

 The electronic state is 1-A.
 Alpha  occ. eigenvalues --  -20.60930 -20.60922 -15.85957 -11.31299 -11.27865
 Alpha  occ. eigenvalues --  -11.27857 -11.27600 -11.26871 -11.26860 -11.21421
 Alpha  occ. eigenvalues --  -11.21062 -11.20970 -11.20878 -11.20778 -11.19791
 Alpha  occ. eigenvalues --   -1.59994  -1.39547  -1.19468  -1.08869  -1.07978
 Alpha  occ. eigenvalues --   -1.04865  -1.02975  -0.95709  -0.95397  -0.86412
 Alpha  occ. eigenvalues --   -0.86264  -0.82539  -0.79074  -0.77758  -0.77592
 Alpha  occ. eigenvalues --   -0.72172  -0.71325  -0.70574  -0.65121  -0.64866
 Alpha  occ. eigenvalues --   -0.64617  -0.62211  -0.60370  -0.58838  -0.57006
 Alpha  occ. eigenvalues --   -0.55369  -0.54687  -0.53197  -0.52955  -0.52064
 Alpha  occ. eigenvalues --   -0.51828  -0.49414  -0.48934  -0.48878  -0.47369
 Alpha  occ. eigenvalues --   -0.46144  -0.45314  -0.45251  -0.44824  -0.43238
 Alpha  occ. eigenvalues --   -0.37446  -0.36467
 Alpha virt. eigenvalues --    0.04910   0.11186   0.16397   0.21318   0.23246
 Alpha virt. eigenvalues --    0.24890   0.26999   0.27261   0.27881   0.28188
 Alpha virt. eigenvalues --    0.28675   0.30831   0.31929   0.32176   0.32489

 Mulliken charges:
               1
     1  C   -0.170578
     2  C   -0.218572
     3  C   -0.171209
     4  C    0.158332
     5  C   -0.170767
     6  C   -0.218540
     7  H    0.226071
     8  H    0.223834
     9  H    0.275712
    10  H    0.276050
    11  H    0.223930
    12  N    0.486531
    13  O   -0.458568
    14  O   -0.458359
    15  C   -0.297071
    16  C   -0.300155
    17  C   -0.474340
    18  H    0.148974
    19  H    0.145917
    20  H    0.148274
    21  H    0.151160
    22  H    0.166364
    23  H    0.148929
    24  H    0.163375
    25  C   -0.297443
    26  C   -0.298894
    27  C   -0.475232
    28  H    0.149527
    29  H    0.147434
    30  H    0.152067
    31  H    0.149286
    32  H    0.153641
    33  H    0.155672
    34  H    0.158648
 Sum of Mulliken charges =  -0.00000

 Dipole moment (field-independent basis, Debye):
    X=             -1.5627    Y=             -4.9708    Z=             -0.0138  Tot=              5.2106
 Quadrupole moment (field-independent basis, Debye-Ang):
   XX=            -87.8672   YY=            -96.3020   ZZ=            -90.7090
   XY=             14.5084   XZ=              1.6335   YZ=             -0.9228

 Normal termination of Gaussian 16 at Thu May  6 00:00:11 2021.
