 Gaussian 16, Revision A.03,
 Gaussian 16:  EM64L-G16RevA.03 25-Dec-2016

 -------------
 #p 6-31g* mp2
 -------------

 ------------------------------------------------------
 Input file generated by CHIRIPA (05-May-2021 14:51:13)
 ------------------------------------------------------
 Symbolic Z-matrix:
 Charge =  0 Multiplicity = 1

                         Standard orientation:
 ---------------------------------------------------------------------
 Center     Atomic      Atomic             Coordinates (Angstroms)
 Number     Number       Type             X           Y           Z
 ---------------------------------------------------------------------
      1          6           0       -1.753835    0.946435    0.113587
      2          6           0       -2.529100    2.114076    0.724784
      3          6           0       -1.617798    3.141282    1.397221
      4          1           0       -1.162834    0.455825    0.899058
      5          1           0       -1.035316    1.336676   -0.620469
      6          1           0       -3.246908    1.721632    1.456464
      7          1           0       -3.118472    2.601844   -0.062196
      8          1           0       -0.910437    3.560388    0.674316
      9          1           0       -1.039602    2.675174    2.201605
     10          1           0       -2.192702    3.967310    1.827364
     11          6           0       -2.651103   -0.088829   -0.562333
     12          6           0       -1.875838   -1.256470   -1.173531
     13          6           0       -2.787140   -2.283676   -1.845967
     14          1           0       -3.369622   -0.479071    0.171723
     15          1           0       -3.242104    0.401781   -1.347805
     16          1           0       -1.286465   -1.744239   -0.386550
     17          1           0       -1.158030   -0.864026   -1.905211
     18          1           0       -3.365336   -1.817569   -2.650351
     19          1           0       -3.494500   -2.702783   -1.123062
     20          1           0       -2.212236   -3.109704   -2.276111
     21          6           0        1.899331   -1.117398    0.356187
     22          6           0        1.464871   -1.320834    1.808028
     23          6           0        0.860381   -2.703180    2.056028
     24          1           0        1.032851   -1.263912   -0.303124
     25          1           0        2.630911   -1.892064    0.087710
     26          1           0        0.735365   -0.545182    2.074113
     27          1           0        2.332444   -1.173631    2.463974
     28          1           0        1.584704   -3.488778    1.817713
     29          1           0       -0.021449   -2.856759    1.425638
     30          1           0        0.556722   -2.827115    3.100197
     31          6           0        2.505607    0.259794    0.092559
     32          6           0        2.940066    0.463228   -1.359283
     33          6           0        3.544557    1.845574   -1.607281
     34          1           0        1.774028    1.034458    0.361036
     35          1           0        3.372087    0.406307    0.751872
     36          1           0        2.072494    0.316024   -2.015227
     37          1           0        3.669572   -0.312424   -1.625367
     38          1           0        4.426386    1.999152   -0.976891
     39          1           0        2.820234    2.631172   -1.368968
     40          1           0        3.848216    1.969510   -2.651451
 ---------------------------------------------------------------------

 SCF Done:  E(RHF) =  -470.732080502     A.U. after   11 cycles
 E2 =    -0.1586096151D+01 EUMP2 =    -0.47231817665253D+03

 The electronic state is 1-A.
 Alpha  occ. eigenvalues --  -11.21700 -11.21686 -11.21572 -11.21557 -11.21504
 Alpha  occ. eigenvalues --  -11.21445 -11.21279 -11.21198 -11.21153 -11.21145
 Alpha  occ. eigenvalues --  -11.21095 -11.21045  -1.08572  -1.08332  -1.03634
 Alpha  occ. eigenvalues --   -1.03500  -0.96071  -0.95941  -0.87090  -0.86963
 Alpha  occ. eigenvalues --   -0.79771  -0.79528  -0.78405  -0.78134  -0.65333
 Alpha  occ. eigenvalues --   -0.64872  -0.61089  -0.60864  -0.59469  -0.59285
 Alpha  occ. eigenvalues --   -0.57685  -0.57555  -0.55360  -0.55242  -0.52764
 Alpha  occ. eigenvalues --   -0.52659  -0.52505  -0.52367  -0.50100  -0.49836
 Alpha  occ. eigenvalues --   -0.48218  -0.47883  -0.46952  -0.46376  -0.46307
 Alpha  occ. eigenvalues --   -0.45798  -0.45467  -0.45133  -0.43873  -0.43726
 Alpha virt. eigenvalues --    0.19794   0.22116   0.22944   0.23796   0.25474
 Alpha virt. eigenvalues --    0.26580   0.27342   0.27698   0.28406   0.29872
 Alpha virt. eigenvalues --    0.30892   0.31396   0.31547   0.31848   0.32233

 Mulliken charges:
               1
     1  C   -0.307390
     2  C   -0.299320
     3  C   -0.476410
     4  H    0.157504
     5  H    0.150288
     6  H    0.152258
     7  H    0.152330
     8  H    0.155058
     9  H    0.155290
    10  H    0.160997
    11  C   -0.297175
    12  C   -0.310992
    13  C   -0.474770
    14  H    0.149768
    15  H    0.150101
    16  H    0.160969
    17  H    0.152511
    18  H    0.155513
    19  H    0.155401
    20  H    0.160805
    21  C   -0.306563
    22  C   -0.303660
    23  C   -0.480438
    24  H    0.160416
    25  H    0.148583
    26  H    0.153827
    27  H    0.152419
    28  H    0.155980
    29  H    0.157847
    30  H    0.160142
    31  C   -0.300030
    32  C   -0.300214
    33  C   -0.475500
    34  H    0.152491
    35  H    0.148849
    36  H    0.151411
    37  H    0.151831
    38  H    0.155336
    39  H    0.154637
    40  H    0.159900
 Sum of Mulliken charges =  -0.00000

 Dipole moment (field-independent basis, Debye):
    X=             -0.0680    Y=             -0.0027    Z=             -0.0102  Tot=              0.0688
 Quadrupole moment (field-independent basis, Debye-Ang):
   XX=            -84.4333   YY=            -85.9675   ZZ=            -84.3817
   XY=             -1.1826   XZ=              0.0257   YZ=             -0.5765

 Normal termination of Gaussian 16 at Thu May  6 03:57:43 2021.
