 Gaussian 16, Revision A.03,
 Gaussian 16:  EM64L-G16RevA.03 25-Dec-2016

 -------------
 #p 6-31g* mp2
 -------------

 ------------------------------------------------------
 Input file generated by CHIRIPA (05-May-2021 14:51:09)
 ------------------------------------------------------
 Symbolic Z-matrix:
 Charge =  0 Multiplicity = 1

                         Standard orientation:
 ---------------------------------------------------------------------
 Center     Atomic      Atomic             Coordinates (Angstroms)
 Number     Number       Type             X           Y           Z
 ---------------------------------------------------------------------
      1          6           0        2.333242   -0.159151   -0.335827
      2          6           0        3.268500   -1.338887   -0.068433
      3          6           0        2.730460   -2.657646   -0.624474
      4          1           0        1.350163   -0.371266    0.106337
      5          1           0        2.174833   -0.064005   -1.418993
      6          1           0        3.426199   -1.430925    1.013822
      7          1           0        4.249523   -1.123856   -0.511120
      8          1           0        2.589985   -2.590070   -1.708126
      9          1           0        1.761983   -2.898884   -0.174520
     10          1           0        3.414687   -3.487566   -0.422172
     11          6           0        2.857412    1.166217    0.214057
     12          6           0        1.922153    2.345954   -0.053337
     13          6           0        2.460194    3.664713    0.502704
     14          1           0        3.015820    1.071071    1.297223
     15          1           0        3.840490    1.378333   -0.228107
     16          1           0        0.941130    2.130923    0.389349
     17          1           0        1.764454    2.437991   -1.135592
     18          1           0        3.428670    3.905950    0.052750
     19          1           0        2.600669    3.597137    1.586356
     20          1           0        1.775966    4.494632    0.300402
     21          6           0       -2.789500    0.081830   -0.389757
     22          6           0       -3.701809    1.098909    0.296703
     23          6           0       -4.081555    2.264090   -0.617594
     24          1           0       -1.879059    0.590196   -0.735598
     25          1           0       -3.292205   -0.304025   -1.287421
     26          1           0       -3.198101    1.481705    1.193565
     27          1           0       -4.610099    0.588024    0.641119
     28          1           0       -4.606764    1.900688   -1.506804
     29          1           0       -3.186745    2.799448   -0.951219
     30          1           0       -4.733973    2.979115   -0.106761
     31          6           0       -2.401153   -1.088897    0.511528
     32          6           0       -1.488845   -2.105975   -0.174933
     33          6           0       -1.109098   -3.271156    0.739364
     34          1           0       -1.898448   -0.703041    1.409191
     35          1           0       -3.311594   -1.597262    0.857368
     36          1           0       -0.580555   -1.595090   -0.519349
     37          1           0       -1.992552   -2.488771   -1.071795
     38          1           0       -2.003909   -3.806514    1.072989
     39          1           0       -0.583889   -2.907754    1.628574
     40          1           0       -0.456679   -3.986181    0.228530
 ---------------------------------------------------------------------

 SCF Done:  E(RHF) =  -470.732632040     A.U. after   11 cycles
 E2 =    -0.1584412363D+01 EUMP2 =    -0.47231704440315D+03

 The electronic state is 1-A.
 Alpha  occ. eigenvalues --  -11.21676 -11.21621 -11.21601 -11.21550 -11.21459
 Alpha  occ. eigenvalues --  -11.21406 -11.21399 -11.21344 -11.21123 -11.21098
 Alpha  occ. eigenvalues --  -11.21064 -11.21012  -1.08502  -1.08414  -1.03604
 Alpha  occ. eigenvalues --   -1.03499  -0.96052  -0.95954  -0.87083  -0.86955
 Alpha  occ. eigenvalues --   -0.79659  -0.79577  -0.78393  -0.78157  -0.65300
 Alpha  occ. eigenvalues --   -0.64907  -0.61184  -0.60760  -0.59452  -0.59289
 Alpha  occ. eigenvalues --   -0.57740  -0.57495  -0.55417  -0.55167  -0.52747
 Alpha  occ. eigenvalues --   -0.52689  -0.52523  -0.52286  -0.50082  -0.49788
 Alpha  occ. eigenvalues --   -0.47993  -0.47869  -0.46805  -0.46582  -0.46136
 Alpha  occ. eigenvalues --   -0.45781  -0.45748  -0.45227  -0.43826  -0.43780
 Alpha virt. eigenvalues --    0.20112   0.22497   0.23609   0.25166   0.25440
 Alpha virt. eigenvalues --    0.26632   0.26796   0.27374   0.28814   0.30248
 Alpha virt. eigenvalues --    0.30449   0.31111   0.31600   0.31690   0.32211

 Mulliken charges:
               1
     1  C   -0.304361
     2  C   -0.299045
     3  C   -0.484665
     4  H    0.154882
     5  H    0.149522
     6  H    0.151583
     7  H    0.151994
     8  H    0.154726
     9  H    0.166155
    10  H    0.160022
    11  C   -0.297710
    12  C   -0.300487
    13  C   -0.475718
    14  H    0.149530
    15  H    0.150132
    16  H    0.151523
    17  H    0.152141
    18  H    0.155529
    19  H    0.155321
    20  H    0.160431
    21  C   -0.299749
    22  C   -0.299497
    23  C   -0.475788
    24  H    0.151161
    25  H    0.149688
    26  H    0.151533
    27  H    0.151937
    28  H    0.155184
    29  H    0.155461
    30  H    0.160183
    31  C   -0.297995
    32  C   -0.308832
    33  C   -0.479132
    34  H    0.148368
    35  H    0.149811
    36  H    0.161009
    37  H    0.152377
    38  H    0.156472
    39  H    0.154144
    40  H    0.162160
 Sum of Mulliken charges =  -0.00000

 Dipole moment (field-independent basis, Debye):
    X=              0.0113    Y=             -0.0044    Z=             -0.0133  Tot=              0.0180
 Quadrupole moment (field-independent basis, Debye-Ang):
   XX=            -84.1195   YY=            -86.3095   ZZ=            -84.3213
   XY=              0.6330   XZ=             -0.3968   YZ=              0.1418

 Normal termination of Gaussian 16 at Thu May  6 03:44:44 2021.
