 Gaussian 16, Revision A.03,
 Gaussian 16:  EM64L-G16RevA.03 25-Dec-2016

 -------------
 #p 6-31g* mp2
 -------------

 ------------------------------------------------------
 Input file generated by CHIRIPA (05-May-2021 14:51:09)
 ------------------------------------------------------
 Symbolic Z-matrix:
 Charge =  0 Multiplicity = 1

                         Standard orientation:
 ---------------------------------------------------------------------
 Center     Atomic      Atomic             Coordinates (Angstroms)
 Number     Number       Type             X           Y           Z
 ---------------------------------------------------------------------
      1          6           0       -2.189577    0.207621    0.633894
      2          6           0       -1.871122   -0.019012    2.112139
      3          6           0       -0.499707    0.526257    2.511762
      4          1           0       -1.411612   -0.267520    0.020742
      5          1           0       -2.144503    1.283895    0.417105
      6          1           0       -1.918141   -1.094420    2.326386
      7          1           0       -2.650038    0.456560    2.721841
      8          1           0       -0.444595    1.603827    2.326271
      9          1           0        0.291460    0.044033    1.928568
     10          1           0       -0.292541    0.353565    3.572479
     11          6           0       -3.557242   -0.332025    0.219161
     12          6           0       -3.875697   -0.105392   -1.259084
     13          6           0       -5.247112   -0.650660   -1.658707
     14          1           0       -3.602316   -1.408299    0.435950
     15          1           0       -4.335207    0.143116    0.832313
     16          1           0       -3.096781   -0.580964   -1.868786
     17          1           0       -3.828678    0.970017   -1.473330
     18          1           0       -6.038279   -0.168437   -1.075513
     19          1           0       -5.302224   -1.728230   -1.473216
     20          1           0       -5.454278   -0.477969   -2.719424
     21          6           0        3.101931    0.781242   -0.545653
     22          6           0        1.959789    1.796628   -0.495780
     23          6           0        2.432768    3.230649   -0.735923
     24          1           0        3.856636    1.050636    0.205874
     25          1           0        3.598097    0.845700   -1.523947
     26          1           0        1.465048    1.729311    0.481623
     27          1           0        1.207624    1.524676   -1.247383
     28          1           0        2.907995    3.320171   -1.718138
     29          1           0        3.166882    3.525969    0.020691
     30          1           0        1.600242    3.939987   -0.695925
     31          6           0        2.644888   -0.656839   -0.307403
     32          6           0        3.787030   -1.672224   -0.357275
     33          6           0        3.314051   -3.106245   -0.117132
     34          1           0        2.148722   -0.721296    0.670892
     35          1           0        1.890183   -0.926233   -1.058929
     36          1           0        4.539195   -1.400272    0.394327
     37          1           0        4.281771   -1.604908   -1.334677
     38          1           0        2.579938   -3.401565   -0.873746
     39          1           0        2.838824   -3.195767    0.865083
     40          1           0        4.146577   -3.815585   -0.157130
 ---------------------------------------------------------------------

 SCF Done:  E(RHF) =  -470.732582225     A.U. after   11 cycles
 E2 =    -0.1584063080D+01 EUMP2 =    -0.47231664530463D+03

 The electronic state is 1-A.
 Alpha  occ. eigenvalues --  -11.21621 -11.21604 -11.21599 -11.21463 -11.21412
 Alpha  occ. eigenvalues --  -11.21386 -11.21328 -11.21325 -11.21099 -11.21069
 Alpha  occ. eigenvalues --  -11.21064 -11.21011  -1.08446  -1.08394  -1.03546
 Alpha  occ. eigenvalues --   -1.03489  -0.95991  -0.95962  -0.87014  -0.86976
 Alpha  occ. eigenvalues --   -0.79672  -0.79523  -0.78363  -0.78090  -0.65113
 Alpha  occ. eigenvalues --   -0.65008  -0.60952  -0.60895  -0.59403  -0.59281
 Alpha  occ. eigenvalues --   -0.57604  -0.57575  -0.55391  -0.55149  -0.52680
 Alpha  occ. eigenvalues --   -0.52678  -0.52428  -0.52389  -0.50021  -0.49835
 Alpha  occ. eigenvalues --   -0.48133  -0.47795  -0.46734  -0.46541  -0.46046
 Alpha  occ. eigenvalues --   -0.45721  -0.45665  -0.45193  -0.43783  -0.43758
 Alpha virt. eigenvalues --    0.21406   0.23187   0.23844   0.24213   0.25465
 Alpha virt. eigenvalues --    0.25691   0.26755   0.27927   0.28396   0.29373
 Alpha virt. eigenvalues --    0.31005   0.31538   0.31677   0.31932   0.32189

 Mulliken charges:
               1
     1  C   -0.299356
     2  C   -0.299049
     3  C   -0.485700
     4  H    0.151408
     5  H    0.149692
     6  H    0.151810
     7  H    0.151802
     8  H    0.156168
     9  H    0.164143
    10  H    0.159936
    11  C   -0.298347
    12  C   -0.299555
    13  C   -0.475694
    14  H    0.149506
    15  H    0.149555
    16  H    0.151701
    17  H    0.151907
    18  H    0.155192
    19  H    0.155197
    20  H    0.160176
    21  C   -0.297758
    22  C   -0.307449
    23  C   -0.475421
    24  H    0.149406
    25  H    0.149267
    26  H    0.161638
    27  H    0.151792
    28  H    0.154710
    29  H    0.154846
    30  H    0.159586
    31  C   -0.305605
    32  C   -0.298961
    33  C   -0.475808
    34  H    0.155306
    35  H    0.149174
    36  H    0.152199
    37  H    0.152200
    38  H    0.154918
    39  H    0.154987
    40  H    0.160482
 Sum of Mulliken charges =  -0.00000

 Dipole moment (field-independent basis, Debye):
    X=             -0.0047    Y=             -0.0084    Z=              0.0204  Tot=              0.0225
 Quadrupole moment (field-independent basis, Debye-Ang):
   XX=            -85.6081   YY=            -85.3214   ZZ=            -83.9964
   XY=             -0.9558   XZ=             -0.2829   YZ=              0.3906

 Normal termination of Gaussian 16 at Thu May  6 06:54:28 2021.
