 Gaussian 16, Revision A.03,
 Gaussian 16:  EM64L-G16RevA.03 25-Dec-2016

 -------------
 #p 6-31g* mp2
 -------------

 ------------------------------------------------------
 Input file generated by CHIRIPA (05-May-2021 14:53:16)
 ------------------------------------------------------
 Symbolic Z-matrix:
 Charge =  0 Multiplicity = 1

                         Standard orientation:
 ---------------------------------------------------------------------
 Center     Atomic      Atomic             Coordinates (Angstroms)
 Number     Number       Type             X           Y           Z
 ---------------------------------------------------------------------
      1          6           0        3.523334   -0.926927    0.531721
      2          6           0        2.041888   -1.175706    0.246396
      3          6           0        1.460280   -2.311579    1.088606
      4          1           0        4.086784   -1.850942    0.342868
      5          1           0        3.650365   -0.695853    1.598428
      6          1           0        1.917516   -1.404882   -0.819730
      7          1           0        1.481926   -0.250937    0.435767
      8          1           0        1.555129   -2.087283    2.155985
      9          1           0        1.993194   -3.247785    0.893354
     10          1           0        0.400274   -2.472348    0.868606
     11          6           0        4.119098    0.205665   -0.302562
     12          6           0        5.600545    0.454445   -0.017237
     13          6           0        6.182152    1.590318   -0.859447
     14          1           0        3.992068   -0.025408   -1.369269
     15          1           0        3.555648    1.129681   -0.113709
     16          1           0        6.160507   -0.470324   -0.206607
     17          1           0        5.724917    0.683621    1.048890
     18          1           0        5.649238    2.526524   -0.664195
     19          1           0        6.087303    1.366022   -1.926825
     20          1           0        7.242159    1.751087   -0.639447
     21          6           0       -2.725748    2.727167    0.474792
     22          6           0       -1.596647    1.907049    0.379621
     23          6           0       -1.728573    0.550672    0.067555
     24          6           0       -3.010420    0.045328   -0.144070
     25          6           0       -4.154613    0.836804   -0.056441
     26          6           0       -3.998883    2.190374    0.256842
     27          1           0       -2.614020    3.779743    0.717686
     28          1           0       -0.606675    2.321203    0.548374
     29          1           0       -0.871438   -0.106850   -0.012470
     30          1           0       -5.128414    0.395228   -0.230045
     31          1           0       -4.877537    2.824918    0.330088
     32          7           0       -3.162684   -1.389121   -0.475085
     33          8           0       -4.303012   -1.810077   -0.656982
     34          8           0       -2.138818   -2.065326   -0.546369
 ---------------------------------------------------------------------

 SCF Done:  E(RHF) =  -669.535809032     A.U. after   15 cycles
 E2 =    -0.2092193491D+01 EUMP2 =    -0.67162800252278D+03

 The electronic state is 1-A.
 Alpha  occ. eigenvalues --  -20.60863 -20.60851 -15.85896 -11.31181 -11.27763
 Alpha  occ. eigenvalues --  -11.27701 -11.27504 -11.26767 -11.26749 -11.21822
 Alpha  occ. eigenvalues --  -11.21797 -11.21623 -11.21527 -11.21273 -11.20733
 Alpha  occ. eigenvalues --   -1.59922  -1.39480  -1.19359  -1.08772  -1.08609
 Alpha  occ. eigenvalues --   -1.04755  -1.03644  -0.96048  -0.95611  -0.87049
 Alpha  occ. eigenvalues --   -0.86158  -0.82455  -0.79731  -0.78461  -0.77501
 Alpha  occ. eigenvalues --   -0.72125  -0.71235  -0.70480  -0.65262  -0.65014
 Alpha  occ. eigenvalues --   -0.64764  -0.62166  -0.61019  -0.59387  -0.57651
 Alpha  occ. eigenvalues --   -0.55359  -0.55235  -0.53088  -0.52862  -0.52677
 Alpha  occ. eigenvalues --   -0.52439  -0.49991  -0.48888  -0.48867  -0.48000
 Alpha  occ. eigenvalues --   -0.46780  -0.45988  -0.45895  -0.44901  -0.43858
 Alpha  occ. eigenvalues --   -0.37346  -0.36352
 Alpha virt. eigenvalues --    0.05002   0.11291   0.16494   0.20093   0.22834
 Alpha virt. eigenvalues --    0.23958   0.25473   0.26537   0.27089   0.28162
 Alpha virt. eigenvalues --    0.29235   0.30502   0.31549   0.31721   0.32201

 Mulliken charges:
               1
     1  C   -0.297277
     2  C   -0.302043
     3  C   -0.488816
     4  H    0.153109
     5  H    0.149075
     6  H    0.158460
     7  H    0.133765
     8  H    0.151168
     9  H    0.157868
    10  H    0.184797
    11  C   -0.297522
    12  C   -0.299765
    13  C   -0.475624
    14  H    0.151166
    15  H    0.143643
    16  H    0.153728
    17  H    0.151681
    18  H    0.153257
    19  H    0.156016
    20  H    0.161059
    21  C   -0.170223
    22  C   -0.223043
    23  C   -0.179978
    24  C    0.157550
    25  C   -0.169833
    26  C   -0.219319
    27  H    0.225587
    28  H    0.223445
    29  H    0.292666
    30  H    0.275454
    31  H    0.223440
    32  N    0.490044
    33  O   -0.459272
    34  O   -0.464263
 Sum of Mulliken charges =  -0.00000

 Dipole moment (field-independent basis, Debye):
    X=              0.5175    Y=              4.8926    Z=              1.1228  Tot=              5.0464
 Quadrupole moment (field-independent basis, Debye-Ang):
   XX=            -93.0542   YY=            -94.6292   ZZ=            -95.8061
   XY=            -16.8776   XZ=             -3.3429   YZ=              0.2723

 Normal termination of Gaussian 16 at Thu May  6 04:21:22 2021.
