 Gaussian 16, Revision A.03,
 Gaussian 16:  EM64L-G16RevA.03 25-Dec-2016

 -------------
 #p 6-31g* mp2
 -------------

 ------------------------------------------------------
 Input file generated by CHIRIPA (05-May-2021 14:51:10)
 ------------------------------------------------------
 Symbolic Z-matrix:
 Charge =  0 Multiplicity = 1

                         Standard orientation:
 ---------------------------------------------------------------------
 Center     Atomic      Atomic             Coordinates (Angstroms)
 Number     Number       Type             X           Y           Z
 ---------------------------------------------------------------------
      1          6           0       -3.282965    0.560258    0.336822
      2          6           0       -3.615972    1.126497   -1.043926
      3          6           0       -4.516755    2.360066   -0.975439
      4          1           0       -4.216730    0.305775    0.856694
      5          1           0       -2.793610    1.339903    0.936889
      6          1           0       -4.103307    0.345595   -1.641681
      7          1           0       -2.681298    1.379483   -1.560645
      8          1           0       -4.034266    3.158037   -0.401811
      9          1           0       -5.464355    2.118275   -0.483308
     10          1           0       -4.742242    2.748431   -1.973531
     11          6           0       -2.383197   -0.673211    0.284857
     12          6           0       -2.050190   -1.239450    1.665604
     13          6           0       -1.149407   -2.473019    1.597117
     14          1           0       -2.872552   -1.452856   -0.315210
     15          1           0       -1.449432   -0.418728   -0.235015
     16          1           0       -2.984864   -1.492436    2.182324
     17          1           0       -1.562855   -0.458548    2.263360
     18          1           0       -0.201807   -2.231228    1.104987
     19          1           0       -1.631896   -3.270990    1.023490
     20          1           0       -0.923920   -2.861385    2.595210
     21          6           0        3.381031    0.587160   -0.271365
     22          6           0        3.086521    1.688187    0.747944
     23          6           0        4.191889    2.742424    0.815338
     24          1           0        4.334460    0.104986   -0.015582
     25          1           0        3.516581    1.041530   -1.262611
     26          1           0        2.950198    1.231740    1.736724
     27          1           0        2.133588    2.167669    0.489815
     28          1           0        4.324276    3.224595   -0.158615
     29          1           0        5.145528    2.283348    1.095379
     30          1           0        3.960888    3.519904    1.550200
     31          6           0        2.285131   -0.474207   -0.350314
     32          6           0        2.579641   -1.575235   -1.369622
     33          6           0        1.474273   -2.629471   -1.437017
     34          1           0        2.149582   -0.928577    0.640933
     35          1           0        1.331702    0.007967   -0.606097
     36          1           0        3.532575   -2.054716   -1.111493
     37          1           0        2.715964   -1.118786   -2.358403
     38          1           0        0.520635   -2.170395   -1.717058
     39          1           0        1.341885   -3.111642   -0.463065
     40          1           0        1.705275   -3.406952   -2.171879
 ---------------------------------------------------------------------

 SCF Done:  E(RHF) =  -470.732676736     A.U. after   11 cycles
 E2 =    -0.1584043582D+01 EUMP2 =    -0.47231672031860D+03

 The electronic state is 1-A.
 Alpha  occ. eigenvalues --  -11.21659 -11.21636 -11.21606 -11.21533 -11.21484
 Alpha  occ. eigenvalues --  -11.21419 -11.21380 -11.21317 -11.21114 -11.21074
 Alpha  occ. eigenvalues --  -11.21033 -11.20912  -1.08500  -1.08393  -1.03589
 Alpha  occ. eigenvalues --   -1.03472  -0.96035  -0.95924  -0.87062  -0.86933
 Alpha  occ. eigenvalues --   -0.79717  -0.79492  -0.78380  -0.78144  -0.65133
 Alpha  occ. eigenvalues --   -0.65027  -0.61005  -0.60875  -0.59433  -0.59270
 Alpha  occ. eigenvalues --   -0.57738  -0.57462  -0.55333  -0.55206  -0.52705
 Alpha  occ. eigenvalues --   -0.52632  -0.52593  -0.52234  -0.49996  -0.49871
 Alpha  occ. eigenvalues --   -0.48206  -0.47671  -0.46699  -0.46580  -0.46097
 Alpha  occ. eigenvalues --   -0.45742  -0.45685  -0.45313  -0.43831  -0.43748
 Alpha virt. eigenvalues --    0.20504   0.23317   0.23348   0.24797   0.24988
 Alpha virt. eigenvalues --    0.26346   0.26946   0.27709   0.28690   0.29545
 Alpha virt. eigenvalues --    0.30296   0.31108   0.31592   0.31830   0.32044

 Mulliken charges:
               1
     1  C   -0.298190
     2  C   -0.299486
     3  C   -0.475668
     4  H    0.149802
     5  H    0.149486
     6  H    0.152004
     7  H    0.151036
     8  H    0.155145
     9  H    0.155312
    10  H    0.160162
    11  C   -0.302959
    12  C   -0.298746
    13  C   -0.484277
    14  H    0.149459
    15  H    0.153406
    16  H    0.151432
    17  H    0.151668
    18  H    0.166005
    19  H    0.154729
    20  H    0.158657
    21  C   -0.298093
    22  C   -0.299698
    23  C   -0.475750
    24  H    0.150134
    25  H    0.149841
    26  H    0.152084
    27  H    0.151477
    28  H    0.155303
    29  H    0.155389
    30  H    0.160396
    31  C   -0.303949
    32  C   -0.299582
    33  C   -0.480764
    34  H    0.151261
    35  H    0.151767
    36  H    0.152090
    37  H    0.151920
    38  H    0.157568
    39  H    0.159236
    40  H    0.160394
 Sum of Mulliken charges =  -0.00000

 Dipole moment (field-independent basis, Debye):
    X=              0.0462    Y=             -0.0090    Z=             -0.0157  Tot=              0.0497
 Quadrupole moment (field-independent basis, Debye-Ang):
   XX=            -84.7682   YY=            -85.6301   ZZ=            -84.3757
   XY=              0.1854   XZ=              0.2477   YZ=             -0.3425

 Normal termination of Gaussian 16 at Wed May  5 15:10:48 2021.
