 Gaussian 16, Revision A.03,
 Gaussian 16:  EM64L-G16RevA.03 25-Dec-2016

 -------------
 #p 6-31g* mp2
 -------------

 ------------------------------------------------------
 Input file generated by CHIRIPA (05-May-2021 14:55:19)
 ------------------------------------------------------
 Symbolic Z-matrix:
 Charge =  0 Multiplicity = 1

                         Standard orientation:
 ---------------------------------------------------------------------
 Center     Atomic      Atomic             Coordinates (Angstroms)
 Number     Number       Type             X           Y           Z
 ---------------------------------------------------------------------
      1          6           0       -3.954036    0.808794   -0.215771
      2          6           0       -3.379616    0.214394   -1.344155
      3          6           0       -2.275582   -0.633617   -1.215560
      4          6           0       -1.769298   -0.866290    0.062262
      5          6           0       -2.319456   -0.288965    1.205639
      6          6           0       -3.423059    0.555664    1.053288
      7          1           0       -4.811508    1.466236   -0.324894
      8          1           0       -3.789876    0.409172   -2.330964
      9          1           0       -1.811341   -1.106922   -2.072228
     10          1           0       -1.888326   -0.502161    2.176254
     11          1           0       -3.867113    1.015905    1.931376
     12          7           0       -0.600735   -1.762251    0.210975
     13          8           0       -0.173408   -1.951169    1.347786
     14          8           0       -0.134269   -2.258622   -0.812090
     15          6           0        2.501075    1.683589   -0.052271
     16          6           0        1.093197    2.271826    0.046942
     17          6           0        1.089350    3.800779    0.037836
     18          1           0        3.107826    2.058191    0.783475
     19          1           0        2.978691    2.046906   -0.972748
     20          1           0        0.617870    1.906407    0.966262
     21          1           0        0.489671    1.895630   -0.789030
     22          1           0        1.539233    4.181660   -0.884734
     23          1           0        1.668161    4.192498    0.880531
     24          1           0        0.072870    4.200122    0.109623
     25          6           0        2.521366    0.156090   -0.044375
     26          6           0        3.929243   -0.432147   -0.143588
     27          6           0        3.933090   -1.961100   -0.134482
     28          1           0        2.043749   -0.207228    0.876102
     29          1           0        1.914615   -0.218511   -0.880121
     30          1           0        4.532769   -0.055951    0.692384
     31          1           0        4.404571   -0.066728   -1.062908
     32          1           0        3.354279   -2.352819   -0.977177
     33          1           0        3.483207   -2.341981    0.788088
     34          1           0        4.949570   -2.360443   -0.206269
 ---------------------------------------------------------------------

 SCF Done:  E(RHF) =  -669.536458302     A.U. after   15 cycles
 E2 =    -0.2094136994D+01 EUMP2 =    -0.67163059529582D+03

 The electronic state is 1-A.
 Alpha  occ. eigenvalues --  -20.60991 -20.60985 -15.85967 -11.31293 -11.27854
 Alpha  occ. eigenvalues --  -11.27848 -11.27580 -11.26860 -11.26849 -11.21277
 Alpha  occ. eigenvalues --  -11.20907 -11.20718 -11.20499 -11.20189 -11.19587
 Alpha  occ. eigenvalues --   -1.60013  -1.39580  -1.19452  -1.08858  -1.07639
 Alpha  occ. eigenvalues --   -1.04851  -1.02730  -0.95707  -0.95159  -0.86253
 Alpha  occ. eigenvalues --   -0.86175  -0.82551  -0.78878  -0.77607  -0.77401
 Alpha  occ. eigenvalues --   -0.72222  -0.71271  -0.70566  -0.65117  -0.64856
 Alpha  occ. eigenvalues --   -0.64281  -0.62203  -0.60137  -0.58623  -0.56749
 Alpha  occ. eigenvalues --   -0.55356  -0.54437  -0.53185  -0.52946  -0.51915
 Alpha  occ. eigenvalues --   -0.51536  -0.49114  -0.48996  -0.48978  -0.47137
 Alpha  occ. eigenvalues --   -0.45932  -0.45528  -0.44836  -0.44191  -0.42969
 Alpha  occ. eigenvalues --   -0.37408  -0.36440
 Alpha virt. eigenvalues --    0.04870   0.11157   0.16337   0.21306   0.23519
 Alpha virt. eigenvalues --    0.25250   0.27091   0.27502   0.27582   0.28505
 Alpha virt. eigenvalues --    0.28826   0.31049   0.32219   0.32262   0.32295

 Mulliken charges:
               1
     1  C   -0.170445
     2  C   -0.218298
     3  C   -0.171871
     4  C    0.162222
     5  C   -0.170690
     6  C   -0.218271
     7  H    0.226016
     8  H    0.223821
     9  H    0.275466
    10  H    0.275404
    11  H    0.223841
    12  N    0.489372
    13  O   -0.458664
    14  O   -0.458090
    15  C   -0.296411
    16  C   -0.300363
    17  C   -0.474624
    18  H    0.147524
    19  H    0.146582
    20  H    0.149186
    21  H    0.148585
    22  H    0.154782
    23  H    0.155182
    24  H    0.155305
    25  C   -0.312637
    26  C   -0.298657
    27  C   -0.476615
    28  H    0.162870
    29  H    0.155897
    30  H    0.147020
    31  H    0.146177
    32  H    0.164271
    33  H    0.164468
    34  H    0.151644
 Sum of Mulliken charges =  -0.00000

 Dipole moment (field-independent basis, Debye):
    X=             -4.3228    Y=              2.8960    Z=             -0.4881  Tot=              5.2260
 Quadrupole moment (field-independent basis, Debye-Ang):
   XX=            -81.5702   YY=           -102.4182   ZZ=            -88.8316
   XY=             -2.3272   XZ=              0.7910   YZ=              1.4639

 Normal termination of Gaussian 16 at Thu May  6 12:26:11 2021.
