 Gaussian 16, Revision A.03,
 Gaussian 16:  EM64L-G16RevA.03 25-Dec-2016

 -------------
 #p 6-31g* mp2
 -------------

 ------------------------------------------------------
 Input file generated by CHIRIPA (05-May-2021 14:57:25)
 ------------------------------------------------------
 Symbolic Z-matrix:
 Charge =  0 Multiplicity = 1

                         Standard orientation:
 ---------------------------------------------------------------------
 Center     Atomic      Atomic             Coordinates (Angstroms)
 Number     Number       Type             X           Y           Z
 ---------------------------------------------------------------------
      1          6           0       -2.514284   -2.242802   -0.903192
      2          6           0       -3.684811   -1.791637   -0.284452
      3          6           0       -3.821987   -0.449613    0.082566
      4          6           0       -2.764074    0.417759   -0.185343
      5          6           0       -1.585373   -0.001400   -0.800372
      6          6           0       -1.470142   -1.347822   -1.158727
      7          1           0       -2.416246   -3.287027   -1.184935
      8          1           0       -4.497334   -2.484441   -0.084768
      9          1           0       -4.717160   -0.073557    0.562841
     10          1           0       -0.792571    0.712923   -0.986452
     11          1           0       -0.559942   -1.695396   -1.639115
     12          7           0       -2.897680    1.840828    0.198616
     13          8           0       -1.951169    2.584974   -0.048366
     14          8           0       -3.946382    2.185137    0.739275
     15          6           0        1.447110   -1.553511    1.925332
     16          6           0        2.110453   -0.391747    2.333746
     17          6           0        2.830976    0.375255    1.413364
     18          6           0        2.867244   -0.050746    0.086527
     19          6           0        2.216798   -1.203418   -0.351145
     20          6           0        1.502303   -1.954930    0.586550
     21          1           0        0.889733   -2.143321    2.647032
     22          1           0        2.069322   -0.077590    3.372813
     23          1           0        3.353743    1.278907    1.702404
     24          1           0        2.276044   -1.491192   -1.393783
     25          1           0        0.988109   -2.856726    0.266526
     26          7           0        3.626839    0.753047   -0.897005
     27          8           0        3.643388    0.356300   -2.060171
     28          8           0        4.191277    1.764585   -0.486108
 ---------------------------------------------------------------------

 SCF Done:  E(RHF) =  -868.335814605     A.U. after   16 cycles
 E2 =    -0.2602702015D+01 EUMP2 =    -0.87093851661959D+03

 The electronic state is 1-A.
 Alpha  occ. eigenvalues --  -20.61132 -20.61099 -20.61009 -20.60996 -15.86177
 Alpha  occ. eigenvalues --  -15.86061 -11.31683 -11.31523 -11.28309 -11.28131
 Alpha  occ. eigenvalues --  -11.28100 -11.28063 -11.27922 -11.27916 -11.27349
 Alpha  occ. eigenvalues --  -11.27179 -11.27173 -11.27163  -1.60192  -1.60081
 Alpha  occ. eigenvalues --   -1.39742  -1.39629  -1.19848  -1.19709  -1.09199
 Alpha  occ. eigenvalues --   -1.09109  -1.05332  -1.05070  -0.96014  -0.95920
 Alpha  occ. eigenvalues --   -0.86672  -0.86517  -0.82904  -0.82701  -0.77956
 Alpha  occ. eigenvalues --   -0.77711  -0.72387  -0.72276  -0.71522  -0.71408
 Alpha  occ. eigenvalues --   -0.70915  -0.70837  -0.65528  -0.65397  -0.65312
 Alpha  occ. eigenvalues --   -0.65079  -0.62744  -0.62332  -0.55723  -0.55662
 Alpha  occ. eigenvalues --   -0.53862  -0.53383  -0.53274  -0.53093  -0.49161
 Alpha  occ. eigenvalues --   -0.49136  -0.49047  -0.49023  -0.45118  -0.45012
 Alpha  occ. eigenvalues --   -0.37975  -0.37704  -0.37254  -0.36124
 Alpha virt. eigenvalues --    0.04560   0.04822   0.10346   0.11241   0.15876
 Alpha virt. eigenvalues --    0.16464   0.19510   0.21861   0.25242   0.27090
 Alpha virt. eigenvalues --    0.28000   0.28620   0.30317   0.30937   0.32202

 Mulliken charges:
               1
     1  C   -0.176165
     2  C   -0.218765
     3  C   -0.171733
     4  C    0.157448
     5  C   -0.167665
     6  C   -0.215581
     7  H    0.223200
     8  H    0.223652
     9  H    0.276230
    10  H    0.279267
    11  H    0.218231
    12  N    0.487683
    13  O   -0.457453
    14  O   -0.460558
    15  C   -0.170501
    16  C   -0.216622
    17  C   -0.168557
    18  C    0.159071
    19  C   -0.182515
    20  C   -0.211812
    21  H    0.227144
    22  H    0.227559
    23  H    0.279609
    24  H    0.270915
    25  H    0.217441
    26  N    0.488107
    27  O   -0.462400
    28  O   -0.455232
 Sum of Mulliken charges =  -0.00000

 Dipole moment (field-independent basis, Debye):
    X=             -2.0995    Y=             -7.6002    Z=              2.3335  Tot=              8.2229
 Quadrupole moment (field-independent basis, Debye-Ang):
   XX=           -118.8501   YY=           -107.7499   ZZ=           -101.2196
   XY=              8.2532   XZ=             12.9512   YZ=              2.0608

 Normal termination of Gaussian 16 at Thu May  6 18:04:33 2021.
