 Gaussian 16, Revision A.03,
 Gaussian 16:  EM64L-G16RevA.03 25-Dec-2016

 -------------
 #p 6-31g* mp2
 -------------

 ------------------------------------------------------
 Input file generated by CHIRIPA (05-May-2021 14:57:26)
 ------------------------------------------------------
 Symbolic Z-matrix:
 Charge =  0 Multiplicity = 1

                         Standard orientation:
 ---------------------------------------------------------------------
 Center     Atomic      Atomic             Coordinates (Angstroms)
 Number     Number       Type             X           Y           Z
 ---------------------------------------------------------------------
      1          6           0       -4.277876    2.000250    0.460001
      2          6           0       -2.886466    2.021503    0.601588
      3          6           0       -2.124504    0.889383    0.297835
      4          6           0       -2.789664   -0.252098   -0.146993
      5          6           0       -4.174458   -0.304443   -0.298306
      6          6           0       -4.916306    0.839391    0.011297
      7          1           0       -4.861974    2.884258    0.698235
      8          1           0       -2.387964    2.921644    0.949852
      9          1           0       -1.045996    0.878334    0.398407
     10          1           0       -4.643053   -1.216474   -0.647642
     11          1           0       -5.996755    0.820002   -0.099610
     12          7           0       -1.993656   -1.456824   -0.471659
     13          8           0       -2.603587   -2.450037   -0.861722
     14          8           0       -0.774887   -1.385062   -0.329923
     15          6           0        2.317971   -2.170267    1.121645
     16          6           0        2.397574   -1.026923    1.923484
     17          6           0        2.730756    0.210475    1.364569
     18          6           0        2.979140    0.268535   -0.005914
     19          6           0        2.907813   -0.852702   -0.831160
     20          6           0        2.572895   -2.079668   -0.250699
     21          1           0        2.058473   -3.127455    1.564192
     22          1           0        2.200115   -1.094304    2.989559
     23          1           0        2.799426    1.111412    1.962074
     24          1           0        3.110110   -0.754145   -1.890772
     25          1           0        2.511813   -2.965947   -0.875856
     26          7           0        3.332784    1.572990   -0.609017
     27          8           0        3.547003    1.597643   -1.819034
     28          8           0        3.389055    2.546069    0.139707
 ---------------------------------------------------------------------

 SCF Done:  E(RHF) =  -868.338843699     A.U. after   16 cycles
 E2 =    -0.2600250547D+01 EUMP2 =    -0.87093909424650D+03

 The electronic state is 1-A.
 Alpha  occ. eigenvalues --  -20.61099 -20.61094 -20.60310 -20.60281 -15.86126
 Alpha  occ. eigenvalues --  -15.85340 -11.31341 -11.30388 -11.27905 -11.27864
 Alpha  occ. eigenvalues --  -11.27602 -11.26991 -11.26884 -11.26837 -11.26824
 Alpha  occ. eigenvalues --  -11.26514 -11.25922 -11.25723  -1.60181  -1.59385
 Alpha  occ. eigenvalues --   -1.39735  -1.38947  -1.19500  -1.18492  -1.08928
 Alpha  occ. eigenvalues --   -1.07939  -1.04874  -1.03860  -0.95788  -0.94843
 Alpha  occ. eigenvalues --   -0.86280  -0.85284  -0.82620  -0.81703  -0.77687
 Alpha  occ. eigenvalues --   -0.76804  -0.72376  -0.71567  -0.71494  -0.70709
 Alpha  occ. eigenvalues --   -0.70604  -0.69615  -0.65153  -0.64871  -0.64162
 Alpha  occ. eigenvalues --   -0.63886  -0.62220  -0.61252  -0.55384  -0.54358
 Alpha  occ. eigenvalues --   -0.53220  -0.52960  -0.52139  -0.51979  -0.49133
 Alpha  occ. eigenvalues --   -0.49106  -0.48339  -0.48292  -0.45183  -0.44425
 Alpha  occ. eigenvalues --   -0.37478  -0.36473  -0.36351  -0.35397
 Alpha virt. eigenvalues --    0.04792   0.05753   0.11183   0.12231   0.16324
 Alpha virt. eigenvalues --    0.17377   0.21334   0.22269   0.27227   0.28097
 Alpha virt. eigenvalues --    0.28181   0.29134   0.30846   0.31779   0.32287

 Mulliken charges:
               1
     1  C   -0.170345
     2  C   -0.218794
     3  C   -0.171476
     4  C    0.157056
     5  C   -0.171087
     6  C   -0.218688
     7  H    0.226809
     8  H    0.226995
     9  H    0.276540
    10  H    0.274873
    11  H    0.223729
    12  N    0.490908
    13  O   -0.462494
    14  O   -0.464822
    15  C   -0.158819
    16  C   -0.218399
    17  C   -0.178498
    18  C    0.156267
    19  C   -0.168268
    20  C   -0.200801
    21  H    0.225181
    22  H    0.218301
    23  H    0.268751
    24  H    0.272993
    25  H    0.225067
    26  N    0.487322
    27  O   -0.461243
    28  O   -0.467058
 Sum of Mulliken charges =  -0.00000

 Dipole moment (field-independent basis, Debye):
    X=             -4.2269    Y=             -0.6239    Z=              3.1760  Tot=              5.3238
 Quadrupole moment (field-independent basis, Debye-Ang):
   XX=            -94.6062   YY=           -107.9401   ZZ=           -102.0599
   XY=            -24.3720   XZ=              4.0065   YZ=              2.6504

 Normal termination of Gaussian 16 at Thu May  6 03:36:38 2021.
