 Gaussian 16, Revision A.03,
 Gaussian 16:  EM64L-G16RevA.03 25-Dec-2016

 -------------
 #p 6-31g* mp2
 -------------

 ------------------------------------------------------
 Input file generated by CHIRIPA (05-May-2021 14:53:17)
 ------------------------------------------------------
 Symbolic Z-matrix:
 Charge =  0 Multiplicity = 1

                         Standard orientation:
 ---------------------------------------------------------------------
 Center     Atomic      Atomic             Coordinates (Angstroms)
 Number     Number       Type             X           Y           Z
 ---------------------------------------------------------------------
      1          6           0        2.665157    0.033260   -0.716656
      2          6           0        3.146785   -1.276546   -0.091815
      3          6           0        3.485018   -2.340599   -1.136413
      4          1           0        1.781179   -0.167266   -1.337395
      5          1           0        3.441824    0.416061   -1.393151
      6          1           0        2.370008   -1.656048    0.584359
      7          1           0        4.029605   -1.072847    0.527662
      8          1           0        4.276196   -1.986254   -1.805052
      9          1           0        2.607169   -2.572769   -1.748033
     10          1           0        3.827157   -3.268664   -0.667908
     11          6           0        2.323135    1.106832    0.314941
     12          6           0        1.841507    2.416639   -0.309900
     13          6           0        1.503274    3.480692    0.734698
     14          1           0        1.546468    0.724031    0.991437
     15          1           0        3.207113    1.307359    0.935680
     16          1           0        0.958687    2.212940   -0.929377
     17          1           0        2.618284    2.796141   -0.986074
     18          1           0        2.381123    3.712862    1.346318
     19          1           0        0.712097    3.126347    1.403338
     20          1           0        1.161135    4.408757    0.266193
     21          6           0       -0.801254   -2.436722    1.198105
     22          6           0       -1.731744   -2.623179    0.170513
     23          6           0       -2.373510   -1.527111   -0.413711
     24          6           0       -2.059468   -0.252830    0.056261
     25          6           0       -1.137008   -0.034584    1.078381
     26          6           0       -0.507374   -1.145296    1.647965
     27          1           0       -0.307427   -3.293861    1.646259
     28          1           0       -1.961940   -3.624970   -0.180868
     29          1           0       -3.097932   -1.642805   -1.210735
     30          1           0       -0.928241    0.976136    1.407442
     31          1           0        0.214829   -0.997487    2.445849
     32          7           0       -2.732456    0.915280   -0.554482
     33          8           0       -2.438306    2.027721   -0.122525
     34          8           0       -3.541351    0.696283   -1.453574
 ---------------------------------------------------------------------

 SCF Done:  E(RHF) =  -669.534057798     A.U. after   15 cycles
 E2 =    -0.2095850602D+01 EUMP2 =    -0.67162990840010D+03

 The electronic state is 1-A.
 Alpha  occ. eigenvalues --  -20.60909 -20.60903 -15.85951 -11.31332 -11.27891
 Alpha  occ. eigenvalues --  -11.27884 -11.27631 -11.26903 -11.26893 -11.21950
 Alpha  occ. eigenvalues --  -11.21596 -11.21546 -11.21496 -11.21440 -11.20994
 Alpha  occ. eigenvalues --   -1.59976  -1.39529  -1.19513  -1.08902  -1.08616
 Alpha  occ. eigenvalues --   -1.04922  -1.03683  -0.96134  -0.95729  -0.87156
 Alpha  occ. eigenvalues --   -0.86307  -0.82574  -0.79756  -0.78486  -0.77583
 Alpha  occ. eigenvalues --   -0.72170  -0.71299  -0.70617  -0.65349  -0.65133
 Alpha  occ. eigenvalues --   -0.64923  -0.62270  -0.61030  -0.59514  -0.57744
 Alpha  occ. eigenvalues --   -0.55469  -0.55394  -0.53230  -0.52996  -0.52802
 Alpha  occ. eigenvalues --   -0.52564  -0.50107  -0.48929  -0.48924  -0.48077
 Alpha  occ. eigenvalues --   -0.46797  -0.45994  -0.45892  -0.44911  -0.43932
 Alpha  occ. eigenvalues --   -0.37458  -0.36391
 Alpha virt. eigenvalues --    0.04882   0.10972   0.16267   0.19967   0.23118
 Alpha virt. eigenvalues --    0.23206   0.25627   0.26697   0.27005   0.28202
 Alpha virt. eigenvalues --    0.29867   0.30449   0.31188   0.31623   0.31777

 Mulliken charges:
               1
     1  C   -0.296981
     2  C   -0.301226
     3  C   -0.475938
     4  H    0.152192
     5  H    0.151383
     6  H    0.146162
     7  H    0.151028
     8  H    0.157580
     9  H    0.155604
    10  H    0.157385
    11  C   -0.300635
    12  C   -0.303683
    13  C   -0.474184
    14  H    0.141622
    15  H    0.148212
    16  H    0.159940
    17  H    0.153017
    18  H    0.152184
    19  H    0.150923
    20  H    0.167778
    21  C   -0.171094
    22  C   -0.219044
    23  C   -0.170902
    24  C    0.155121
    25  C   -0.172429
    26  C   -0.217676
    27  H    0.226958
    28  H    0.224282
    29  H    0.276117
    30  H    0.282625
    31  H    0.225873
    32  N    0.487565
    33  O   -0.460376
    34  O   -0.459385
 Sum of Mulliken charges =  -0.00000

 Dipole moment (field-independent basis, Debye):
    X=              2.2364    Y=             -4.0472    Z=              2.0476  Tot=              5.0571
 Quadrupole moment (field-independent basis, Debye-Ang):
   XX=           -103.2787   YY=            -91.4588   ZZ=            -93.5447
   XY=             10.4457   XZ=             -2.6396   YZ=              0.5581

 Normal termination of Gaussian 16 at Thu May  6 04:24:13 2021.
