 Gaussian 16, Revision A.03,
 Gaussian 16:  EM64L-G16RevA.03 25-Dec-2016

 -------------
 #p 6-31g* mp2
 -------------

 ------------------------------------------------------
 Input file generated by CHIRIPA (05-May-2021 14:53:16)
 ------------------------------------------------------
 Symbolic Z-matrix:
 Charge =  0 Multiplicity = 1

                         Standard orientation:
 ---------------------------------------------------------------------
 Center     Atomic      Atomic             Coordinates (Angstroms)
 Number     Number       Type             X           Y           Z
 ---------------------------------------------------------------------
      1          6           0       -3.062262   -0.445960    0.205403
      2          6           0       -3.912326   -1.595082   -0.337640
      3          6           0       -3.368468   -2.969252    0.054367
      4          1           0       -2.033075   -0.553459   -0.163600
      5          1           0       -3.011317   -0.522441    1.300369
      6          1           0       -3.962796   -1.515659   -1.431148
      7          1           0       -4.939654   -1.484727    0.032544
      8          1           0       -3.334123   -3.073557    1.143652
      9          1           0       -2.351715   -3.104665   -0.328356
     10          1           0       -3.991279   -3.776147   -0.344240
     11          6           0       -3.593214    0.934160   -0.178116
     12          6           0       -2.743150    2.083282    0.364926
     13          6           0       -3.287008    3.457453   -0.027081
     14          1           0       -3.644160    1.010642   -1.273082
     15          1           0       -4.622401    1.041660    0.190886
     16          1           0       -1.715822    1.972928   -0.005257
     17          1           0       -2.692680    2.003860    1.458435
     18          1           0       -4.303761    3.592866    0.355642
     19          1           0       -3.321354    3.561758   -1.116366
     20          1           0       -2.664198    4.264348    0.371527
     21          6           0        3.766904    2.045172   -0.078784
     22          6           0        2.369529    1.984291   -0.091348
     23          6           0        1.712214    0.750970   -0.053913
     24          6           0        2.486964   -0.406860   -0.004073
     25          6           0        3.880637   -0.378993    0.009640
     26          6           0        4.516677    0.865415   -0.028418
     27          1           0        4.269259    3.007552   -0.108107
     28          1           0        1.784681    2.898879   -0.130432
     29          1           0        0.631678    0.674904   -0.062586
     30          1           0        4.436614   -1.307844    0.048932
     31          1           0        5.602030    0.909663   -0.018550
     32          7           0        1.802355   -1.718391    0.035889
     33          8           0        2.507730   -2.723966    0.079518
     34          8           0        0.573347   -1.715960    0.022824
 ---------------------------------------------------------------------

 SCF Done:  E(RHF) =  -669.536097012     A.U. after   15 cycles
 E2 =    -0.2092361954D+01 EUMP2 =    -0.67162845896559D+03

 The electronic state is 1-A.
 Alpha  occ. eigenvalues --  -20.60933 -20.60927 -15.85968 -11.31261 -11.27825
 Alpha  occ. eigenvalues --  -11.27812 -11.27560 -11.26829 -11.26813 -11.21820
 Alpha  occ. eigenvalues --  -11.21295 -11.21133 -11.20809 -11.20618 -11.19892
 Alpha  occ. eigenvalues --   -1.59994  -1.39551  -1.19429  -1.08839  -1.08050
 Alpha  occ. eigenvalues --   -1.04822  -1.03119  -0.95686  -0.95531  -0.86550
 Alpha  occ. eigenvalues --   -0.86225  -0.82524  -0.79293  -0.77831  -0.77473
 Alpha  occ. eigenvalues --   -0.72194  -0.71306  -0.70543  -0.65091  -0.64859
 Alpha  occ. eigenvalues --   -0.64659  -0.62172  -0.60513  -0.59011  -0.57122
 Alpha  occ. eigenvalues --   -0.55331  -0.54800  -0.53156  -0.52919  -0.52289
 Alpha  occ. eigenvalues --   -0.51929  -0.49521  -0.48945  -0.48892  -0.47552
 Alpha  occ. eigenvalues --   -0.46352  -0.45269  -0.45104  -0.44956  -0.43353
 Alpha  occ. eigenvalues --   -0.37410  -0.36422
 Alpha virt. eigenvalues --    0.04955   0.11232   0.16458   0.19492   0.23136
 Alpha virt. eigenvalues --    0.24533   0.24845   0.27335   0.27584   0.28352
 Alpha virt. eigenvalues --    0.29572   0.31274   0.31771   0.31933   0.32540

 Mulliken charges:
               1
     1  C   -0.309342
     2  C   -0.298731
     3  C   -0.480182
     4  H    0.170358
     5  H    0.148204
     6  H    0.149005
     7  H    0.147065
     8  H    0.153205
     9  H    0.175680
    10  H    0.154577
    11  C   -0.297866
    12  C   -0.299743
    13  C   -0.475178
    14  H    0.148298
    15  H    0.149442
    16  H    0.139700
    17  H    0.153884
    18  H    0.158176
    19  H    0.155372
    20  H    0.155823
    21  C   -0.170304
    22  C   -0.221463
    23  C   -0.177041
    24  C    0.157408
    25  C   -0.169927
    26  C   -0.219071
    27  H    0.225943
    28  H    0.224269
    29  H    0.285919
    30  H    0.275682
    31  H    0.223720
    32  N    0.494319
    33  O   -0.459069
    34  O   -0.468131
 Sum of Mulliken charges =  -0.00000

 Dipole moment (field-independent basis, Debye):
    X=              2.5683    Y=              4.4688    Z=             -0.1363  Tot=              5.1560
 Quadrupole moment (field-independent basis, Debye-Ang):
   XX=            -79.1181   YY=            -99.1631   ZZ=            -95.0385
   XY=              8.5829   XZ=             -0.8046   YZ=              0.2297

 Normal termination of Gaussian 16 at Thu May  6 05:56:30 2021.
