 Gaussian 16, Revision A.03,
 Gaussian 16:  EM64L-G16RevA.03 25-Dec-2016

 -------------
 #p 6-31g* mp2
 -------------

 ------------------------------------------------------
 Input file generated by CHIRIPA (05-May-2021 14:53:14)
 ------------------------------------------------------
 Symbolic Z-matrix:
 Charge =  0 Multiplicity = 1

                         Standard orientation:
 ---------------------------------------------------------------------
 Center     Atomic      Atomic             Coordinates (Angstroms)
 Number     Number       Type             X           Y           Z
 ---------------------------------------------------------------------
      1          6           0       -4.079021   -0.247636    0.003944
      2          6           0       -3.648707   -1.433427    0.868070
      3          6           0       -4.581339   -2.636815    0.727182
      4          1           0       -5.101846    0.045326    0.277708
      5          1           0       -4.115275   -0.563442   -1.047886
      6          1           0       -3.611937   -1.115105    1.917800
      7          1           0       -2.626717   -1.723478    0.592348
      8          1           0       -4.610710   -2.981929   -0.311392
      9          1           0       -5.601528   -2.370100    1.021591
     10          1           0       -4.255150   -3.473023    1.353454
     11          6           0       -3.156505    0.963062    0.133957
     12          6           0       -3.586818    2.148854   -0.730168
     13          6           0       -2.654186    3.352242   -0.589281
     14          1           0       -3.120250    1.278869    1.185788
     15          1           0       -2.133679    0.670101   -0.139807
     16          1           0       -4.608809    2.438904   -0.454447
     17          1           0       -3.623588    1.830532   -1.779899
     18          1           0       -1.633997    3.085526   -0.883690
     19          1           0       -2.624815    3.697355    0.449293
     20          1           0       -2.980375    4.188450   -1.215553
     21          6           0        1.361685   -2.159198   -0.882843
     22          6           0        0.789457   -0.939316   -0.507391
     23          6           0        1.591323    0.109137   -0.046628
     24          6           0        2.967978   -0.097737    0.026275
     25          6           0        3.567900   -1.301444   -0.340433
     26          6           0        2.746639   -2.336057   -0.798314
     27          1           0        0.731242   -2.968285   -1.239657
     28          1           0       -0.285820   -0.799128   -0.571992
     29          1           0        1.174614    1.063845    0.250532
     30          1           0        4.642916   -1.411304   -0.265008
     31          1           0        3.193795   -3.282351   -1.089214
     32          7           0        3.827144    1.004886    0.512540
     33          8           0        5.037339    0.797398    0.567455
     34          8           0        3.274097    2.055733    0.829550
 ---------------------------------------------------------------------

 SCF Done:  E(RHF) =  -669.535366702     A.U. after   15 cycles
 E2 =    -0.2091737735D+01 EUMP2 =    -0.67162710443663D+03

 The electronic state is 1-A.
 Alpha  occ. eigenvalues --  -20.60734 -20.60729 -15.85788 -11.31157 -11.27730
 Alpha  occ. eigenvalues --  -11.27719 -11.27474 -11.26745 -11.26716 -11.22473
 Alpha  occ. eigenvalues --  -11.22301 -11.22208 -11.22177 -11.21799 -11.21529
 Alpha  occ. eigenvalues --   -1.59810  -1.39363  -1.19330  -1.09230  -1.08725
 Alpha  occ. eigenvalues --   -1.04735  -1.04232  -0.96672  -0.95559  -0.87681
 Alpha  occ. eigenvalues --   -0.86136  -0.82396  -0.80297  -0.79065  -0.77434
 Alpha  occ. eigenvalues --   -0.72006  -0.71133  -0.70441  -0.65941  -0.64983
 Alpha  occ. eigenvalues --   -0.64705  -0.62083  -0.61631  -0.60041  -0.58282
 Alpha  occ. eigenvalues --   -0.55968  -0.55238  -0.53333  -0.53105  -0.53062
 Alpha  occ. eigenvalues --   -0.52821  -0.50617  -0.48771  -0.48761  -0.48606
 Alpha  occ. eigenvalues --   -0.47350  -0.46570  -0.46490  -0.44768  -0.44513
 Alpha  occ. eigenvalues --   -0.37313  -0.36335
 Alpha virt. eigenvalues --    0.05097   0.11278   0.16578   0.18574   0.22846
 Alpha virt. eigenvalues --    0.23150   0.24643   0.26412   0.26613   0.27897
 Alpha virt. eigenvalues --    0.29563   0.30775   0.31180   0.31342   0.32000

 Mulliken charges:
               1
     1  C   -0.299118
     2  C   -0.301031
     3  C   -0.476155
     4  H    0.154334
     5  H    0.148797
     6  H    0.156518
     7  H    0.143527
     8  H    0.154393
     9  H    0.158655
    10  H    0.161891
    11  C   -0.302594
    12  C   -0.300074
    13  C   -0.476243
    14  H    0.154782
    15  H    0.140101
    16  H    0.155186
    17  H    0.152224
    18  H    0.153413
    19  H    0.158468
    20  H    0.163998
    21  C   -0.172096
    22  C   -0.227339
    23  C   -0.173966
    24  C    0.158791
    25  C   -0.171034
    26  C   -0.218497
    27  H    0.225762
    28  H    0.235260
    29  H    0.276057
    30  H    0.275537
    31  H    0.223276
    32  N    0.488063
    33  O   -0.460677
    34  O   -0.460211
 Sum of Mulliken charges =  -0.00000

 Dipole moment (field-independent basis, Debye):
    X=             -3.2443    Y=             -3.7983    Z=             -1.6613  Tot=              5.2643
 Quadrupole moment (field-independent basis, Debye-Ang):
   XX=           -108.6932   YY=            -93.1118   ZZ=            -94.9666
   XY=            -15.0086   XZ=             -6.4157   YZ=              0.7485

 Normal termination of Gaussian 16 at Wed May  5 15:34:03 2021.
