 Gaussian 16, Revision A.03,
 Gaussian 16:  EM64L-G16RevA.03 25-Dec-2016

 -------------
 #p 6-31g* mp2
 -------------

 ------------------------------------------------------
 Input file generated by CHIRIPA (05-May-2021 14:53:17)
 ------------------------------------------------------
 Symbolic Z-matrix:
 Charge =  0 Multiplicity = 1

                         Standard orientation:
 ---------------------------------------------------------------------
 Center     Atomic      Atomic             Coordinates (Angstroms)
 Number     Number       Type             X           Y           Z
 ---------------------------------------------------------------------
      1          6           0        2.652762   -0.540877   -0.310622
      2          6           0        3.423295   -1.734639   -0.875598
      3          6           0        2.508377   -2.891067   -1.279816
      4          1           0        2.067680   -0.868796    0.559489
      5          1           0        1.929155   -0.192299   -1.060476
      6          1           0        4.146196   -2.079992   -0.125424
      7          1           0        4.006760   -1.403798   -1.744350
      8          1           0        1.795795   -2.568844   -2.045975
      9          1           0        1.936024   -3.248880   -0.417851
     10          1           0        3.079924   -3.733809   -1.681039
     11          6           0        3.553682    0.623210    0.098000
     12          6           0        2.783150    1.816972    0.662976
     13          6           0        3.698068    2.973400    1.067193
     14          1           0        4.277290    0.274632    0.847853
     15          1           0        4.138764    0.951129   -0.772111
     16          1           0        2.199685    1.486131    1.531727
     17          1           0        2.060249    2.162325   -0.087198
     18          1           0        4.270421    3.331213    0.205228
     19          1           0        4.410649    2.651177    1.833352
     20          1           0        3.126521    3.816142    1.468417
     21          6           0       -3.108823    1.332976   -1.925396
     22          6           0       -1.814261    0.809698   -1.842860
     23          6           0       -1.424082    0.051863   -0.734710
     24          6           0       -2.358224   -0.164138    0.277225
     25          6           0       -3.655323    0.343800    0.224069
     26          6           0       -4.023609    1.098769   -0.893488
     27          1           0       -3.403420    1.920566   -2.789888
     28          1           0       -1.101726    0.989980   -2.642756
     29          1           0       -0.428313   -0.365080   -0.645155
     30          1           0       -4.343474    0.147181    1.037216
     31          1           0       -5.029657    1.503914   -0.954898
     32          7           0       -1.956748   -0.964906    1.455353
     33          8           0       -2.798420   -1.140933    2.333556
     34          8           0       -0.808000   -1.401360    1.478260
 ---------------------------------------------------------------------

 SCF Done:  E(RHF) =  -669.535923169     A.U. after   15 cycles
 E2 =    -0.2092482782D+01 EUMP2 =    -0.67162840595124D+03

 The electronic state is 1-A.
 Alpha  occ. eigenvalues --  -20.60818 -20.60810 -15.85859 -11.31142 -11.27734
 Alpha  occ. eigenvalues --  -11.27648 -11.27476 -11.26736 -11.26718 -11.21550
 Alpha  occ. eigenvalues --  -11.21494 -11.21353 -11.21294 -11.21029 -11.20883
 Alpha  occ. eigenvalues --   -1.59882  -1.39438  -1.19324  -1.08738  -1.08372
 Alpha  occ. eigenvalues --   -1.04719  -1.03442  -0.95896  -0.95580  -0.86911
 Alpha  occ. eigenvalues --   -0.86122  -0.82418  -0.79511  -0.78280  -0.77410
 Alpha  occ. eigenvalues --   -0.72082  -0.71198  -0.70442  -0.65058  -0.64929
 Alpha  occ. eigenvalues --   -0.64722  -0.62077  -0.60829  -0.59262  -0.57508
 Alpha  occ. eigenvalues --   -0.55258  -0.55154  -0.53054  -0.52861  -0.52571
 Alpha  occ. eigenvalues --   -0.52283  -0.49829  -0.48848  -0.48832  -0.47816
 Alpha  occ. eigenvalues --   -0.46531  -0.45755  -0.45584  -0.44842  -0.43709
 Alpha  occ. eigenvalues --   -0.37314  -0.36317
 Alpha virt. eigenvalues --    0.05043   0.11321   0.16531   0.20448   0.23115
 Alpha virt. eigenvalues --    0.24121   0.25452   0.26887   0.27878   0.28113
 Alpha virt. eigenvalues --    0.29986   0.30806   0.31479   0.31794   0.32051

 Mulliken charges:
               1
     1  C   -0.310752
     2  C   -0.298357
     3  C   -0.478692
     4  H    0.175674
     5  H    0.132519
     6  H    0.154905
     7  H    0.148773
     8  H    0.147065
     9  H    0.167949
    10  H    0.160144
    11  C   -0.296905
    12  C   -0.300931
    13  C   -0.475581
    14  H    0.152601
    15  H    0.146972
    16  H    0.159570
    17  H    0.145040
    18  H    0.153441
    19  H    0.156946
    20  H    0.160069
    21  C   -0.170215
    22  C   -0.222731
    23  C   -0.178001
    24  C    0.156356
    25  C   -0.169942
    26  C   -0.219342
    27  H    0.225419
    28  H    0.222834
    29  H    0.290912
    30  H    0.275302
    31  H    0.223253
    32  N    0.489636
    33  O   -0.459944
    34  O   -0.463990
 Sum of Mulliken charges =  -0.00000

 Dipole moment (field-independent basis, Debye):
    X=             -1.3764    Y=              2.7099    Z=             -3.9347  Tot=              4.9719
 Quadrupole moment (field-independent basis, Debye-Ang):
   XX=            -84.1982   YY=            -97.0103   ZZ=            -96.2628
   XY=             -7.9788   XZ=              7.8885   YZ=              0.8412

 Normal termination of Gaussian 16 at Thu May  6 15:35:56 2021.
