 Gaussian 16, Revision A.03,
 Gaussian 16:  EM64L-G16RevA.03 25-Dec-2016

 -------------
 #p 6-31g* mp2
 -------------

 ------------------------------------------------------
 Input file generated by CHIRIPA (05-May-2021 14:55:21)
 ------------------------------------------------------
 Symbolic Z-matrix:
 Charge =  0 Multiplicity = 1

                         Standard orientation:
 ---------------------------------------------------------------------
 Center     Atomic      Atomic             Coordinates (Angstroms)
 Number     Number       Type             X           Y           Z
 ---------------------------------------------------------------------
      1          6           0        5.262625    0.524156   -0.548508
      2          6           0        4.953614    0.196249    0.775694
      3          6           0        3.646897   -0.146166    1.135958
      4          6           0        2.669491   -0.150488    0.142001
      5          6           0        2.946011    0.171418   -1.185855
      6          6           0        4.259605    0.510718   -1.523338
      7          1           0        6.280385    0.788943   -0.819521
      8          1           0        5.730544    0.205847    1.534860
      9          1           0        3.380005   -0.404252    2.153592
     10          1           0        2.150159    0.153014   -1.920497
     11          1           0        4.496687    0.764931   -2.552518
     12          7           0        1.282488   -0.511339    0.511338
     13          8           0        0.439434   -0.507687   -0.383024
     14          8           0        1.064673   -0.790994    1.688192
     15          6           0       -3.415152    0.807169   -0.244338
     16          6           0       -4.227704    1.948643    0.367857
     17          6           0       -3.626125    3.324127    0.078136
     18          1           0       -2.387705    0.848442    0.142439
     19          1           0       -3.346416    0.956891   -1.330733
     20          1           0       -4.296057    1.796071    1.452599
     21          1           0       -5.253386    1.904533   -0.020275
     22          1           0       -3.572983    3.501846   -1.000841
     23          1           0       -2.610214    3.392768    0.480401
     24          1           0       -4.222808    4.125478    0.524975
     25          6           0       -4.003949   -0.574168    0.036644
     26          6           0       -3.191397   -1.715642   -0.575550
     27          6           0       -3.792976   -3.091127   -0.285830
     28          1           0       -4.072684   -0.723890    1.123039
     29          1           0       -5.031396   -0.615441   -0.350132
     30          1           0       -2.165715   -1.671533   -0.187419
     31          1           0       -3.123044   -1.563071   -1.660293
     32          1           0       -4.808887   -3.159767   -0.688095
     33          1           0       -3.846118   -3.268845    0.793148
     34          1           0       -3.196293   -3.892478   -0.732669
 ---------------------------------------------------------------------

 SCF Done:  E(RHF) =  -669.536665246     A.U. after   15 cycles
 E2 =    -0.2091545240D+01 EUMP2 =    -0.67162821048633D+03

 The electronic state is 1-A.
 Alpha  occ. eigenvalues --  -20.61136 -20.61101 -15.86121 -11.31385 -11.27938
 Alpha  occ. eigenvalues --  -11.27933 -11.27666 -11.26930 -11.26920 -11.20538
 Alpha  occ. eigenvalues --  -11.20239 -11.19976 -11.19907 -11.19811 -11.19738
 Alpha  occ. eigenvalues --   -1.60166  -1.39722  -1.19545  -1.08963  -1.07046
 Alpha  occ. eigenvalues --   -1.04931  -1.02246  -0.95813  -0.94746  -0.86334
 Alpha  occ. eigenvalues --   -0.85772  -0.82648  -0.78300  -0.77709  -0.76803
 Alpha  occ. eigenvalues --   -0.72332  -0.71467  -0.70653  -0.65201  -0.64934
 Alpha  occ. eigenvalues --   -0.63673  -0.62277  -0.59645  -0.58129  -0.56337
 Alpha  occ. eigenvalues --   -0.55439  -0.54047  -0.53266  -0.53021  -0.51491
 Alpha  occ. eigenvalues --   -0.51171  -0.49181  -0.49101  -0.48696  -0.46624
 Alpha  occ. eigenvalues --   -0.45360  -0.45070  -0.44386  -0.44116  -0.42475
 Alpha  occ. eigenvalues --   -0.37521  -0.36528
 Alpha virt. eigenvalues --    0.04801   0.11128   0.16309   0.21266   0.24202
 Alpha virt. eigenvalues --    0.25507   0.27193   0.27968   0.28166   0.28913
 Alpha virt. eigenvalues --    0.29271   0.30873   0.32381   0.32575   0.33007

 Mulliken charges:
               1
     1  C   -0.170331
     2  C   -0.218629
     3  C   -0.170474
     4  C    0.157454
     5  C   -0.170636
     6  C   -0.218575
     7  H    0.226360
     8  H    0.224123
     9  H    0.275970
    10  H    0.276379
    11  H    0.224233
    12  N    0.489060
    13  O   -0.458803
    14  O   -0.458891
    15  C   -0.301531
    16  C   -0.298764
    17  C   -0.474446
    18  H    0.166474
    19  H    0.144252
    20  H    0.150792
    21  H    0.147801
    22  H    0.152353
    23  H    0.154719
    24  H    0.156100
    25  C   -0.296724
    26  C   -0.309679
    27  C   -0.474760
    28  H    0.147965
    29  H    0.141991
    30  H    0.183208
    31  H    0.144699
    32  H    0.148513
    33  H    0.153495
    34  H    0.156302
 Sum of Mulliken charges =  -0.00000

 Dipole moment (field-independent basis, Debye):
    X=              5.3971    Y=              1.2484    Z=             -1.2354  Tot=              5.6757
 Quadrupole moment (field-independent basis, Debye-Ang):
   XX=            -70.3090   YY=            -97.9738   ZZ=            -90.0279
   XY=              2.1367   XZ=             -1.0540   YZ=             -0.4306

 Normal termination of Gaussian 16 at Thu May  6 10:54:45 2021.
