 Gaussian 16, Revision A.03,
 Gaussian 16:  EM64L-G16RevA.03 25-Dec-2016

 -------------
 #p 6-31g* mp2
 -------------

 ------------------------------------------------------
 Input file generated by CHIRIPA (05-May-2021 14:55:25)
 ------------------------------------------------------
 Symbolic Z-matrix:
 Charge =  0 Multiplicity = 1

                         Standard orientation:
 ---------------------------------------------------------------------
 Center     Atomic      Atomic             Coordinates (Angstroms)
 Number     Number       Type             X           Y           Z
 ---------------------------------------------------------------------
      1          6           0        0.882938   -0.342588    2.443525
      2          6           0        0.899947    0.907256    1.815735
      3          6           0        1.592777    1.089395    0.615169
      4          6           0        2.260730   -0.004927    0.067822
      5          6           0        2.262443   -1.262527    0.669261
      6          6           0        1.563042   -1.421589    1.869296
      7          1           0        0.342179   -0.475115    3.375947
      8          1           0        0.372662    1.747006    2.259397
      9          1           0        1.622409    2.046087    0.107940
     10          1           0        2.797473   -2.080835    0.202855
     11          1           0        1.551559   -2.393377    2.354622
     12          7           0        2.997677    0.175680   -1.202883
     13          8           0        3.578204   -0.804288   -1.664714
     14          8           0        2.980815    1.293788   -1.712968
     15          6           0       -2.754615   -0.657084   -0.053091
     16          6           0       -2.912613   -1.762860   -1.097257
     17          6           0       -2.943626   -3.160526   -0.478094
     18          1           0       -1.830561   -0.828184    0.515937
     19          1           0       -3.581811   -0.721725    0.667300
     20          1           0       -2.086125   -1.695290   -1.816260
     21          1           0       -3.836301   -1.589000   -1.663993
     22          1           0       -3.778003   -3.252070    0.224784
     23          1           0       -2.017882   -3.358963    0.071651
     24          1           0       -3.057193   -3.935733   -1.242303
     25          6           0       -2.721923    0.745898   -0.656668
     26          6           0       -2.563925    1.851674    0.387498
     27          6           0       -2.532911    3.249340   -0.231665
     28          1           0       -1.894727    0.810538   -1.377059
     29          1           0       -3.645977    0.916997   -1.225695
     30          1           0       -1.640237    1.677814    0.954234
     31          1           0       -3.390413    1.784104    1.106502
     32          1           0       -3.458656    3.447777   -0.781410
     33          1           0       -1.698535    3.340884   -0.934543
     34          1           0       -2.419345    4.024548    0.532545
 ---------------------------------------------------------------------

 SCF Done:  E(RHF) =  -669.535001454     A.U. after   15 cycles
 E2 =    -0.2093834087D+01 EUMP2 =    -0.67162883554131D+03

 The electronic state is 1-A.
 Alpha  occ. eigenvalues --  -20.60875 -20.60870 -15.85930 -11.31334 -11.27902
 Alpha  occ. eigenvalues --  -11.27897 -11.27653 -11.26934 -11.26912 -11.21968
 Alpha  occ. eigenvalues --  -11.21764 -11.21624 -11.21555 -11.21462 -11.21314
 Alpha  occ. eigenvalues --   -1.59951  -1.39503  -1.19519  -1.08911  -1.08679
 Alpha  occ. eigenvalues --   -1.04930  -1.03822  -0.96264  -0.95726  -0.87283
 Alpha  occ. eigenvalues --   -0.86320  -0.82563  -0.79899  -0.78509  -0.77594
 Alpha  occ. eigenvalues --   -0.72147  -0.71275  -0.70604  -0.65391  -0.65161
 Alpha  occ. eigenvalues --   -0.64894  -0.62305  -0.61192  -0.59640  -0.57881
 Alpha  occ. eigenvalues --   -0.55560  -0.55399  -0.53295  -0.53033  -0.52945
 Alpha  occ. eigenvalues --   -0.52688  -0.50203  -0.48912  -0.48900  -0.48208
 Alpha  occ. eigenvalues --   -0.46925  -0.46034  -0.45941  -0.44899  -0.44054
 Alpha  occ. eigenvalues --   -0.37452  -0.36458
 Alpha virt. eigenvalues --    0.04918   0.11032   0.16300   0.20626   0.22831
 Alpha virt. eigenvalues --    0.23833   0.26161   0.26767   0.27283   0.28166
 Alpha virt. eigenvalues --    0.28507   0.30095   0.31352   0.31536   0.32064

 Mulliken charges:
               1
     1  C   -0.171530
     2  C   -0.217160
     3  C   -0.171099
     4  C    0.158644
     5  C   -0.170727
     6  C   -0.219251
     7  H    0.227391
     8  H    0.225976
     9  H    0.276709
    10  H    0.276302
    11  H    0.224554
    12  N    0.488002
    13  O   -0.459899
    14  O   -0.460037
    15  C   -0.302747
    16  C   -0.299928
    17  C   -0.475310
    18  H    0.152042
    19  H    0.146633
    20  H    0.155231
    21  H    0.152725
    22  H    0.153954
    23  H    0.151877
    24  H    0.162054
    25  C   -0.297338
    26  C   -0.305801
    27  C   -0.477144
    28  H    0.153059
    29  H    0.150902
    30  H    0.148596
    31  H    0.150382
    32  H    0.158732
    33  H    0.157375
    34  H    0.156829
 Sum of Mulliken charges =  -0.00000

 Dipole moment (field-independent basis, Debye):
    X=             -2.5026    Y=             -0.6709    Z=              4.4391  Tot=              5.1399
 Quadrupole moment (field-independent basis, Debye-Ang):
   XX=           -105.9697   YY=            -91.4632   ZZ=            -94.7012
   XY=             -3.0670   XZ=             10.2551   YZ=              0.0335

 Normal termination of Gaussian 16 at Thu May  6 20:57:34 2021.
