 Gaussian 16, Revision A.03,
 Gaussian 16:  EM64L-G16RevA.03 25-Dec-2016

 -------------
 #p 6-31g* mp2
 -------------

 ------------------------------------------------------
 Input file generated by CHIRIPA (05-May-2021 14:51:10)
 ------------------------------------------------------
 Symbolic Z-matrix:
 Charge =  0 Multiplicity = 1

                         Standard orientation:
 ---------------------------------------------------------------------
 Center     Atomic      Atomic             Coordinates (Angstroms)
 Number     Number       Type             X           Y           Z
 ---------------------------------------------------------------------
      1          6           0       -3.164375    0.640115   -0.014409
      2          6           0       -4.566879    1.207782    0.206319
      3          6           0       -4.569453    2.727145    0.377555
      4          1           0       -2.526098    0.915748    0.836222
      5          1           0       -2.721478    1.110929   -0.902988
      6          1           0       -5.007533    0.735025    1.093416
      7          1           0       -5.201943    0.930602   -0.644846
      8          1           0       -4.154331    3.215553   -0.509988
      9          1           0       -3.958817    3.018864    1.238150
     10          1           0       -5.582075    3.111796    0.534086
     11          6           0       -3.145412   -0.877607   -0.187294
     12          6           0       -1.742907   -1.445273   -0.408022
     13          6           0       -1.740333   -2.964637   -0.579259
     14          1           0       -3.588308   -1.348420    0.701285
     15          1           0       -3.783689   -1.153240   -1.037926
     16          1           0       -1.107844   -1.168094    0.443143
     17          1           0       -1.302253   -0.972516   -1.295119
     18          1           0       -2.350970   -3.256355   -1.439854
     19          1           0       -2.155455   -3.453044    0.308285
     20          1           0       -0.727711   -3.349287   -0.735790
     21          6           0        3.261539    0.829587    0.359239
     22          6           0        3.786906    1.790275   -0.708023
     23          6           0        3.995189    3.208451   -0.175867
     24          1           0        2.313331    1.216458    0.756953
     25          1           0        3.967313    0.806342    1.201105
     26          1           0        3.081041    1.810648   -1.548234
     27          1           0        4.733878    1.400974   -1.103379
     28          1           0        4.715788    3.208675    0.648353
     29          1           0        3.053560    3.620677    0.200970
     30          1           0        4.371067    3.878560   -0.955308
     31          6           0        3.048247   -0.592095   -0.157536
     32          6           0        2.522879   -1.552784    0.909727
     33          6           0        2.314597   -2.970960    0.377570
     34          1           0        2.342474   -0.568850   -0.999402
     35          1           0        3.996456   -0.978967   -0.555250
     36          1           0        1.575909   -1.163483    1.305082
     37          1           0        3.228746   -1.573157    1.749938
     38          1           0        3.256226   -3.383186    0.000734
     39          1           0        1.593998   -2.971184   -0.446649
     40          1           0        1.938720   -3.641068    1.157012
 ---------------------------------------------------------------------

 SCF Done:  E(RHF) =  -470.733149127     A.U. after   11 cycles
 E2 =    -0.1583124633D+01 EUMP2 =    -0.47231627375989D+03

 The electronic state is 1-A.
 Alpha  occ. eigenvalues --  -11.21649 -11.21631 -11.21596 -11.21590 -11.21444
 Alpha  occ. eigenvalues --  -11.21390 -11.21385 -11.21331 -11.21097 -11.21061
 Alpha  occ. eigenvalues --  -11.21061 -11.21050  -1.08470  -1.08414  -1.03583
 Alpha  occ. eigenvalues --   -1.03499  -0.96040  -0.95937  -0.87065  -0.86946
 Alpha  occ. eigenvalues --   -0.79656  -0.79555  -0.78284  -0.78229  -0.65128
 Alpha  occ. eigenvalues --   -0.65026  -0.61063  -0.60882  -0.59367  -0.59329
 Alpha  occ. eigenvalues --   -0.57672  -0.57546  -0.55318  -0.55216  -0.52782
 Alpha  occ. eigenvalues --   -0.52625  -0.52486  -0.52302  -0.49962  -0.49879
 Alpha  occ. eigenvalues --   -0.47946  -0.47901  -0.46745  -0.46527  -0.45876
 Alpha  occ. eigenvalues --   -0.45781  -0.45735  -0.45608  -0.43819  -0.43750
 Alpha virt. eigenvalues --    0.20384   0.23165   0.23524   0.25149   0.25642
 Alpha virt. eigenvalues --    0.26331   0.26774   0.27691   0.28391   0.29057
 Alpha virt. eigenvalues --    0.30335   0.30563   0.31502   0.31809   0.32378

 Mulliken charges:
               1
     1  C   -0.298272
     2  C   -0.299679
     3  C   -0.475748
     4  H    0.149275
     5  H    0.149362
     6  H    0.152063
     7  H    0.152074
     8  H    0.155167
     9  H    0.155165
    10  H    0.160412
    11  C   -0.298116
    12  C   -0.302682
    13  C   -0.480853
    14  H    0.149795
    15  H    0.149953
    16  H    0.154385
    17  H    0.151122
    18  H    0.154968
    19  H    0.155288
    20  H    0.165999
    21  C   -0.298344
    22  C   -0.299625
    23  C   -0.475735
    24  H    0.149795
    25  H    0.149369
    26  H    0.151957
    27  H    0.151859
    28  H    0.155113
    29  H    0.155290
    30  H    0.160197
    31  C   -0.298605
    32  C   -0.301599
    33  C   -0.480066
    34  H    0.150228
    35  H    0.149505
    36  H    0.154024
    37  H    0.151825
    38  H    0.155209
    39  H    0.159567
    40  H    0.160358
 Sum of Mulliken charges =  -0.00000

 Dipole moment (field-independent basis, Debye):
    X=             -0.0063    Y=             -0.0083    Z=              0.0015  Tot=              0.0105
 Quadrupole moment (field-independent basis, Debye-Ang):
   XX=            -83.9250   YY=            -87.0430   ZZ=            -83.7654
   XY=             -0.2930   XZ=              0.3244   YZ=             -0.5849

 Normal termination of Gaussian 16 at Wed May  5 18:14:37 2021.
