 Gaussian 16, Revision A.03,
 Gaussian 16:  EM64L-G16RevA.03 25-Dec-2016

 -------------
 #p 6-31g* mp2
 -------------

 ------------------------------------------------------
 Input file generated by CHIRIPA (05-May-2021 14:57:21)
 ------------------------------------------------------
 Symbolic Z-matrix:
 Charge =  0 Multiplicity = 1

                         Standard orientation:
 ---------------------------------------------------------------------
 Center     Atomic      Atomic             Coordinates (Angstroms)
 Number     Number       Type             X           Y           Z
 ---------------------------------------------------------------------
      1          6           0       -5.413233   -0.027306    0.414008
      2          6           0       -4.797286   -1.280538    0.494893
      3          6           0       -3.446827   -1.430504    0.165776
      4          6           0       -2.739141   -0.300906   -0.242242
      5          6           0       -3.324528    0.960992   -0.332927
      6          6           0       -4.676187    1.087493    0.001083
      7          1           0       -6.462768    0.080077    0.671574
      8          1           0       -5.367221   -2.148053    0.815262
      9          1           0       -2.945015   -2.389002    0.219487
     10          1           0       -2.730417    1.807361   -0.655589
     11          1           0       -5.151922    2.061997   -0.062667
     12          7           0       -1.308835   -0.447248   -0.593254
     13          8           0       -0.707290    0.563476   -0.949931
     14          8           0       -0.816389   -1.569903   -0.505054
     15          6           0        4.260064   -1.880439   -0.061734
     16          6           0        3.714470   -1.528111    1.177102
     17          6           0        3.000491   -0.335262    1.325075
     18          6           0        2.850625    0.485340    0.208186
     19          6           0        3.382302    0.161956   -1.039225
     20          6           0        4.092534   -1.035771   -1.163999
     21          1           0        4.813246   -2.808967   -0.167672
     22          1           0        3.842999   -2.182152    2.034863
     23          1           0        2.567599   -0.038104    2.272555
     24          1           0        3.237563    0.834365   -1.876084
     25          1           0        4.515148   -1.306837   -2.127309
     26          7           0        2.096751    1.750737    0.352559
     27          8           0        1.978745    2.456442   -0.646787
     28          8           0        1.638143    2.012889    1.462330
 ---------------------------------------------------------------------

 SCF Done:  E(RHF) =  -868.338711082     A.U. after   16 cycles
 E2 =    -0.2600415927D+01 EUMP2 =    -0.87093912700852D+03

 The electronic state is 1-A.
 Alpha  occ. eigenvalues --  -20.60585 -20.60531 -20.59343 -20.59280 -15.85580
 Alpha  occ. eigenvalues --  -15.84373 -11.30878 -11.29751 -11.27496 -11.27384
 Alpha  occ. eigenvalues --  -11.27215 -11.26496 -11.26425 -11.26401 -11.26332
 Alpha  occ. eigenvalues --  -11.26189 -11.25466 -11.25425  -1.59633  -1.58350
 Alpha  occ. eigenvalues --   -1.39181  -1.37925  -1.19057  -1.17940  -1.08475
 Alpha  occ. eigenvalues --   -1.07349  -1.04449  -1.03394  -0.95317  -0.94191
 Alpha  occ. eigenvalues --   -0.85852  -0.84803  -0.82146  -0.81057  -0.77191
 Alpha  occ. eigenvalues --   -0.76074  -0.71879  -0.70974  -0.70644  -0.70175
 Alpha  occ. eigenvalues --   -0.69486  -0.69139  -0.64710  -0.64460  -0.63646
 Alpha  occ. eigenvalues --   -0.63460  -0.61790  -0.60776  -0.54976  -0.53957
 Alpha  occ. eigenvalues --   -0.52786  -0.52543  -0.51664  -0.51540  -0.48589
 Alpha  occ. eigenvalues --   -0.48572  -0.47397  -0.47361  -0.44596  -0.43337
 Alpha  occ. eigenvalues --   -0.37048  -0.36048  -0.35905  -0.34971
 Alpha virt. eigenvalues --    0.05313   0.06554   0.11607   0.12678   0.16815
 Alpha virt. eigenvalues --    0.17995   0.21728   0.22580   0.27645   0.28448
 Alpha virt. eigenvalues --    0.28645   0.29489   0.31270   0.32055   0.32942

 Mulliken charges:
               1
     1  C   -0.170594
     2  C   -0.218977
     3  C   -0.171338
     4  C    0.157905
     5  C   -0.169133
     6  C   -0.218994
     7  H    0.224727
     8  H    0.221655
     9  H    0.273038
    10  H    0.282724
    11  H    0.224382
    12  N    0.489088
    13  O   -0.457410
    14  O   -0.465771
    15  C   -0.170043
    16  C   -0.216862
    17  C   -0.169135
    18  C    0.169151
    19  C   -0.162966
    20  C   -0.217675
    21  H    0.220079
    22  H    0.217445
    23  H    0.270050
    24  H    0.273943
    25  H    0.218572
    26  N    0.496343
    27  O   -0.458915
    28  O   -0.471289
 Sum of Mulliken charges =  -0.00000

 Dipole moment (field-independent basis, Debye):
    X=             -2.6088    Y=             -3.7522    Z=              0.5488  Tot=              4.6028
 Quadrupole moment (field-independent basis, Debye-Ang):
   XX=            -64.4407   YY=           -105.5279   ZZ=           -101.9172
   XY=            -11.1876   XZ=             -4.4414   YZ=             -4.2010

 Normal termination of Gaussian 16 at Wed May  5 17:45:32 2021.
