 Gaussian 16, Revision A.03,
 Gaussian 16:  EM64L-G16RevA.03 25-Dec-2016

 -------------
 #p 6-31g* mp2
 -------------

 ------------------------------------------------------
 Input file generated by CHIRIPA (05-May-2021 14:55:23)
 ------------------------------------------------------
 Symbolic Z-matrix:
 Charge =  0 Multiplicity = 1

                         Standard orientation:
 ---------------------------------------------------------------------
 Center     Atomic      Atomic             Coordinates (Angstroms)
 Number     Number       Type             X           Y           Z
 ---------------------------------------------------------------------
      1          6           0        5.235298   -0.589034    0.455478
      2          6           0        4.866182    0.730972    0.176446
      3          6           0        3.539503    1.047440   -0.130666
      4          6           0        2.603642    0.014443   -0.149907
      5          6           0        2.940334   -1.310370    0.123590
      6          6           0        4.272893   -1.603703    0.428207
      7          1           0        6.268178   -0.825888    0.693081
      8          1           0        5.611471    1.521018    0.196892
      9          1           0        3.226333    2.060823   -0.350662
     10          1           0        2.174971   -2.076430    0.095481
     11          1           0        4.556679   -2.629730    0.644489
     12          7           0        1.196034    0.337227   -0.473712
     13          8           0        0.390469   -0.590993   -0.484139
     14          8           0        0.924968    1.512335   -0.710952
     15          6           0       -3.303468    0.688109   -0.139831
     16          6           0       -3.623028    1.923965    0.701910
     17          6           0       -2.963415    3.193433    0.162321
     18          1           0       -2.214282    0.549531   -0.177416
     19          1           0       -3.632267    0.862224   -1.173741
     20          1           0       -3.294978    1.747034    1.734234
     21          1           0       -4.711589    2.059507    0.737654
     22          1           0       -3.299013    3.397422   -0.859620
     23          1           0       -1.874352    3.083174    0.142623
     24          1           0       -3.205101    4.064691    0.779051
     25          6           0       -3.955750   -0.588894    0.386973
     26          6           0       -3.636191   -1.824749   -0.454768
     27          6           0       -4.295805   -3.094216    0.084821
     28          1           0       -3.626952   -0.763008    1.420883
     29          1           0       -5.044937   -0.450315    0.424558
     30          1           0       -2.547629   -1.960291   -0.490512
     31          1           0       -3.964241   -1.647819   -1.487093
     32          1           0       -5.384867   -2.983958    0.104519
     33          1           0       -3.960206   -3.298206    1.106762
     34          1           0       -4.054118   -3.965475   -0.531909
 ---------------------------------------------------------------------

 SCF Done:  E(RHF) =  -669.537285806     A.U. after   15 cycles
 E2 =    -0.2092210645D+01 EUMP2 =    -0.67162949645124D+03

 The electronic state is 1-A.
 Alpha  occ. eigenvalues --  -20.61250 -20.61244 -15.86232 -11.31460 -11.28003
 Alpha  occ. eigenvalues --  -11.27999 -11.27723 -11.26986 -11.26976 -11.20190
 Alpha  occ. eigenvalues --  -11.20115 -11.20054 -11.19941 -11.19531 -11.19449
 Alpha  occ. eigenvalues --   -1.60271  -1.39831  -1.19611  -1.09035  -1.06886
 Alpha  occ. eigenvalues --   -1.04991  -1.02120  -0.95890  -0.94571  -0.86396
 Alpha  occ. eigenvalues --   -0.85592  -0.82729  -0.78183  -0.77795  -0.76650
 Alpha  occ. eigenvalues --   -0.72437  -0.71569  -0.70719  -0.65268  -0.64994
 Alpha  occ. eigenvalues --   -0.63515  -0.62337  -0.59525  -0.57962  -0.56179
 Alpha  occ. eigenvalues --   -0.55500  -0.53860  -0.53328  -0.53080  -0.51336
 Alpha  occ. eigenvalues --   -0.50994  -0.49286  -0.49207  -0.48475  -0.46499
 Alpha  occ. eigenvalues --   -0.45274  -0.45184  -0.44247  -0.43922  -0.42328
 Alpha  occ. eigenvalues --   -0.37584  -0.36586
 Alpha virt. eigenvalues --    0.04714   0.11071   0.16229   0.21198   0.24367
 Alpha virt. eigenvalues --    0.25623   0.27145   0.27866   0.28289   0.29191
 Alpha virt. eigenvalues --    0.29394   0.30862   0.32240   0.32725   0.32960

 Mulliken charges:
               1
     1  C   -0.170190
     2  C   -0.218637
     3  C   -0.170422
     4  C    0.158273
     5  C   -0.170415
     6  C   -0.218591
     7  H    0.226640
     8  H    0.224458
     9  H    0.276306
    10  H    0.276002
    11  H    0.224451
    12  N    0.490909
    13  O   -0.460302
    14  O   -0.458546
    15  C   -0.311753
    16  C   -0.297374
    17  C   -0.479433
    18  H    0.182148
    19  H    0.143833
    20  H    0.146412
    21  H    0.144524
    22  H    0.151756
    23  H    0.170523
    24  H    0.151170
    25  C   -0.295433
    26  C   -0.303623
    27  C   -0.474657
    28  H    0.144748
    29  H    0.142540
    30  H    0.167233
    31  H    0.148512
    32  H    0.151632
    33  H    0.151674
    34  H    0.155633
 Sum of Mulliken charges =  -0.00000

 Dipole moment (field-independent basis, Debye):
    X=              5.5924    Y=             -1.1486    Z=              1.0350  Tot=              5.8021
 Quadrupole moment (field-independent basis, Debye-Ang):
   XX=            -70.6182   YY=            -91.9996   ZZ=            -95.8894
   XY=             -2.0943   XZ=              3.1392   YZ=             -0.4011

 Normal termination of Gaussian 16 at Thu May  6 15:56:33 2021.
