 Gaussian 16, Revision A.03,
 Gaussian 16:  EM64L-G16RevA.03 25-Dec-2016

 -------------
 #p 6-31g* mp2
 -------------

 ------------------------------------------------------
 Input file generated by CHIRIPA (05-May-2021 14:55:23)
 ------------------------------------------------------
 Symbolic Z-matrix:
 Charge =  0 Multiplicity = 1

                         Standard orientation:
 ---------------------------------------------------------------------
 Center     Atomic      Atomic             Coordinates (Angstroms)
 Number     Number       Type             X           Y           Z
 ---------------------------------------------------------------------
      1          6           0       -1.963018    2.544220    0.609790
      2          6           0       -1.028973    1.603220    0.164144
      3          6           0       -1.447227    0.352825   -0.300749
      4          6           0       -2.813387    0.075576   -0.306156
      5          6           0       -3.768346    0.992055    0.131348
      6          6           0       -3.327318    2.236177    0.592001
      7          1           0       -1.629262    3.513121    0.969282
      8          1           0        0.031196    1.839707    0.176819
      9          1           0       -0.745604   -0.394251   -0.651492
     10          1           0       -4.818475    0.727406    0.106710
     11          1           0       -4.054961    2.965022    0.937494
     12          7           0       -3.268228   -1.244841   -0.796072
     13          8           0       -4.477473   -1.464693   -0.790702
     14          8           0       -2.406876   -2.034930   -1.176163
     15          6           0        3.898046    0.246082    0.081200
     16          6           0        4.998567   -0.044960   -0.939649
     17          6           0        5.775660    1.208020   -1.344570
     18          1           0        3.205733    0.989364   -0.337345
     19          1           0        4.346945    0.704515    0.973235
     20          1           0        4.547907   -0.503975   -1.828934
     21          1           0        5.688233   -0.787778   -0.518700
     22          1           0        6.251705    1.665161   -0.471067
     23          1           0        5.104899    1.950575   -1.788746
     24          1           0        6.557377    0.977071   -2.074940
     25          6           0        3.112318   -0.996665    0.495854
     26          6           0        2.011797   -0.705622    1.516703
     27          6           0        1.234704   -1.958603    1.921623
     28          1           0        2.663418   -1.455097   -0.396181
     29          1           0        3.804630   -1.739947    0.914398
     30          1           0        1.322130    0.037196    1.095754
     31          1           0        2.462457   -0.246608    2.405987
     32          1           0        1.905465   -2.701158    2.365799
     33          1           0        0.758659   -2.415743    1.048121
     34          1           0        0.452987   -1.727654    2.651994
 ---------------------------------------------------------------------

 SCF Done:  E(RHF) =  -669.535092084     A.U. after   15 cycles
 E2 =    -0.2092624914D+01 EUMP2 =    -0.67162771699778D+03

 The electronic state is 1-A.
 Alpha  occ. eigenvalues --  -20.60787 -20.60782 -15.85839 -11.31201 -11.27776
 Alpha  occ. eigenvalues --  -11.27769 -11.27512 -11.26789 -11.26765 -11.22136
 Alpha  occ. eigenvalues --  -11.22011 -11.21942 -11.21831 -11.21444 -11.21279
 Alpha  occ. eigenvalues --   -1.59860  -1.39414  -1.19379  -1.08920  -1.08770
 Alpha  occ. eigenvalues --   -1.04793  -1.03943  -0.96368  -0.95606  -0.87378
 Alpha  occ. eigenvalues --   -0.86179  -0.82455  -0.80020  -0.78752  -0.77487
 Alpha  occ. eigenvalues --   -0.72058  -0.71181  -0.70490  -0.65604  -0.65023
 Alpha  occ. eigenvalues --   -0.64790  -0.62252  -0.61233  -0.59735  -0.57984
 Alpha  occ. eigenvalues --   -0.55663  -0.55270  -0.53121  -0.53032  -0.52882
 Alpha  occ. eigenvalues --   -0.52772  -0.50302  -0.48818  -0.48813  -0.48313
 Alpha  occ. eigenvalues --   -0.47064  -0.46277  -0.46196  -0.44818  -0.44210
 Alpha  occ. eigenvalues --   -0.37355  -0.36354
 Alpha virt. eigenvalues --    0.05015   0.11240   0.16398   0.19215   0.22911
 Alpha virt. eigenvalues --    0.23535   0.24643   0.26147   0.27543   0.28428
 Alpha virt. eigenvalues --    0.29327   0.30713   0.31336   0.31554   0.32221

 Mulliken charges:
               1
     1  C   -0.171530
     2  C   -0.220431
     3  C   -0.169659
     4  C    0.157422
     5  C   -0.170805
     6  C   -0.218676
     7  H    0.226003
     8  H    0.225882
     9  H    0.277051
    10  H    0.275690
    11  H    0.223546
    12  N    0.488378
    13  O   -0.460174
    14  O   -0.461057
    15  C   -0.297373
    16  C   -0.300142
    17  C   -0.475913
    18  H    0.140986
    19  H    0.150480
    20  H    0.153971
    21  H    0.154359
    22  H    0.155274
    23  H    0.153768
    24  H    0.162441
    25  C   -0.299727
    26  C   -0.305523
    27  C   -0.478837
    28  H    0.151362
    29  H    0.153771
    30  H    0.143042
    31  H    0.153207
    32  H    0.157771
    33  H    0.163205
    34  H    0.162238
 Sum of Mulliken charges =  -0.00000

 Dipole moment (field-independent basis, Debye):
    X=              1.6603    Y=              4.5412    Z=              1.7555  Tot=              5.1440
 Quadrupole moment (field-independent basis, Debye-Ang):
   XX=            -98.7271   YY=            -94.6929   ZZ=            -95.9857
   XY=            -15.4844   XZ=             -5.6437   YZ=             -0.8874

 Normal termination of Gaussian 16 at Wed May  5 22:22:05 2021.
