 Gaussian 16, Revision A.03,
 Gaussian 16:  EM64L-G16RevA.03 25-Dec-2016

 -------------
 #p 6-31g* mp2
 -------------

 ------------------------------------------------------
 Input file generated by CHIRIPA (05-May-2021 14:51:10)
 ------------------------------------------------------
 Symbolic Z-matrix:
 Charge =  0 Multiplicity = 1

                         Standard orientation:
 ---------------------------------------------------------------------
 Center     Atomic      Atomic             Coordinates (Angstroms)
 Number     Number       Type             X           Y           Z
 ---------------------------------------------------------------------
      1          6           0        4.578639   -0.239866    0.334164
      2          6           0        5.073707   -1.157377   -0.784346
      3          6           0        6.539979   -1.556713   -0.615908
      4          1           0        5.204786    0.662358    0.363797
      5          1           0        4.713223   -0.745607    1.300346
      6          1           0        4.936950   -0.650608   -1.748244
      7          1           0        4.446189   -2.057434   -0.811444
      8          1           0        6.688970   -2.085126    0.331289
      9          1           0        7.182519   -0.670306   -0.610833
     10          1           0        6.873091   -2.212562   -1.426314
     11          6           0        3.114569    0.168024    0.179725
     12          6           0        2.619501    1.085536    1.298235
     13          6           0        1.153229    1.484872    1.129796
     14          1           0        2.979984    0.673765   -0.786458
     15          1           0        2.488422   -0.734199    0.150092
     16          1           0        3.247019    1.985593    1.325333
     17          1           0        2.756258    0.578766    2.262132
     18          1           0        0.510688    0.598465    1.124721
     19          1           0        1.004238    2.013285    0.182599
     20          1           0        0.820117    2.140721    1.940202
     21          6           0       -3.709478    0.778864   -0.369482
     22          6           0       -2.257238    1.077610   -0.743290
     23          6           0       -1.998562    2.568126   -0.965203
     24          1           0       -4.370196    1.152900   -1.163519
     25          1           0       -3.968526    1.336485    0.541204
     26          1           0       -2.000585    0.518511   -1.652220
     27          1           0       -1.599890    0.702648    0.051639
     28          1           0       -2.227372    3.137960   -0.058816
     29          1           0       -2.630344    2.952777   -1.772357
     30          1           0       -0.954282    2.759084   -1.231423
     31          6           0       -3.983729   -0.707022   -0.144406
     32          6           0       -5.435969   -1.005769    0.229402
     33          6           0       -5.694646   -2.496284    0.451315
     34          1           0       -3.724682   -1.264643   -1.055092
     35          1           0       -3.323012   -1.081058    0.649630
     36          1           0       -6.093318   -0.630807   -0.565528
     37          1           0       -5.692623   -0.446670    1.138332
     38          1           0       -5.062864   -2.880935    1.258469
     39          1           0       -5.465836   -3.066118   -0.455072
     40          1           0       -6.738926   -2.687242    0.717534
 ---------------------------------------------------------------------

 SCF Done:  E(RHF) =  -470.732500058     A.U. after   11 cycles
 E2 =    -0.1583207775D+01 EUMP2 =    -0.47231570783220D+03

 The electronic state is 1-A.
 Alpha  occ. eigenvalues --  -11.21605 -11.21602 -11.21572 -11.21450 -11.21411
 Alpha  occ. eigenvalues --  -11.21353 -11.21351 -11.21281 -11.21074 -11.21060
 Alpha  occ. eigenvalues --  -11.21053 -11.20974  -1.08440  -1.08364  -1.03563
 Alpha  occ. eigenvalues --   -1.03440  -0.96033  -0.95880  -0.87023  -0.86927
 Alpha  occ. eigenvalues --   -0.79651  -0.79494  -0.78272  -0.78156  -0.65075
 Alpha  occ. eigenvalues --   -0.64998  -0.60967  -0.60858  -0.59383  -0.59300
 Alpha  occ. eigenvalues --   -0.57755  -0.57378  -0.55300  -0.55215  -0.52726
 Alpha  occ. eigenvalues --   -0.52645  -0.52411  -0.52258  -0.50039  -0.49779
 Alpha  occ. eigenvalues --   -0.47996  -0.47798  -0.46723  -0.46440  -0.45870
 Alpha  occ. eigenvalues --   -0.45723  -0.45686  -0.45479  -0.43790  -0.43713
 Alpha virt. eigenvalues --    0.21973   0.22987   0.23494   0.24797   0.25637
 Alpha virt. eigenvalues --    0.26518   0.27042   0.27582   0.27649   0.29229
 Alpha virt. eigenvalues --    0.29761   0.31026   0.31655   0.32012   0.32493

 Mulliken charges:
               1
     1  C   -0.298261
     2  C   -0.299655
     3  C   -0.475710
     4  H    0.149657
     5  H    0.149518
     6  H    0.151928
     7  H    0.151989
     8  H    0.155180
     9  H    0.155180
    10  H    0.160271
    11  C   -0.298206
    12  C   -0.300099
    13  C   -0.479555
    14  H    0.149337
    15  H    0.149747
    16  H    0.151852
    17  H    0.151658
    18  H    0.156784
    19  H    0.159186
    20  H    0.160074
    21  C   -0.297745
    22  C   -0.305747
    23  C   -0.475758
    24  H    0.149160
    25  H    0.149217
    26  H    0.150815
    27  H    0.160018
    28  H    0.155042
    29  H    0.154241
    30  H    0.160821
    31  C   -0.298082
    32  C   -0.299565
    33  C   -0.475670
    34  H    0.149386
    35  H    0.148895
    36  H    0.151950
    37  H    0.151879
    38  H    0.154996
    39  H    0.155104
    40  H    0.160164
 Sum of Mulliken charges =  -0.00000

 Dipole moment (field-independent basis, Debye):
    X=              0.0306    Y=              0.0073    Z=              0.0137  Tot=              0.0343
 Quadrupole moment (field-independent basis, Debye-Ang):
   XX=            -86.0759   YY=            -85.3571   ZZ=            -83.5787
   XY=              0.3120   XZ=              0.0984   YZ=             -0.1249

 Normal termination of Gaussian 16 at Wed May  5 16:41:03 2021.
