 Gaussian 16, Revision A.03,
 Gaussian 16:  EM64L-G16RevA.03 25-Dec-2016

 -------------
 #p 6-31g* mp2
 -------------

 ------------------------------------------------------
 Input file generated by CHIRIPA (05-May-2021 14:51:11)
 ------------------------------------------------------
 Symbolic Z-matrix:
 Charge =  0 Multiplicity = 1

                         Standard orientation:
 ---------------------------------------------------------------------
 Center     Atomic      Atomic             Coordinates (Angstroms)
 Number     Number       Type             X           Y           Z
 ---------------------------------------------------------------------
      1          6           0        4.369003   -0.396706    0.163358
      2          6           0        5.394329    0.679700   -0.194470
      3          6           0        6.827171    0.267078    0.143908
      4          1           0        4.443380   -0.622875    1.235860
      5          1           0        4.620099   -1.324114   -0.369804
      6          1           0        5.140575    1.605204    0.338135
      7          1           0        5.317372    0.903470   -1.266207
      8          1           0        7.104386   -0.642610   -0.398514
      9          1           0        6.926585    0.063112    1.214943
     10          1           0        7.543706    1.051137   -0.120076
     11          6           0        2.931979    0.001079   -0.168990
     12          6           0        1.906653   -1.075328    0.188837
     13          6           0        0.473811   -0.662705   -0.149540
     14          1           0        2.680883    0.928486    0.364171
     15          1           0        2.857602    0.227247   -1.241493
     16          1           0        1.983610   -1.299098    1.260575
     17          1           0        2.160407   -2.000832   -0.343767
     18          1           0        0.374397   -0.458739   -1.220575
     19          1           0        0.196596    0.246982    0.392882
     20          1           0       -0.242724   -1.446765    0.114444
     21          6           0       -3.796114    0.877555    0.319325
     22          6           0       -3.167806    2.046886   -0.439543
     23          6           0       -3.468036    3.400068    0.205868
     24          1           0       -4.883252    1.026109    0.374159
     25          1           0       -3.427571    0.880941    1.354487
     26          1           0       -3.536356    2.040474   -1.473344
     27          1           0       -2.082058    1.895434   -0.492742
     28          1           0       -3.085153    3.431329    1.231063
     29          1           0       -4.547714    3.577194    0.244889
     30          1           0       -3.009387    4.221902   -0.352781
     31          6           0       -3.504868   -0.481927   -0.313692
     32          6           0       -4.133177   -1.651258    0.445175
     33          6           0       -3.832947   -3.004440   -0.200235
     34          1           0       -3.873410   -0.485315   -1.348855
     35          1           0       -2.417730   -0.630482   -0.368526
     36          1           0       -5.218924   -1.499806    0.498375
     37          1           0       -3.764626   -1.644847    1.478976
     38          1           0       -2.753268   -3.181566   -0.239257
     39          1           0       -4.215830   -3.035701   -1.225430
     40          1           0       -4.291595   -3.826275    0.358414
 ---------------------------------------------------------------------

 SCF Done:  E(RHF) =  -470.732856347     A.U. after   11 cycles
 E2 =    -0.1583321166D+01 EUMP2 =    -0.47231617751330D+03

 The electronic state is 1-A.
 Alpha  occ. eigenvalues --  -11.21685 -11.21636 -11.21522 -11.21514 -11.21462
 Alpha  occ. eigenvalues --  -11.21399 -11.21284 -11.21209 -11.21166 -11.21098
 Alpha  occ. eigenvalues --  -11.21041 -11.21018  -1.08493  -1.08328  -1.03603
 Alpha  occ. eigenvalues --   -1.03457  -0.96070  -0.95897  -0.87098  -0.86915
 Alpha  occ. eigenvalues --   -0.79695  -0.79511  -0.78317  -0.78108  -0.65124
 Alpha  occ. eigenvalues --   -0.64975  -0.61002  -0.60880  -0.59455  -0.59246
 Alpha  occ. eigenvalues --   -0.57660  -0.57515  -0.55344  -0.55204  -0.52835
 Alpha  occ. eigenvalues --   -0.52609  -0.52476  -0.52303  -0.49999  -0.49843
 Alpha  occ. eigenvalues --   -0.48018  -0.47808  -0.46701  -0.46535  -0.45928
 Alpha  occ. eigenvalues --   -0.45766  -0.45659  -0.45556  -0.43748  -0.43682
 Alpha virt. eigenvalues --    0.21021   0.22972   0.23394   0.24619   0.25642
 Alpha virt. eigenvalues --    0.26610   0.27024   0.27355   0.27844   0.29408
 Alpha virt. eigenvalues --    0.29691   0.31235   0.31752   0.31931   0.32242

 Mulliken charges:
               1
     1  C   -0.298378
     2  C   -0.299664
     3  C   -0.475741
     4  H    0.149731
     5  H    0.149695
     6  H    0.151995
     7  H    0.152053
     8  H    0.155255
     9  H    0.155222
    10  H    0.160395
    11  C   -0.298757
    12  C   -0.300352
    13  C   -0.480318
    14  H    0.149544
    15  H    0.149929
    16  H    0.152182
    17  H    0.152487
    18  H    0.156985
    19  H    0.156590
    20  H    0.161598
    21  C   -0.297036
    22  C   -0.302411
    23  C   -0.475543
    24  H    0.149022
    25  H    0.148594
    26  H    0.151630
    27  H    0.154652
    28  H    0.154663
    29  H    0.155071
    30  H    0.159911
    31  C   -0.310449
    32  C   -0.299091
    33  C   -0.476662
    34  H    0.148311
    35  H    0.165840
    36  H    0.151598
    37  H    0.151183
    38  H    0.154867
    39  H    0.155336
    40  H    0.160065
 Sum of Mulliken charges =  -0.00000

 Dipole moment (field-independent basis, Debye):
    X=              0.0774    Y=             -0.0103    Z=             -0.0155  Tot=              0.0796
 Quadrupole moment (field-independent basis, Debye-Ang):
   XX=            -85.4968   YY=            -85.8605   ZZ=            -83.7399
   XY=              0.1935   XZ=              0.2544   YZ=              0.0093

 Normal termination of Gaussian 16 at Wed May  5 23:04:52 2021.
