 Gaussian 16, Revision A.03,
 Gaussian 16:  EM64L-G16RevA.03 25-Dec-2016

 -------------
 #p 6-31g* mp2
 -------------

 ------------------------------------------------------
 Input file generated by CHIRIPA (05-May-2021 14:57:27)
 ------------------------------------------------------
 Symbolic Z-matrix:
 Charge =  0 Multiplicity = 1

                         Standard orientation:
 ---------------------------------------------------------------------
 Center     Atomic      Atomic             Coordinates (Angstroms)
 Number     Number       Type             X           Y           Z
 ---------------------------------------------------------------------
      1          6           0        1.642275    1.747820    1.197890
      2          6           0        2.036784    1.998567   -0.120446
      3          6           0        3.009617    1.203652   -0.733842
      4          6           0        3.569585    0.161692    0.003753
      5          6           0        3.197589   -0.113285    1.318781
      6          6           0        2.222912    0.694551    1.912037
      7          1           0        0.885838    2.370348    1.666568
      8          1           0        1.587568    2.815861   -0.677473
      9          1           0        3.333620    1.375578   -1.753097
     10          1           0        3.663456   -0.935254    1.848643
     11          1           0        1.918479    0.497492    2.936015
     12          7           0        4.600455   -0.686688   -0.634961
     13          8           0        5.078536   -1.598536    0.036314
     14          8           0        4.910851   -0.423737   -1.794766
     15          6           0       -5.753919    0.577587   -0.334152
     16          6           0       -5.536227   -0.754469    0.032938
     17          6           0       -4.236097   -1.252351    0.160698
     18          6           0       -3.172086   -0.386505   -0.087256
     19          6           0       -3.356536    0.945535   -0.454598
     20          6           0       -4.665297    1.421850   -0.576321
     21          1           0       -6.767243    0.955977   -0.431054
     22          1           0       -6.379759   -1.412418    0.221627
     23          1           0       -4.038943   -2.279281    0.443473
     24          1           0       -2.495577    1.577352   -0.636188
     25          1           0       -4.831359    2.456794   -0.861556
     26          7           0       -1.791128   -0.902173    0.044802
     27          8           0       -0.870691   -0.119049   -0.179138
     28          8           0       -1.655319   -2.079714    0.369748
 ---------------------------------------------------------------------

 SCF Done:  E(RHF) =  -868.337193035     A.U. after   16 cycles
 E2 =    -0.2600227084D+01 EUMP2 =    -0.87093742011863D+03

 The electronic state is 1-A.
 Alpha  occ. eigenvalues --  -20.61246 -20.61231 -20.59731 -20.59722 -15.86280
 Alpha  occ. eigenvalues --  -15.84778 -11.31676 -11.29931 -11.28287 -11.28210
 Alpha  occ. eigenvalues --  -11.27961 -11.27272 -11.27223 -11.26544 -11.26512
 Alpha  occ. eigenvalues --  -11.26295 -11.25545 -11.25493  -1.60315  -1.58806
 Alpha  occ. eigenvalues --   -1.39871  -1.38368  -1.19844  -1.18092  -1.09229
 Alpha  occ. eigenvalues --   -1.07545  -1.05251  -1.03506  -0.96064  -0.94423
 Alpha  occ. eigenvalues --   -0.86646  -0.84943  -0.82897  -0.81286  -0.77951
 Alpha  occ. eigenvalues --   -0.76345  -0.72507  -0.71645  -0.71016  -0.70946
 Alpha  occ. eigenvalues --   -0.70115  -0.69302  -0.65495  -0.65248  -0.63800
 Alpha  occ. eigenvalues --   -0.63587  -0.62604  -0.60909  -0.55734  -0.54093
 Alpha  occ. eigenvalues --   -0.53577  -0.53342  -0.51774  -0.51669  -0.49266
 Alpha  occ. eigenvalues --   -0.49225  -0.47772  -0.47753  -0.45275  -0.43823
 Alpha  occ. eigenvalues --   -0.37818  -0.36857  -0.35971  -0.35051
 Alpha virt. eigenvalues --    0.04555   0.06251   0.10798   0.12582   0.16056
 Alpha virt. eigenvalues --    0.17803   0.20901   0.22380   0.26790   0.27686
 Alpha virt. eigenvalues --    0.28383   0.29239   0.30612   0.31892   0.32070

 Mulliken charges:
               1
     1  C   -0.154554
     2  C   -0.210651
     3  C   -0.168700
     4  C    0.159933
     5  C   -0.167167
     6  C   -0.213130
     7  H    0.216725
     8  H    0.214201
     9  H    0.270856
    10  H    0.272580
    11  H    0.218453
    12  N    0.488379
    13  O   -0.462878
    14  O   -0.464392
    15  C   -0.170720
    16  C   -0.218210
    17  C   -0.170778
    18  C    0.158409
    19  C   -0.171573
    20  C   -0.218092
    21  H    0.226999
    22  H    0.225212
    23  H    0.277129
    24  H    0.270156
    25  H    0.223293
    26  N    0.489702
    27  O   -0.463395
    28  O   -0.457789
 Sum of Mulliken charges =  -0.00000

 Dipole moment (field-independent basis, Debye):
    X=             -8.8051    Y=              4.6800    Z=              1.8229  Tot=             10.1368
 Quadrupole moment (field-independent basis, Debye-Ang):
   XX=           -100.9572   YY=           -100.6774   ZZ=           -102.1390
   XY=              7.7841   XZ=              9.9429   YZ=             -3.5899

 Normal termination of Gaussian 16 at Fri May  7 06:39:50 2021.
