 Gaussian 16, Revision A.03,
 Gaussian 16:  EM64L-G16RevA.03 25-Dec-2016

 -------------
 #p 6-31g* mp2
 -------------

 ------------------------------------------------------
 Input file generated by CHIRIPA (05-May-2021 14:55:19)
 ------------------------------------------------------
 Symbolic Z-matrix:
 Charge =  0 Multiplicity = 1

                         Standard orientation:
 ---------------------------------------------------------------------
 Center     Atomic      Atomic             Coordinates (Angstroms)
 Number     Number       Type             X           Y           Z
 ---------------------------------------------------------------------
      1          6           0       -2.078926    1.974959    0.407143
      2          6           0       -3.235740    2.101759   -0.368887
      3          6           0       -4.091112    1.011142   -0.551762
      4          6           0       -3.757565   -0.196914    0.058678
      5          6           0       -2.612302   -0.354748    0.837620
      6          6           0       -1.771441    0.749271    1.006863
      7          1           0       -1.420089    2.827382    0.543910
      8          1           0       -3.477052    3.052430   -0.835832
      9          1           0       -4.993120    1.081512   -1.147452
     10          1           0       -2.398250   -1.315217    1.290499
     11          1           0       -0.873718    0.647883    1.610071
     12          7           0       -4.655427   -1.358595   -0.127708
     13          8           0       -4.339199   -2.412094    0.420724
     14          8           0       -5.658399   -1.193626   -0.818699
     15          6           0        4.097343    0.533691    0.066006
     16          6           0        2.694062    0.191749   -0.435855
     17          6           0        1.658977    1.254961   -0.067108
     18          1           0        4.069529    0.657481    1.157266
     19          1           0        4.402076    1.503589   -0.350925
     20          1           0        2.392621   -0.777866   -0.019207
     21          1           0        2.725258    0.068570   -1.526025
     22          1           0        1.932979    2.224384   -0.495762
     23          1           0        1.598454    1.373138    1.019617
     24          1           0        0.662939    0.990412   -0.435596
     25          6           0        5.143199   -0.519726   -0.294861
     26          6           0        6.546479   -0.177784    0.207000
     27          6           0        7.581564   -1.240996   -0.161746
     28          1           0        4.838465   -1.489624    0.122069
     29          1           0        5.171012   -0.643517   -1.386121
     30          1           0        6.515283   -0.054606    1.297170
     31          1           0        6.847919    0.791831   -0.209648
     32          1           0        7.642087   -1.359173   -1.248472
     33          1           0        7.307561   -2.210418    0.266907
     34          1           0        8.577602   -0.976447    0.206740
 ---------------------------------------------------------------------

 SCF Done:  E(RHF) =  -669.534522714     A.U. after   15 cycles
 E2 =    -0.2092163503D+01 EUMP2 =    -0.67162668621700D+03

 The electronic state is 1-A.
 Alpha  occ. eigenvalues --  -20.60748 -20.60743 -15.85801 -11.31165 -11.27729
 Alpha  occ. eigenvalues --  -11.27710 -11.27439 -11.26745 -11.26680 -11.22281
 Alpha  occ. eigenvalues --  -11.21962 -11.21956 -11.21939 -11.21790 -11.21354
 Alpha  occ. eigenvalues --   -1.59823  -1.39377  -1.19338  -1.08953  -1.08729
 Alpha  occ. eigenvalues --   -1.04744  -1.04080  -0.96563  -0.95560  -0.87606
 Alpha  occ. eigenvalues --   -0.86118  -0.82392  -0.80163  -0.78734  -0.77443
 Alpha  occ. eigenvalues --   -0.72019  -0.71147  -0.70427  -0.65595  -0.64986
 Alpha  occ. eigenvalues --   -0.64756  -0.62133  -0.61453  -0.59921  -0.58147
 Alpha  occ. eigenvalues --   -0.55871  -0.55206  -0.53564  -0.53053  -0.52827
 Alpha  occ. eigenvalues --   -0.52660  -0.50488  -0.48776  -0.48773  -0.48464
 Alpha  occ. eigenvalues --   -0.47176  -0.46285  -0.46190  -0.44783  -0.44331
 Alpha  occ. eigenvalues --   -0.37262  -0.36312
 Alpha virt. eigenvalues --    0.05073   0.11240   0.16548   0.20616   0.22490
 Alpha virt. eigenvalues --    0.23887   0.25816   0.26387   0.27160   0.27853
 Alpha virt. eigenvalues --    0.28857   0.29955   0.31190   0.31547   0.32056

 Mulliken charges:
               1
     1  C   -0.171884
     2  C   -0.218783
     3  C   -0.171299
     4  C    0.158604
     5  C   -0.173189
     6  C   -0.219439
     7  H    0.228089
     8  H    0.223408
     9  H    0.275474
    10  H    0.275443
    11  H    0.229125
    12  N    0.488082
    13  O   -0.460490
    14  O   -0.460509
    15  C   -0.298706
    16  C   -0.298958
    17  C   -0.487661
    18  H    0.148728
    19  H    0.150012
    20  H    0.152563
    21  H    0.155796
    22  H    0.155690
    23  H    0.146190
    24  H    0.169991
    25  C   -0.298801
    26  C   -0.299937
    27  C   -0.476007
    28  H    0.150505
    29  H    0.150996
    30  H    0.151880
    31  H    0.152100
    32  H    0.155918
    33  H    0.155936
    34  H    0.161134
 Sum of Mulliken charges =  -0.00000

 Dipole moment (field-independent basis, Debye):
    X=              3.2710    Y=              4.0748    Z=              0.6028  Tot=              5.2599
 Quadrupole moment (field-independent basis, Debye-Ang):
   XX=           -117.5339   YY=            -95.5219   ZZ=            -92.9176
   XY=            -17.5940   XZ=             -0.4701   YZ=             -2.3437

 Normal termination of Gaussian 16 at Thu May  6 14:04:23 2021.
