 Gaussian 16, Revision A.03,
 Gaussian 16:  EM64L-G16RevA.03 25-Dec-2016

 -------------
 #p 6-31g* mp2
 -------------

 ------------------------------------------------------
 Input file generated by CHIRIPA (05-May-2021 14:55:22)
 ------------------------------------------------------
 Symbolic Z-matrix:
 Charge =  0 Multiplicity = 1

                         Standard orientation:
 ---------------------------------------------------------------------
 Center     Atomic      Atomic             Coordinates (Angstroms)
 Number     Number       Type             X           Y           Z
 ---------------------------------------------------------------------
      1          6           0       -0.292142   -0.960065    1.142961
      2          6           0       -0.753294    0.347826    1.325391
      3          6           0       -1.989856    0.743494    0.806827
      4          6           0       -2.742730   -0.198811    0.107876
      5          6           0       -2.310606   -1.509226   -0.090554
      6          6           0       -1.070897   -1.882790    0.436816
      7          1           0        0.669671   -1.258844    1.549214
      8          1           0       -0.150632    1.066550    1.873367
      9          1           0       -2.370983    1.749551    0.933349
     10          1           0       -2.933804   -2.203299   -0.641285
     11          1           0       -0.715288   -2.899193    0.293596
     12          7           0       -4.053489    0.208364   -0.445766
     13          8           0       -4.697831   -0.640708   -1.057759
     14          8           0       -4.411700    1.368872   -0.257234
     15          6           0        3.140771    0.995484    0.126622
     16          6           0        2.723935    2.163728   -0.767492
     17          6           0        2.541001    3.467385    0.010200
     18          1           0        2.383943    0.853547    0.910210
     19          1           0        4.077872    1.251892    0.639936
     20          1           0        1.788627    1.904642   -1.280025
     21          1           0        3.481747    2.302778   -1.549158
     22          1           0        3.473096    3.752682    0.508602
     23          1           0        1.770356    3.352285    0.779265
     24          1           0        2.243065    4.289258   -0.648298
     25          6           0        3.327583   -0.314732   -0.636375
     26          6           0        3.744420   -1.482975    0.257739
     27          6           0        3.927354   -2.786633   -0.519954
     28          1           0        2.390482   -0.571139   -1.149689
     29          1           0        4.084411   -0.172795   -1.419963
     30          1           0        2.986608   -1.622025    1.039405
     31          1           0        4.679727   -1.223890    0.770271
     32          1           0        4.697998   -2.671532   -1.289018
     33          1           0        2.995258   -3.071930   -1.018355
     34          1           0        4.225289   -3.608506    0.138545
 ---------------------------------------------------------------------

 SCF Done:  E(RHF) =  -669.535183475     A.U. after   15 cycles
 E2 =    -0.2093281553D+01 EUMP2 =    -0.67162846502841D+03

 The electronic state is 1-A.
 Alpha  occ. eigenvalues --  -20.60799 -20.60794 -15.85854 -11.31239 -11.27813
 Alpha  occ. eigenvalues --  -11.27809 -11.27537 -11.26831 -11.26820 -11.22675
 Alpha  occ. eigenvalues --  -11.22304 -11.22243 -11.22200 -11.21984 -11.21756
 Alpha  occ. eigenvalues --   -1.59875  -1.39427  -1.19417  -1.09312  -1.08798
 Alpha  occ. eigenvalues --   -1.04822  -1.04372  -0.96807  -0.95638  -0.87824
 Alpha  occ. eigenvalues --   -0.86218  -0.82471  -0.80441  -0.79118  -0.77511
 Alpha  occ. eigenvalues --   -0.72071  -0.71198  -0.70567  -0.65989  -0.65066
 Alpha  occ. eigenvalues --   -0.64769  -0.62201  -0.61757  -0.60175  -0.58413
 Alpha  occ. eigenvalues --   -0.56109  -0.55328  -0.53485  -0.53239  -0.53124
 Alpha  occ. eigenvalues --   -0.52911  -0.50762  -0.48849  -0.48825  -0.48731
 Alpha  occ. eigenvalues --   -0.47483  -0.46662  -0.46538  -0.44829  -0.44620
 Alpha  occ. eigenvalues --   -0.37371  -0.36419
 Alpha virt. eigenvalues --    0.04995   0.11106   0.16379   0.18678   0.22081
 Alpha virt. eigenvalues --    0.23291   0.25055   0.26233   0.26452   0.27472
 Alpha virt. eigenvalues --    0.29354   0.30528   0.30959   0.31597   0.32068

 Mulliken charges:
               1
     1  C   -0.173459
     2  C   -0.221817
     3  C   -0.171354
     4  C    0.158381
     5  C   -0.170567
     6  C   -0.222033
     7  H    0.233913
     8  H    0.225383
     9  H    0.275993
    10  H    0.275888
    11  H    0.224029
    12  N    0.488018
    13  O   -0.460272
    14  O   -0.460183
    15  C   -0.297821
    16  C   -0.301687
    17  C   -0.475113
    18  H    0.139233
    19  H    0.151659
    20  H    0.156643
    21  H    0.155075
    22  H    0.156783
    23  H    0.148083
    24  H    0.164941
    25  C   -0.301366
    26  C   -0.302088
    27  C   -0.476133
    28  H    0.153501
    29  H    0.154205
    30  H    0.140471
    31  H    0.156442
    32  H    0.160131
    33  H    0.153478
    34  H    0.161642
 Sum of Mulliken charges =  -0.00000

 Dipole moment (field-independent basis, Debye):
    X=              4.7429    Y=             -1.3973    Z=              1.7956  Tot=              5.2604
 Quadrupole moment (field-independent basis, Debye-Ang):
   XX=           -119.0981   YY=            -90.7570   ZZ=            -94.5210
   XY=              4.1812   XZ=             -5.1258   YZ=              0.8759

 Normal termination of Gaussian 16 at Thu May  6 07:49:16 2021.
