 Gaussian 16, Revision A.03,
 Gaussian 16:  EM64L-G16RevA.03 25-Dec-2016

 -------------
 #p 6-31g* mp2
 -------------

 ------------------------------------------------------
 Input file generated by CHIRIPA (05-May-2021 14:55:25)
 ------------------------------------------------------
 Symbolic Z-matrix:
 Charge =  0 Multiplicity = 1

                         Standard orientation:
 ---------------------------------------------------------------------
 Center     Atomic      Atomic             Coordinates (Angstroms)
 Number     Number       Type             X           Y           Z
 ---------------------------------------------------------------------
      1          6           0       -4.825001   -1.654355   -0.442666
      2          6           0       -4.815118   -0.371937   -1.001080
      3          6           0       -3.788119    0.526761   -0.697498
      4          6           0       -2.782365    0.107991    0.172204
      5          6           0       -2.764341   -1.162973    0.744582
      6          6           0       -3.801386   -2.045092    0.426850
      7          1           0       -5.626701   -2.346045   -0.683992
      8          1           0       -5.608767   -0.065760   -1.676671
      9          1           0       -3.755875    1.525515   -1.115671
     10          1           0       -1.959451   -1.439465    1.414748
     11          1           0       -3.806484   -3.040411    0.862003
     12          7           0       -1.689810    1.050626    0.501083
     13          8           0       -0.815342    0.657440    1.270074
     14          8           0       -1.728621    2.164800   -0.016360
     15          6           0        3.825062    0.823235   -0.178726
     16          6           0        2.453279    1.493286   -0.093698
     17          6           0        2.536072    3.018976   -0.150370
     18          1           0        4.456013    1.188410    0.643159
     19          1           0        4.318154    1.130215   -1.111473
     20          1           0        1.962348    1.184044    0.837952
     21          1           0        1.825457    1.126331   -0.915767
     22          1           0        3.002462    3.344993   -1.085674
     23          1           0        3.140131    3.403035    0.678009
     24          1           0        1.544216    3.477448   -0.088036
     25          6           0        3.758764   -0.701975   -0.123357
     26          6           0        5.130546   -1.372026   -0.208385
     27          6           0        5.047754   -2.897716   -0.151713
     28          1           0        3.265671   -1.008955    0.809391
     29          1           0        3.127812   -1.067150   -0.945241
     30          1           0        5.758369   -1.005071    0.613684
     31          1           0        5.621477   -1.062784   -1.140034
     32          1           0        4.443694   -3.281775   -0.980092
     33          1           0        4.581363   -3.223733    0.783591
     34          1           0        6.039610   -3.356188   -0.214047
 ---------------------------------------------------------------------

 SCF Done:  E(RHF) =  -669.536313762     A.U. after   15 cycles
 E2 =    -0.2091496566D+01 EUMP2 =    -0.67162781032782D+03

 The electronic state is 1-A.
 Alpha  occ. eigenvalues --  -20.60983 -20.60971 -15.85998 -11.31311 -11.27870
 Alpha  occ. eigenvalues --  -11.27867 -11.27606 -11.26875 -11.26865 -11.20951
 Alpha  occ. eigenvalues --  -11.20602 -11.20510 -11.20222 -11.19889 -11.19465
 Alpha  occ. eigenvalues --   -1.60025  -1.39584  -1.19476  -1.08882  -1.07394
 Alpha  occ. eigenvalues --   -1.04870  -1.02420  -0.95727  -0.94921  -0.86271
 Alpha  occ. eigenvalues --   -0.85954  -0.82562  -0.78550  -0.77615  -0.77105
 Alpha  occ. eigenvalues --   -0.72218  -0.71333  -0.70584  -0.65132  -0.64873
 Alpha  occ. eigenvalues --   -0.64041  -0.62217  -0.59831  -0.58343  -0.56469
 Alpha  occ. eigenvalues --   -0.55371  -0.54250  -0.53202  -0.52962  -0.51602
 Alpha  occ. eigenvalues --   -0.51345  -0.49040  -0.48964  -0.48890  -0.46837
 Alpha  occ. eigenvalues --   -0.45613  -0.45090  -0.44642  -0.44388  -0.42676
 Alpha  occ. eigenvalues --   -0.37453  -0.36470
 Alpha virt. eigenvalues --    0.04902   0.11185   0.16396   0.21317   0.23782
 Alpha virt. eigenvalues --    0.25433   0.27240   0.27624   0.28124   0.28626
 Alpha virt. eigenvalues --    0.29030   0.30892   0.32340   0.32426   0.32736

 Mulliken charges:
               1
     1  C   -0.170550
     2  C   -0.218602
     3  C   -0.170688
     4  C    0.158156
     5  C   -0.170605
     6  C   -0.218569
     7  H    0.226060
     8  H    0.223865
     9  H    0.275864
    10  H    0.275823
    11  H    0.223932
    12  N    0.489630
    13  O   -0.459173
    14  O   -0.460200
    15  C   -0.298278
    16  C   -0.300916
    17  C   -0.478982
    18  H    0.146520
    19  H    0.144369
    20  H    0.174104
    21  H    0.145499
    22  H    0.146166
    23  H    0.148963
    24  H    0.174875
    25  C   -0.296717
    26  C   -0.298619
    27  C   -0.474883
    28  H    0.150433
    29  H    0.146219
    30  H    0.151125
    31  H    0.150381
    32  H    0.153011
    33  H    0.153784
    34  H    0.158002
 Sum of Mulliken charges =  -0.00000

 Dipole moment (field-independent basis, Debye):
    X=             -4.2309    Y=             -3.2743    Z=             -1.0357  Tot=              5.4492
 Quadrupole moment (field-independent basis, Debye-Ang):
   XX=            -74.3442   YY=            -94.9788   ZZ=            -93.0230
   XY=              7.5144   XZ=              4.5686   YZ=             -2.8910

 Normal termination of Gaussian 16 at Wed May  5 20:48:47 2021.
