 Gaussian 16, Revision A.03,
 Gaussian 16:  EM64L-G16RevA.03 25-Dec-2016

 -------------
 #p 6-31g* mp2
 -------------

 ------------------------------------------------------
 Input file generated by CHIRIPA (05-May-2021 14:51:12)
 ------------------------------------------------------
 Symbolic Z-matrix:
 Charge =  0 Multiplicity = 1

                         Standard orientation:
 ---------------------------------------------------------------------
 Center     Atomic      Atomic             Coordinates (Angstroms)
 Number     Number       Type             X           Y           Z
 ---------------------------------------------------------------------
      1          6           0       -3.048618   -0.007545    0.489795
      2          6           0       -2.355404   -1.369364    0.436056
      3          6           0       -0.964149   -1.349924    1.069953
      4          1           0       -2.421799    0.736257   -0.020892
      5          1           0       -3.126373    0.315440    1.537187
      6          1           0       -2.280221   -1.690319   -0.610821
      7          1           0       -2.984037   -2.110050    0.946764
      8          1           0       -1.024423   -1.054345    2.122379
      9          1           0       -0.316607   -0.632229    0.555945
     10          1           0       -0.486722   -2.333535    1.020627
     11          6           0       -4.440398   -0.010953   -0.140019
     12          6           0       -5.133612    1.350867   -0.086281
     13          6           0       -6.524867    1.331427   -0.720177
     14          1           0       -4.362643   -0.333937   -1.187411
     15          1           0       -5.067218   -0.754754    0.370668
     16          1           0       -4.504979    2.091552   -0.596988
     17          1           0       -5.208796    1.671821    0.960596
     18          1           0       -7.172409    0.613731   -0.206169
     19          1           0       -6.464594    1.035847   -1.772603
     20          1           0       -7.002295    2.315037   -0.670851
     21          6           0        3.781460   -0.728237   -0.370287
     22          6           0        2.449871   -1.463825   -0.216123
     23          6           0        2.539839   -2.938230   -0.610876
     24          1           0        4.119941   -0.810333   -1.412226
     25          1           0        4.541890   -1.227954    0.245687
     26          1           0        1.691848   -0.962043   -0.831127
     27          1           0        2.114425   -1.379806    0.825526
     28          1           0        3.275649   -3.459136    0.010284
     29          1           0        2.850671   -3.039000   -1.655782
     30          1           0        1.576884   -3.444873   -0.493009
     31          6           0        3.707557    0.746734    0.020512
     32          6           0        5.039145    1.482323   -0.133653
     33          6           0        4.949178    2.956728    0.261100
     34          1           0        2.947127    1.246451   -0.595462
     35          1           0        3.369075    0.828831    1.062450
     36          1           0        5.374591    1.398304   -1.175302
     37          1           0        5.797168    0.980541    0.481352
     38          1           0        4.638346    3.057497    1.306007
     39          1           0        4.213367    3.477634   -0.360060
     40          1           0        5.912132    3.463370    0.143233
 ---------------------------------------------------------------------

 SCF Done:  E(RHF) =  -470.732164816     A.U. after   11 cycles
 E2 =    -0.1583311119D+01 EUMP2 =    -0.47231547593493D+03

 The electronic state is 1-A.
 Alpha  occ. eigenvalues --  -11.21590 -11.21590 -11.21547 -11.21498 -11.21384
 Alpha  occ. eigenvalues --  -11.21377 -11.21324 -11.21306 -11.21064 -11.21063
 Alpha  occ. eigenvalues --  -11.21045 -11.20930  -1.08424  -1.08382  -1.03561
 Alpha  occ. eigenvalues --   -1.03438  -0.96015  -0.95889  -0.87007  -0.86938
 Alpha  occ. eigenvalues --   -0.79744  -0.79414  -0.78279  -0.78139  -0.65051
 Alpha  occ. eigenvalues --   -0.65019  -0.60947  -0.60877  -0.59524  -0.59151
 Alpha  occ. eigenvalues --   -0.57646  -0.57485  -0.55255  -0.55209  -0.52749
 Alpha  occ. eigenvalues --   -0.52551  -0.52485  -0.52249  -0.49949  -0.49885
 Alpha  occ. eigenvalues --   -0.48072  -0.47678  -0.46638  -0.46568  -0.45864
 Alpha  occ. eigenvalues --   -0.45717  -0.45674  -0.45482  -0.43758  -0.43719
 Alpha virt. eigenvalues --    0.21826   0.23060   0.23460   0.24928   0.26057
 Alpha virt. eigenvalues --    0.26546   0.26909   0.27036   0.27841   0.29169
 Alpha virt. eigenvalues --    0.30252   0.31086   0.31271   0.31884   0.32438

 Mulliken charges:
               1
     1  C   -0.298363
     2  C   -0.300389
     3  C   -0.479756
     4  H    0.149391
     5  H    0.149477
     6  H    0.151324
     7  H    0.151356
     8  H    0.153630
     9  H    0.161317
    10  H    0.161449
    11  C   -0.298206
    12  C   -0.299600
    13  C   -0.475682
    14  H    0.149374
    15  H    0.149641
    16  H    0.151833
    17  H    0.151916
    18  H    0.155172
    19  H    0.155125
    20  H    0.160204
    21  C   -0.298057
    22  C   -0.301023
    23  C   -0.477806
    24  H    0.148997
    25  H    0.149194
    26  H    0.152134
    27  H    0.157121
    28  H    0.155052
    29  H    0.154879
    30  H    0.161073
    31  C   -0.298441
    32  C   -0.299483
    33  C   -0.475686
    34  H    0.148631
    35  H    0.149860
    36  H    0.151881
    37  H    0.151995
    38  H    0.155227
    39  H    0.155027
    40  H    0.160213
 Sum of Mulliken charges =  -0.00000

 Dipole moment (field-independent basis, Debye):
    X=              0.0208    Y=              0.0000    Z=              0.0127  Tot=              0.0243
 Quadrupole moment (field-independent basis, Debye-Ang):
   XX=            -85.8201   YY=            -85.9353   ZZ=            -83.2759
   XY=              0.0479   XZ=             -0.5200   YZ=             -0.6842

 Normal termination of Gaussian 16 at Thu May  6 07:04:29 2021.
