 Gaussian 16, Revision A.03,
 Gaussian 16:  EM64L-G16RevA.03 25-Dec-2016

 -------------
 #p 6-31g* mp2
 -------------

 ------------------------------------------------------
 Input file generated by CHIRIPA (05-May-2021 14:51:07)
 ------------------------------------------------------
 Symbolic Z-matrix:
 Charge =  0 Multiplicity = 1

                         Standard orientation:
 ---------------------------------------------------------------------
 Center     Atomic      Atomic             Coordinates (Angstroms)
 Number     Number       Type             X           Y           Z
 ---------------------------------------------------------------------
      1          6           0       -2.335809   -0.121968   -0.502420
      2          6           0       -3.634982    0.684111   -0.521653
      3          6           0       -3.613893    1.814904   -1.550563
      4          1           0       -1.495808    0.553443   -0.289902
      5          1           0       -2.156261   -0.538819   -1.503116
      6          1           0       -3.812742    1.098171    0.479133
      7          1           0       -4.472010    0.006671   -0.733960
      8          1           0       -3.461068    1.415808   -2.558515
      9          1           0       -2.798054    2.513509   -1.338530
     10          1           0       -4.552298    2.378149   -1.547366
     11          6           0       -2.341588   -1.256025    0.521108
     12          6           0       -1.042415   -2.062104    0.540341
     13          6           0       -1.063504   -3.192897    1.569251
     14          1           0       -2.521136   -0.839173    1.521804
     15          1           0       -3.181590   -1.931435    0.308591
     16          1           0       -0.205387   -1.384663    0.752648
     17          1           0       -0.864655   -2.476163   -0.460445
     18          1           0       -1.879343   -3.891502    1.357218
     19          1           0       -1.216329   -2.793800    2.577203
     20          1           0       -0.125099   -3.756142    1.566054
     21          6           0        1.784670    1.034699    0.386856
     22          6           0        2.069169    2.510963    0.665582
     23          6           0        0.951694    3.188795    1.459046
     24          1           0        0.837712    0.947851   -0.163302
     25          1           0        1.640930    0.509607    1.341326
     26          1           0        2.213698    3.032839   -0.289077
     27          1           0        3.015656    2.594319    1.214972
     28          1           0        0.810839    2.694183    2.425544
     29          1           0        0.004326    3.135195    0.912950
     30          1           0        1.175667    4.243462    1.647122
     31          6           0        2.892727    0.343294   -0.405544
     32          6           0        2.608229   -1.132971   -0.684270
     33          6           0        3.725703   -1.810803   -1.477734
     34          1           0        3.036467    0.868386   -1.360014
     35          1           0        3.839684    0.430141    0.144614
     36          1           0        1.661742   -1.216326   -1.233660
     37          1           0        2.463698   -1.654847    0.270390
     38          1           0        4.673072   -1.757203   -0.931638
     39          1           0        3.866558   -1.316191   -2.444232
     40          1           0        3.501729   -2.865470   -1.665809
 ---------------------------------------------------------------------

 SCF Done:  E(RHF) =  -470.732251855     A.U. after   11 cycles
 E2 =    -0.1585276237D+01 EUMP2 =    -0.47231752809206D+03

 The electronic state is 1-A.
 Alpha  occ. eigenvalues --  -11.21660 -11.21599 -11.21558 -11.21442 -11.21438
 Alpha  occ. eigenvalues --  -11.21374 -11.21370 -11.21297 -11.21157 -11.21096
 Alpha  occ. eigenvalues --  -11.21057 -11.21014  -1.08505  -1.08363  -1.03572
 Alpha  occ. eigenvalues --   -1.03478  -0.96021  -0.95951  -0.87038  -0.86965
 Alpha  occ. eigenvalues --   -0.79716  -0.79491  -0.78594  -0.77918  -0.65166
 Alpha  occ. eigenvalues --   -0.64974  -0.60957  -0.60894  -0.59462  -0.59251
 Alpha  occ. eigenvalues --   -0.57675  -0.57519  -0.55357  -0.55203  -0.52731
 Alpha  occ. eigenvalues --   -0.52630  -0.52465  -0.52361  -0.49992  -0.49874
 Alpha  occ. eigenvalues --   -0.48148  -0.47728  -0.46788  -0.46680  -0.46498
 Alpha  occ. eigenvalues --   -0.45707  -0.45614  -0.44800  -0.43812  -0.43728
 Alpha virt. eigenvalues --    0.20705   0.22450   0.23609   0.24495   0.24874
 Alpha virt. eigenvalues --    0.26069   0.26841   0.27022   0.28344   0.30249
 Alpha virt. eigenvalues --    0.30982   0.31095   0.31698   0.31977   0.32078

 Mulliken charges:
               1
     1  C   -0.306818
     2  C   -0.298887
     3  C   -0.475763
     4  H    0.156906
     5  H    0.148483
     6  H    0.152211
     7  H    0.152109
     8  H    0.155094
     9  H    0.154233
    10  H    0.160566
    11  C   -0.297380
    12  C   -0.308154
    13  C   -0.475995
    14  H    0.149106
    15  H    0.149090
    16  H    0.164301
    17  H    0.150943
    18  H    0.154791
    19  H    0.154503
    20  H    0.159786
    21  C   -0.309109
    22  C   -0.298890
    23  C   -0.476698
    24  H    0.159103
    25  H    0.149301
    26  H    0.152193
    27  H    0.152264
    28  H    0.155149
    29  H    0.154678
    30  H    0.160961
    31  C   -0.297103
    32  C   -0.302786
    33  C   -0.475687
    34  H    0.149445
    35  H    0.149428
    36  H    0.156175
    37  H    0.152427
    38  H    0.154875
    39  H    0.154990
    40  H    0.160159
 Sum of Mulliken charges =  -0.00000

 Dipole moment (field-independent basis, Debye):
    X=              0.0350    Y=              0.0215    Z=             -0.0044  Tot=              0.0413
 Quadrupole moment (field-independent basis, Debye-Ang):
   XX=            -85.0697   YY=            -85.5531   ZZ=            -84.3459
   XY=              0.6819   XZ=              1.0088   YZ=              0.5078

 Normal termination of Gaussian 16 at Wed May  5 16:33:41 2021.
