 Gaussian 16, Revision A.03,
 Gaussian 16:  EM64L-G16RevA.03 25-Dec-2016

 -------------
 #p 6-31g* mp2
 -------------

 ------------------------------------------------------
 Input file generated by CHIRIPA (05-May-2021 14:51:09)
 ------------------------------------------------------
 Symbolic Z-matrix:
 Charge =  0 Multiplicity = 1

                         Standard orientation:
 ---------------------------------------------------------------------
 Center     Atomic      Atomic             Coordinates (Angstroms)
 Number     Number       Type             X           Y           Z
 ---------------------------------------------------------------------
      1          6           0        3.445805    0.324597   -0.278425
      2          6           0        3.962960    1.740454   -0.021747
      3          6           0        4.595426    2.372683   -1.261936
      4          1           0        4.275611   -0.303989   -0.629492
      5          1           0        2.708858    0.352962   -1.092980
      6          1           0        4.697692    1.709629    0.793013
      7          1           0        3.131867    2.365694    0.328932
      8          1           0        3.867530    2.432655   -2.077516
      9          1           0        5.442251    1.772863   -1.610798
     10          1           0        4.958331    3.384491   -1.056012
     11          6           0        2.810738   -0.320745    0.952002
     12          6           0        2.293583   -1.736602    0.695324
     13          6           0        1.661117   -2.368831    1.935512
     14          1           0        3.547685   -0.349110    1.766556
     15          1           0        1.980932    0.307840    1.303068
     16          1           0        3.124676   -2.361842    0.344645
     17          1           0        1.558851   -1.705778   -0.119437
     18          1           0        0.814291   -1.769011    2.284374
     19          1           0        2.389013   -2.428803    2.751093
     20          1           0        1.298212   -3.380639    1.729588
     21          6           0       -3.760256    0.289628   -0.022108
     22          6           0       -3.598148    1.741141    0.430457
     23          6           0       -4.870951    2.310375    1.057945
     24          1           0       -4.586135    0.227335   -0.743904
     25          1           0       -4.051818   -0.325650    0.840342
     26          1           0       -3.305631    2.353258   -0.432307
     27          1           0       -2.772435    1.800017    1.151115
     28          1           0       -5.163245    1.724399    1.935325
     29          1           0       -5.699470    2.280783    0.342907
     30          1           0       -4.732768    3.348973    1.374297
     31          6           0       -2.496287   -0.293480   -0.651469
     32          6           0       -2.658395   -1.744993   -1.104034
     33          6           0       -1.385592   -2.314227   -1.731521
     34          1           0       -2.204725    0.321798   -1.513918
     35          1           0       -1.670408   -0.231188    0.070327
     36          1           0       -3.484108   -1.803869   -1.824691
     37          1           0       -2.950912   -2.357110   -0.241270
     38          1           0       -0.557073   -2.284636   -1.016484
     39          1           0       -1.093298   -1.728251   -2.608902
     40          1           0       -1.523775   -3.352826   -2.047873
 ---------------------------------------------------------------------

 SCF Done:  E(RHF) =  -470.733374365     A.U. after   11 cycles
 E2 =    -0.1582809349D+01 EUMP2 =    -0.47231618371403D+03

 The electronic state is 1-A.
 Alpha  occ. eigenvalues --  -11.21637 -11.21630 -11.21599 -11.21591 -11.21448
 Alpha  occ. eigenvalues --  -11.21403 -11.21387 -11.21340 -11.21114 -11.21096
 Alpha  occ. eigenvalues --  -11.21083 -11.21061  -1.08469  -1.08428  -1.03573
 Alpha  occ. eigenvalues --   -1.03525  -0.96020  -0.95979  -0.87033  -0.86998
 Alpha  occ. eigenvalues --   -0.79666  -0.79561  -0.78294  -0.78229  -0.65162
 Alpha  occ. eigenvalues --   -0.65008  -0.61100  -0.60815  -0.59389  -0.59345
 Alpha  occ. eigenvalues --   -0.57665  -0.57557  -0.55367  -0.55207  -0.52701
 Alpha  occ. eigenvalues --   -0.52683  -0.52452  -0.52403  -0.50032  -0.49870
 Alpha  occ. eigenvalues --   -0.48062  -0.47829  -0.46793  -0.46488  -0.45907
 Alpha  occ. eigenvalues --   -0.45773  -0.45736  -0.45554  -0.43817  -0.43787
 Alpha virt. eigenvalues --    0.20468   0.23255   0.23596   0.24951   0.26052
 Alpha virt. eigenvalues --    0.26486   0.27012   0.27881   0.28125   0.28878
 Alpha virt. eigenvalues --    0.30579   0.31353   0.31705   0.31805   0.31991

 Mulliken charges:
               1
     1  C   -0.298509
     2  C   -0.299695
     3  C   -0.475712
     4  H    0.149671
     5  H    0.150228
     6  H    0.151823
     7  H    0.152037
     8  H    0.155252
     9  H    0.155161
    10  H    0.160201
    11  C   -0.297620
    12  C   -0.307940
    13  C   -0.475939
    14  H    0.149508
    15  H    0.149269
    16  H    0.152451
    17  H    0.158958
    18  H    0.154291
    19  H    0.155678
    20  H    0.160610
    21  C   -0.298349
    22  C   -0.299636
    23  C   -0.475735
    24  H    0.149899
    25  H    0.149769
    26  H    0.151899
    27  H    0.151649
    28  H    0.155312
    29  H    0.155280
    30  H    0.160336
    31  C   -0.298582
    32  C   -0.299140
    33  C   -0.483852
    34  H    0.149376
    35  H    0.148955
    36  H    0.152088
    37  H    0.152247
    38  H    0.163196
    39  H    0.154859
    40  H    0.160707
 Sum of Mulliken charges =  -0.00000

 Dipole moment (field-independent basis, Debye):
    X=             -0.0034    Y=             -0.0093    Z=             -0.0075  Tot=              0.0124
 Quadrupole moment (field-independent basis, Debye-Ang):
   XX=            -84.7394   YY=            -85.1729   ZZ=            -84.7569
   XY=             -0.2989   XZ=              1.3223   YZ=             -0.1931

 Normal termination of Gaussian 16 at Wed May  5 15:07:46 2021.
