 Gaussian 16, Revision A.03,
 Gaussian 16:  EM64L-G16RevA.03 25-Dec-2016

 -------------
 #p 6-31g* mp2
 -------------

 ------------------------------------------------------
 Input file generated by CHIRIPA (05-May-2021 14:53:18)
 ------------------------------------------------------
 Symbolic Z-matrix:
 Charge =  0 Multiplicity = 1

                         Standard orientation:
 ---------------------------------------------------------------------
 Center     Atomic      Atomic             Coordinates (Angstroms)
 Number     Number       Type             X           Y           Z
 ---------------------------------------------------------------------
      1          6           0       -3.200303   -0.650180   -0.413293
      2          6           0       -2.249265   -1.748299   -0.890417
      3          6           0       -2.916420   -3.122697   -0.951481
      4          1           0       -3.587919   -0.915638    0.579798
      5          1           0       -4.067786   -0.608119   -1.086420
      6          1           0       -1.383165   -1.787348   -0.217393
      7          1           0       -1.863720   -1.480103   -1.882406
      8          1           0       -3.769143   -3.106839   -1.637931
      9          1           0       -3.285858   -3.415830    0.036542
     10          1           0       -2.218655   -3.892763   -1.294969
     11          6           0       -2.547907    0.729570   -0.346982
     12          6           0       -3.498944    1.827689    0.130141
     13          6           0       -2.831789    3.202087    0.191205
     14          1           0       -1.680424    0.687509    0.326144
     15          1           0       -2.160290    0.995028   -1.340074
     16          1           0       -3.884490    1.559493    1.122130
     17          1           0       -4.365044    1.866738   -0.542883
     18          1           0       -2.462352    3.495220   -0.796818
     19          1           0       -1.979067    3.186229    0.877655
     20          1           0       -3.529554    3.972153    0.534694
     21          6           0        0.750525   -1.005911    2.080480
     22          6           0        1.650466   -1.828458    1.394882
     23          6           0        2.483559   -1.299111    0.404782
     24          6           0        2.389913    0.063238    0.124561
     25          6           0        1.503530    0.908594    0.790135
     26          6           0        0.680053    0.357586    1.776454
     27          1           0        0.107093   -1.425534    2.848144
     28          1           0        1.707362   -2.887724    1.628894
     29          1           0        3.189309   -1.913106   -0.141428
     30          1           0        1.469652    1.960758    0.534752
     31          1           0       -0.017905    0.998776    2.307279
     32          7           0        3.266781    0.635100   -0.921612
     33          8           0        3.164997    1.838510   -1.149822
     34          8           0        4.039250   -0.130915   -1.493583
 ---------------------------------------------------------------------

 SCF Done:  E(RHF) =  -669.534814814     A.U. after   15 cycles
 E2 =    -0.2094024744D+01 EUMP2 =    -0.67162883955828D+03

 The electronic state is 1-A.
 Alpha  occ. eigenvalues --  -20.60829 -20.60824 -15.85884 -11.31291 -11.27866
 Alpha  occ. eigenvalues --  -11.27860 -11.27637 -11.26910 -11.26891 -11.22013
 Alpha  occ. eigenvalues --  -11.21826 -11.21718 -11.21618 -11.21570 -11.21398
 Alpha  occ. eigenvalues --   -1.59903  -1.39455  -1.19484  -1.08893  -1.08756
 Alpha  occ. eigenvalues --   -1.04897  -1.03896  -0.96353  -0.95693  -0.87370
 Alpha  occ. eigenvalues --   -0.86290  -0.82529  -0.79946  -0.78590  -0.77553
 Alpha  occ. eigenvalues --   -0.72103  -0.71225  -0.70583  -0.65491  -0.65136
 Alpha  occ. eigenvalues --   -0.64858  -0.62242  -0.61300  -0.59713  -0.57959
 Alpha  occ. eigenvalues --   -0.55675  -0.55393  -0.53323  -0.53000  -0.52990
 Alpha  occ. eigenvalues --   -0.52760  -0.50316  -0.48866  -0.48853  -0.48273
 Alpha  occ. eigenvalues --   -0.46998  -0.46104  -0.46030  -0.44850  -0.44129
 Alpha  occ. eigenvalues --   -0.37416  -0.36399
 Alpha virt. eigenvalues --    0.04960   0.11077   0.16341   0.19870   0.22979
 Alpha virt. eigenvalues --    0.23466   0.25848   0.26699   0.27488   0.28379
 Alpha virt. eigenvalues --    0.28542   0.30181   0.31350   0.31592   0.32201

 Mulliken charges:
               1
     1  C   -0.297235
     2  C   -0.304725
     3  C   -0.475593
     4  H    0.144706
     5  H    0.150999
     6  H    0.154049
     7  H    0.154879
     8  H    0.156905
     9  H    0.151670
    10  H    0.159914
    11  C   -0.306285
    12  C   -0.299908
    13  C   -0.474206
    14  H    0.152217
    15  H    0.153163
    16  H    0.148318
    17  H    0.154554
    18  H    0.160362
    19  H    0.144896
    20  H    0.162483
    21  C   -0.171234
    22  C   -0.218363
    23  C   -0.170177
    24  C    0.159185
    25  C   -0.168237
    26  C   -0.219864
    27  H    0.226591
    28  H    0.224468
    29  H    0.276243
    30  H    0.276939
    31  H    0.225262
    32  N    0.488028
    33  O   -0.459854
    34  O   -0.460152
 Sum of Mulliken charges =  -0.00000

 Dipole moment (field-independent basis, Debye):
    X=             -2.9761    Y=             -1.9980    Z=              3.6273  Tot=              5.0997
 Quadrupole moment (field-independent basis, Debye-Ang):
   XX=           -109.5580   YY=            -92.1904   ZZ=            -93.3655
   XY=             -7.7546   XZ=              8.6143   YZ=              0.3225

 Normal termination of Gaussian 16 at Wed May  5 17:17:23 2021.
