 Gaussian 16, Revision A.03,
 Gaussian 16:  EM64L-G16RevA.03 25-Dec-2016

 -------------
 #p 6-31g* mp2
 -------------

 ------------------------------------------------------
 Input file generated by CHIRIPA (05-May-2021 14:57:25)
 ------------------------------------------------------
 Symbolic Z-matrix:
 Charge =  0 Multiplicity = 1

                         Standard orientation:
 ---------------------------------------------------------------------
 Center     Atomic      Atomic             Coordinates (Angstroms)
 Number     Number       Type             X           Y           Z
 ---------------------------------------------------------------------
      1          6           0       -2.412835    2.210674   -0.455986
      2          6           0       -3.597233    1.897848   -1.131162
      3          6           0       -4.225745    0.665577   -0.928605
      4          6           0       -3.639678   -0.234302   -0.039767
      5          6           0       -2.460364    0.048102    0.647806
      6          6           0       -1.849175    1.286432    0.429781
      7          1           0       -1.931320    3.170285   -0.619345
      8          1           0       -4.037243    2.613688   -1.819646
      9          1           0       -5.143311    0.397570   -1.438175
     10          1           0       -2.045595   -0.685915    1.327955
     11          1           0       -0.929423    1.526669    0.955508
     12          7           0       -4.295887   -1.542059    0.182859
     13          8           0       -3.759422   -2.317603    0.971131
     14          8           0       -5.334262   -1.766772   -0.435135
     15          6           0        2.054212    1.313300    1.660013
     16          6           0        1.983647    1.552160    0.283609
     17          6           0        2.797446    0.840805   -0.603101
     18          6           0        3.674349   -0.106383   -0.076634
     19          6           0        3.767825   -0.367074    1.289599
     20          6           0        2.944505    0.356134    2.157738
     21          1           0        1.418336    1.870502    2.341617
     22          1           0        1.293170    2.294911   -0.105758
     23          1           0        2.763263    1.005684   -1.673178
     24          1           0        4.465988   -1.113782    1.647945
     25          1           0        3.001450    0.168532    3.226198
     26          7           0        4.540920   -0.865737   -1.005523
     27          8           0        5.305147   -1.694893   -0.516552
     28          8           0        4.439503   -0.617383   -2.204971
 ---------------------------------------------------------------------

 SCF Done:  E(RHF) =  -868.335892026     A.U. after   16 cycles
 E2 =    -0.2601117551D+01 EUMP2 =    -0.87093700957668D+03

 The electronic state is 1-A.
 Alpha  occ. eigenvalues --  -20.61250 -20.61242 -20.61142 -20.61135 -15.86309
 Alpha  occ. eigenvalues --  -15.86200 -11.31877 -11.31696 -11.28482 -11.28421
 Alpha  occ. eigenvalues --  -11.28341 -11.28300 -11.28256 -11.28127 -11.27647
 Alpha  occ. eigenvalues --  -11.27507 -11.27395 -11.27316  -1.60318  -1.60213
 Alpha  occ. eigenvalues --   -1.39866  -1.39763  -1.20084  -1.19893  -1.09477
 Alpha  occ. eigenvalues --   -1.09280  -1.05516  -1.05310  -0.96261  -0.96089
 Alpha  occ. eigenvalues --   -0.86980  -0.86680  -0.83079  -0.82915  -0.78095
 Alpha  occ. eigenvalues --   -0.77910  -0.72527  -0.72418  -0.71641  -0.71537
 Alpha  occ. eigenvalues --   -0.71247  -0.71039  -0.65866  -0.65691  -0.65547
 Alpha  occ. eigenvalues --   -0.65143  -0.62910  -0.62575  -0.56090  -0.55870
 Alpha  occ. eigenvalues --   -0.53936  -0.53676  -0.53583  -0.53296  -0.49302
 Alpha  occ. eigenvalues --   -0.49265  -0.49186  -0.49162  -0.45226  -0.45139
 Alpha  occ. eigenvalues --   -0.38142  -0.37895  -0.37157  -0.36809
 Alpha virt. eigenvalues --    0.04429   0.04610   0.10202   0.10914   0.15775
 Alpha virt. eigenvalues --    0.16079   0.18640   0.22052   0.25374   0.25617
 Alpha virt. eigenvalues --    0.27893   0.28681   0.29998   0.31490   0.32107

 Mulliken charges:
               1
     1  C   -0.174200
     2  C   -0.217580
     3  C   -0.170074
     4  C    0.159458
     5  C   -0.171433
     6  C   -0.218339
     7  H    0.221579
     8  H    0.225263
     9  H    0.277741
    10  H    0.276825
    11  H    0.217473
    12  N    0.488083
    13  O   -0.459229
    14  O   -0.458602
    15  C   -0.177381
    16  C   -0.217007
    17  C   -0.169630
    18  C    0.159711
    19  C   -0.169415
    20  C   -0.217763
    21  H    0.222128
    22  H    0.216689
    23  H    0.277845
    24  H    0.279037
    25  H    0.226869
    26  N    0.488057
    27  O   -0.457551
    28  O   -0.458553
 Sum of Mulliken charges =  -0.00000

 Dipole moment (field-independent basis, Debye):
    X=             -0.6261    Y=              7.0430    Z=              2.4127  Tot=              7.4711
 Quadrupole moment (field-independent basis, Debye-Ang):
   XX=           -140.0260   YY=           -107.5344   ZZ=           -100.7343
   XY=             -9.5403   XZ=             19.7822   YZ=             -3.9401

 Normal termination of Gaussian 16 at Wed May  5 21:09:56 2021.
