 Gaussian 16, Revision A.03,
 Gaussian 16:  EM64L-G16RevA.03 25-Dec-2016

 -------------
 #p 6-31g* mp2
 -------------

 ------------------------------------------------------
 Input file generated by CHIRIPA (05-May-2021 14:57:27)
 ------------------------------------------------------
 Symbolic Z-matrix:
 Charge =  0 Multiplicity = 1

                         Standard orientation:
 ---------------------------------------------------------------------
 Center     Atomic      Atomic             Coordinates (Angstroms)
 Number     Number       Type             X           Y           Z
 ---------------------------------------------------------------------
      1          6           0        3.339897    2.491541   -0.655833
      2          6           0        2.338897    1.729450   -1.267174
      3          6           0        2.124617    0.401654   -0.885612
      4          6           0        2.933397   -0.134591    0.115190
      5          6           0        3.938743    0.599046    0.743160
      6          6           0        4.135223    1.924906    0.345617
      7          1           0        3.499441    3.522253   -0.958446
      8          1           0        1.719722    2.166888   -2.045193
      9          1           0        1.356757   -0.210967   -1.342237
     10          1           0        4.540007    0.135398    1.515772
     11          1           0        4.913355    2.514383    0.822138
     12          7           0        2.715970   -1.539245    0.527591
     13          8           0        3.441982   -1.988386    1.411795
     14          8           0        1.823656   -2.164473   -0.041181
     15          6           0       -4.170832    1.222709    1.736225
     16          6           0       -3.249717    0.234171    2.097970
     17          6           0       -2.578104   -0.503180    1.118277
     18          6           0       -2.853066   -0.224488   -0.219638
     19          6           0       -3.765240    0.754004   -0.611785
     20          6           0       -4.425205    1.479018    0.384884
     21          1           0       -4.688033    1.790709    2.503867
     22          1           0       -3.050177    0.032959    3.146656
     23          1           0       -1.860107   -1.274132    1.370331
     24          1           0       -3.943177    0.931851   -1.665410
     25          1           0       -5.140042    2.246137    0.101013
     26          7           0       -2.148224   -0.998559   -1.265781
     27          8           0       -2.408174   -0.733841   -2.437527
     28          8           0       -1.349167   -1.855336   -0.894193
 ---------------------------------------------------------------------

 SCF Done:  E(RHF) =  -868.337180049     A.U. after   16 cycles
 E2 =    -0.2600495472D+01 EUMP2 =    -0.87093767552078D+03

 The electronic state is 1-A.
 Alpha  occ. eigenvalues --  -20.60737 -20.60609 -20.60122 -20.60021 -15.85690
 Alpha  occ. eigenvalues --  -15.85116 -11.31123 -11.30654 -11.27740 -11.27634
 Alpha  occ. eigenvalues --  -11.27468 -11.27303 -11.27140 -11.27068 -11.26755
 Alpha  occ. eigenvalues --  -11.26692 -11.26353 -11.26273  -1.59762  -1.59166
 Alpha  occ. eigenvalues --   -1.39297  -1.38698  -1.19309  -1.18859  -1.08700
 Alpha  occ. eigenvalues --   -1.08235  -1.04710  -1.04275  -0.95514  -0.95027
 Alpha  occ. eigenvalues --   -0.86105  -0.85665  -0.82333  -0.81832  -0.77376
 Alpha  occ. eigenvalues --   -0.76841  -0.71913  -0.71315  -0.71073  -0.70507
 Alpha  occ. eigenvalues --   -0.70402  -0.69953  -0.64949  -0.64708  -0.64495
 Alpha  occ. eigenvalues --   -0.64277  -0.62041  -0.61593  -0.55217  -0.54794
 Alpha  occ. eigenvalues --   -0.53055  -0.52793  -0.52622  -0.52357  -0.48700
 Alpha  occ. eigenvalues --   -0.48657  -0.48135  -0.48062  -0.44686  -0.44028
 Alpha  occ. eigenvalues --   -0.37309  -0.36879  -0.36321  -0.35897
 Alpha virt. eigenvalues --    0.05105   0.05661   0.11324   0.11753   0.16573
 Alpha virt. eigenvalues --    0.17108   0.21476   0.21902   0.27412   0.27763
 Alpha virt. eigenvalues --    0.28349   0.28832   0.30966   0.31459   0.32601

 Mulliken charges:
               1
     1  C   -0.171577
     2  C   -0.220268
     3  C   -0.177209
     4  C    0.155736
     5  C   -0.172169
     6  C   -0.219347
     7  H    0.223116
     8  H    0.224102
     9  H    0.289806
    10  H    0.273638
    11  H    0.220842
    12  N    0.485098
    13  O   -0.467570
    14  O   -0.446667
    15  C   -0.171084
    16  C   -0.219039
    17  C   -0.172593
    18  C    0.155770
    19  C   -0.172572
    20  C   -0.219013
    21  H    0.225145
    22  H    0.224900
    23  H    0.283869
    24  H    0.273905
    25  H    0.222282
    26  N    0.483413
    27  O   -0.466613
    28  O   -0.445904
 Sum of Mulliken charges =  -0.00000

 Dipole moment (field-independent basis, Debye):
    X=             -1.8555    Y=              7.3972    Z=              2.2179  Tot=              7.9424
 Quadrupole moment (field-independent basis, Debye-Ang):
   XX=            -84.4351   YY=           -107.1270   ZZ=           -103.0189
   XY=              6.1085   XZ=            -10.0908   YZ=             -2.3231

 Normal termination of Gaussian 16 at Fri May  7 05:07:43 2021.
