 Gaussian 16, Revision A.03,
 Gaussian 16:  EM64L-G16RevA.03 25-Dec-2016

 -------------
 #p 6-31g* mp2
 -------------

 ------------------------------------------------------
 Input file generated by CHIRIPA (05-May-2021 14:55:19)
 ------------------------------------------------------
 Symbolic Z-matrix:
 Charge =  0 Multiplicity = 1

                         Standard orientation:
 ---------------------------------------------------------------------
 Center     Atomic      Atomic             Coordinates (Angstroms)
 Number     Number       Type             X           Y           Z
 ---------------------------------------------------------------------
      1          6           0        4.128635    0.939138    0.551050
      2          6           0        3.641975    0.891716   -0.759459
      3          6           0        2.592983    0.031193   -1.096597
      4          6           0        2.051649   -0.771616   -0.093728
      5          6           0        2.514655   -0.747179    1.220927
      6          6           0        3.564416    0.120981    1.535325
      7          1           0        4.943817    1.610579    0.804115
      8          1           0        4.078230    1.525966   -1.525914
      9          1           0        2.196934   -0.025646   -2.103241
     10          1           0        2.059492   -1.391458    1.963322
     11          1           0        3.940340    0.155700    2.553913
     12          7           0        0.940720   -1.686655   -0.438604
     13          8           0        0.480928   -2.383777    0.463199
     14          8           0        0.550802   -1.689416   -1.604191
     15          6           0       -3.470639    0.448653   -0.255150
     16          6           0       -4.471536   -0.040269    0.792296
     17          6           0       -5.686790   -0.730268    0.171929
     18          1           0       -3.976736    1.141365   -0.941418
     19          1           0       -3.138632   -0.405354   -0.861645
     20          1           0       -4.800509    0.814181    1.397530
     21          1           0       -3.962952   -0.731748    1.476265
     22          1           0       -5.377248   -1.600080   -0.416469
     23          1           0       -6.219565   -0.045367   -0.495650
     24          1           0       -6.389300   -1.071832    0.938528
     25          6           0       -2.250304    1.140610    0.349585
     26          6           0       -1.249406    1.629532   -0.697861
     27          6           0       -0.034153    2.319532   -0.077495
     28          1           0       -2.582311    1.994618    0.956080
     29          1           0       -1.744208    0.447899    1.035853
     30          1           0       -1.757992    2.321011   -1.381829
     31          1           0       -0.920434    0.775083   -1.303096
     32          1           0        0.498622    1.634631    0.590085
     33          1           0       -0.343694    3.189343    0.510903
     34          1           0        0.668357    2.661096   -0.844094
 ---------------------------------------------------------------------

 SCF Done:  E(RHF) =  -669.535263949     A.U. after   15 cycles
 E2 =    -0.2094904118D+01 EUMP2 =    -0.67163016806735D+03

 The electronic state is 1-A.
 Alpha  occ. eigenvalues --  -20.61023 -20.61010 -15.86024 -11.31260 -11.27870
 Alpha  occ. eigenvalues --  -11.27828 -11.27598 -11.26874 -11.26839 -11.21024
 Alpha  occ. eigenvalues --  -11.20894 -11.20779 -11.20762 -11.20590 -11.20405
 Alpha  occ. eigenvalues --   -1.60069  -1.39628  -1.19474  -1.08882  -1.07788
 Alpha  occ. eigenvalues --   -1.04861  -1.02967  -0.95738  -0.95425  -0.86453
 Alpha  occ. eigenvalues --   -0.86259  -0.82569  -0.79024  -0.77648  -0.77560
 Alpha  occ. eigenvalues --   -0.72255  -0.71415  -0.70579  -0.65126  -0.64863
 Alpha  occ. eigenvalues --   -0.64393  -0.62211  -0.60388  -0.58824  -0.57041
 Alpha  occ. eigenvalues --   -0.55366  -0.54953  -0.53106  -0.52950  -0.52096
 Alpha  occ. eigenvalues --   -0.51834  -0.49288  -0.49023  -0.49009  -0.47348
 Alpha  occ. eigenvalues --   -0.46131  -0.45272  -0.45133  -0.44623  -0.43200
 Alpha  occ. eigenvalues --   -0.37406  -0.36419
 Alpha virt. eigenvalues --    0.04858   0.11138   0.16316   0.21239   0.23265
 Alpha virt. eigenvalues --    0.24680   0.27047   0.27186   0.27986   0.28473
 Alpha virt. eigenvalues --    0.28595   0.30765   0.31879   0.31903   0.32295

 Mulliken charges:
               1
     1  C   -0.169992
     2  C   -0.216803
     3  C   -0.167411
     4  C    0.159205
     5  C   -0.173658
     6  C   -0.217247
     7  H    0.226326
     8  H    0.223869
     9  H    0.275735
    10  H    0.275790
    11  H    0.224139
    12  N    0.488482
    13  O   -0.459025
    14  O   -0.459275
    15  C   -0.300286
    16  C   -0.299822
    17  C   -0.475922
    18  H    0.146082
    19  H    0.161581
    20  H    0.147834
    21  H    0.155448
    22  H    0.158868
    23  H    0.152773
    24  H    0.157977
    25  C   -0.297884
    26  C   -0.312668
    27  C   -0.476816
    28  H    0.145464
    29  H    0.151387
    30  H    0.149822
    31  H    0.165351
    32  H    0.156028
    33  H    0.152130
    34  H    0.152520
 Sum of Mulliken charges =  -0.00000

 Dipole moment (field-independent basis, Debye):
    X=              4.0749    Y=              3.0097    Z=              1.1692  Tot=              5.1990
 Quadrupole moment (field-independent basis, Debye-Ang):
   XX=            -80.0661   YY=            -99.8276   ZZ=            -90.6392
   XY=              3.3076   XZ=              1.9544   YZ=             -3.1849

 Normal termination of Gaussian 16 at Wed May  5 20:30:17 2021.
