 Gaussian 16, Revision A.03,
 Gaussian 16:  EM64L-G16RevA.03 25-Dec-2016

 -------------
 #p 6-31g* mp2
 -------------

 ------------------------------------------------------
 Input file generated by CHIRIPA (05-May-2021 14:55:22)
 ------------------------------------------------------
 Symbolic Z-matrix:
 Charge =  0 Multiplicity = 1

                         Standard orientation:
 ---------------------------------------------------------------------
 Center     Atomic      Atomic             Coordinates (Angstroms)
 Number     Number       Type             X           Y           Z
 ---------------------------------------------------------------------
      1          6           0       -0.776878   -1.024435    1.100809
      2          6           0       -1.806967   -0.583953    1.938314
      3          6           0       -2.972434   -0.030683    1.399680
      4          6           0       -3.074835    0.067407    0.012892
      5          6           0       -2.066045   -0.362470   -0.847827
      6          6           0       -0.909471   -0.912485   -0.287141
      7          1           0        0.125030   -1.452964    1.527798
      8          1           0       -1.706741   -0.669651    3.016579
      9          1           0       -3.785347    0.318252    2.024849
     10          1           0       -2.194904   -0.263935   -1.918857
     11          1           0       -0.111110   -1.253738   -0.939990
     12          7           0       -4.303955    0.651407   -0.569008
     13          8           0       -4.369730    0.726759   -1.794012
     14          8           0       -5.178292    1.022735    0.210920
     15          6           0        4.169393    0.609823   -0.250002
     16          6           0        3.673956    1.949838    0.294869
     17          6           0        4.670983    3.086166    0.065761
     18          1           0        5.127915    0.359875    0.225085
     19          1           0        4.370599    0.711053   -1.325484
     20          1           0        3.472428    1.845735    1.368724
     21          1           0        2.716409    2.196532   -0.181430
     22          1           0        4.864815    3.218854   -1.003548
     23          1           0        5.625131    2.866064    0.555413
     24          1           0        4.296702    4.034843    0.462985
     25          6           0        3.183595   -0.535984   -0.028516
     26          6           0        3.679033   -1.876000   -0.573387
     27          6           0        2.682006   -3.012328   -0.344280
     28          1           0        2.982390   -0.637216    1.046967
     29          1           0        2.225074   -0.286036   -0.503604
     30          1           0        4.636581   -2.122694   -0.097088
     31          1           0        3.880561   -1.771898   -1.647242
     32          1           0        1.727858   -2.792226   -0.833932
     33          1           0        2.488173   -3.145016    0.725030
     34          1           0        3.056286   -3.961005   -0.741503
 ---------------------------------------------------------------------

 SCF Done:  E(RHF) =  -669.535044460     A.U. after   15 cycles
 E2 =    -0.2092571774D+01 EUMP2 =    -0.67162761623418D+03

 The electronic state is 1-A.
 Alpha  occ. eigenvalues --  -20.60717 -20.60712 -15.85771 -11.31119 -11.27698
 Alpha  occ. eigenvalues --  -11.27693 -11.27393 -11.26689 -11.26661 -11.22663
 Alpha  occ. eigenvalues --  -11.22475 -11.22390 -11.22227 -11.22150 -11.21551
 Alpha  occ. eigenvalues --   -1.59794  -1.39348  -1.19292  -1.09357  -1.08679
 Alpha  occ. eigenvalues --   -1.04702  -1.04411  -0.96885  -0.95519  -0.87899
 Alpha  occ. eigenvalues --   -0.86102  -0.82357  -0.80497  -0.79151  -0.77411
 Alpha  occ. eigenvalues --   -0.71989  -0.71117  -0.70377  -0.66037  -0.64939
 Alpha  occ. eigenvalues --   -0.64708  -0.62149  -0.61715  -0.60250  -0.58482
 Alpha  occ. eigenvalues --   -0.56207  -0.55172  -0.53543  -0.53359  -0.52990
 Alpha  occ. eigenvalues --   -0.52803  -0.50838  -0.48821  -0.48746  -0.48717
 Alpha  occ. eigenvalues --   -0.47501  -0.46662  -0.46563  -0.44757  -0.44660
 Alpha  occ. eigenvalues --   -0.37244  -0.36299
 Alpha virt. eigenvalues --    0.05127   0.11222   0.16606   0.18948   0.22557
 Alpha virt. eigenvalues --    0.23852   0.23995   0.25902   0.27048   0.27748
 Alpha virt. eigenvalues --    0.29281   0.30241   0.30833   0.31638   0.31954

 Mulliken charges:
               1
     1  C   -0.172367
     2  C   -0.219370
     3  C   -0.170716
     4  C    0.158506
     5  C   -0.172093
     6  C   -0.223963
     7  H    0.229894
     8  H    0.223105
     9  H    0.275326
    10  H    0.275451
    11  H    0.228964
    12  N    0.488002
    13  O   -0.460712
    14  O   -0.460644
    15  C   -0.298565
    16  C   -0.300520
    17  C   -0.476341
    18  H    0.151923
    19  H    0.151973
    20  H    0.151259
    21  H    0.154157
    22  H    0.156577
    23  H    0.155769
    24  H    0.162756
    25  C   -0.303612
    26  C   -0.300456
    27  C   -0.480861
    28  H    0.145939
    29  H    0.148039
    30  H    0.156574
    31  H    0.155594
    32  H    0.149234
    33  H    0.152885
    34  H    0.168294
 Sum of Mulliken charges =  -0.00000

 Dipole moment (field-independent basis, Debye):
    X=              4.5776    Y=             -2.0269    Z=              2.0323  Tot=              5.4030
 Quadrupole moment (field-independent basis, Debye-Ang):
   XX=           -120.7254   YY=            -96.1881   ZZ=            -89.7454
   XY=              5.6553   XZ=             -7.9820   YZ=              0.7669

 Normal termination of Gaussian 16 at Thu May  6 03:04:54 2021.
