 Gaussian 16, Revision A.03,
 Gaussian 16:  EM64L-G16RevA.03 25-Dec-2016

 -------------
 #p 6-31g* mp2
 -------------

 ------------------------------------------------------
 Input file generated by CHIRIPA (05-May-2021 14:53:17)
 ------------------------------------------------------
 Symbolic Z-matrix:
 Charge =  0 Multiplicity = 1

                         Standard orientation:
 ---------------------------------------------------------------------
 Center     Atomic      Atomic             Coordinates (Angstroms)
 Number     Number       Type             X           Y           Z
 ---------------------------------------------------------------------
      1          6           0       -3.989322   -0.026792    0.094337
      2          6           0       -3.162730   -0.875501    1.060994
      3          6           0       -1.688754   -0.470214    1.091503
      4          1           0       -3.563216   -0.111873   -0.914692
      5          1           0       -3.904672    1.030521    0.381250
      6          1           0       -3.250030   -1.931036    0.773174
      7          1           0       -3.590968   -0.788541    2.067803
      8          1           0       -1.582868    0.574786    1.400312
      9          1           0       -1.239992   -0.574200    0.098326
     10          1           0       -1.116396   -1.089745    1.788961
     11          6           0       -5.464932   -0.419944    0.052689
     12          6           0       -6.291524    0.428765   -0.913968
     13          6           0       -7.765501    0.023479   -0.944477
     14          1           0       -5.549582   -1.477256   -0.234225
     15          1           0       -5.891038   -0.334863    1.061718
     16          1           0       -5.863286    0.341805   -1.920778
     17          1           0       -6.204225    1.484300   -0.626148
     18          1           0       -8.214263    0.127464    0.048699
     19          1           0       -7.871387   -1.021522   -1.253286
     20          1           0       -8.337859    0.643009   -1.641935
     21          6           0        2.196151    2.115616    0.540275
     22          6           0        1.849823    0.818158    0.931656
     23          6           0        2.671696   -0.264903    0.605997
     24          6           0        3.837785   -0.013153   -0.115217
     25          6           0        4.210051    1.267976   -0.519462
     26          6           0        3.373085    2.335996   -0.182759
     27          1           0        1.551838    2.951122    0.797545
     28          1           0        0.936404    0.644031    1.493252
     29          1           0        2.427591   -1.279553    0.896369
     30          1           0        5.126947    1.410192   -1.078474
     31          1           0        3.644564    3.342550   -0.488034
     32          7           0        4.715854   -1.151779   -0.465822
     33          8           0        5.737816   -0.903510   -1.101898
     34          8           0        4.365497   -2.270944   -0.097912
 ---------------------------------------------------------------------

 SCF Done:  E(RHF) =  -669.535453487     A.U. after   15 cycles
 E2 =    -0.2091176082D+01 EUMP2 =    -0.67162662956852D+03

 The electronic state is 1-A.
 Alpha  occ. eigenvalues --  -20.60694 -20.60689 -15.85745 -11.31088 -11.27653
 Alpha  occ. eigenvalues --  -11.27626 -11.27376 -11.26675 -11.26566 -11.22336
 Alpha  occ. eigenvalues --  -11.22155 -11.21993 -11.21981 -11.21828 -11.21385
 Alpha  occ. eigenvalues --   -1.59770  -1.39324  -1.19250  -1.08994  -1.08651
 Alpha  occ. eigenvalues --   -1.04648  -1.04137  -0.96625  -0.95492  -0.87672
 Alpha  occ. eigenvalues --   -0.86037  -0.82323  -0.80225  -0.78774  -0.77364
 Alpha  occ. eigenvalues --   -0.71964  -0.71093  -0.70365  -0.65619  -0.64899
 Alpha  occ. eigenvalues --   -0.64653  -0.62015  -0.61525  -0.59998  -0.58201
 Alpha  occ. eigenvalues --   -0.55909  -0.55161  -0.53460  -0.53119  -0.52950
 Alpha  occ. eigenvalues --   -0.52541  -0.50551  -0.48729  -0.48721  -0.48503
 Alpha  occ. eigenvalues --   -0.47218  -0.46322  -0.46223  -0.44735  -0.44380
 Alpha  occ. eigenvalues --   -0.37234  -0.36238
 Alpha virt. eigenvalues --    0.05146   0.11382   0.16616   0.20745   0.22399
 Alpha virt. eigenvalues --    0.23797   0.25776   0.26140   0.26938   0.28010
 Alpha virt. eigenvalues --    0.28790   0.30473   0.30724   0.31150   0.32109

 Mulliken charges:
               1
     1  C   -0.299093
     2  C   -0.299821
     3  C   -0.483169
     4  H    0.151432
     5  H    0.148139
     6  H    0.156430
     7  H    0.153865
     8  H    0.148166
     9  H    0.162146
    10  H    0.158327
    11  C   -0.298941
    12  C   -0.300004
    13  C   -0.476031
    14  H    0.151373
    15  H    0.150269
    16  H    0.152803
    17  H    0.151465
    18  H    0.155512
    19  H    0.156242
    20  H    0.161245
    21  C   -0.173072
    22  C   -0.223225
    23  C   -0.174324
    24  C    0.158760
    25  C   -0.171589
    26  C   -0.218388
    27  H    0.224896
    28  H    0.237053
    29  H    0.275061
    30  H    0.275111
    31  H    0.222820
    32  N    0.488076
    33  O   -0.460826
    34  O   -0.460708
 Sum of Mulliken charges =  -0.00000

 Dipole moment (field-independent basis, Debye):
    X=             -3.3302    Y=              3.9633    Z=              1.2034  Tot=              5.3147
 Quadrupole moment (field-independent basis, Debye-Ang):
   XX=           -117.6458   YY=            -92.8805   ZZ=            -94.1775
   XY=             17.6558   XZ=              3.2320   YZ=             -1.6776

 Normal termination of Gaussian 16 at Wed May  5 22:00:36 2021.
