 Gaussian 16, Revision A.03,
 Gaussian 16:  EM64L-G16RevA.03 25-Dec-2016

 -------------
 #p 6-31g* mp2
 -------------

 ------------------------------------------------------
 Input file generated by CHIRIPA (05-May-2021 14:57:26)
 ------------------------------------------------------
 Symbolic Z-matrix:
 Charge =  0 Multiplicity = 1

                         Standard orientation:
 ---------------------------------------------------------------------
 Center     Atomic      Atomic             Coordinates (Angstroms)
 Number     Number       Type             X           Y           Z
 ---------------------------------------------------------------------
      1          6           0       -5.425488    1.981643   -0.270598
      2          6           0       -5.929160    0.686422   -0.111732
      3          6           0       -5.061308   -0.402638    0.012085
      4          6           0       -3.689296   -0.159105   -0.027443
      5          6           0       -3.156830    1.119601   -0.184549
      6          6           0       -4.043367    2.193725   -0.306437
      7          1           0       -6.106914    2.821850   -0.366033
      8          1           0       -7.002068    0.518735   -0.083546
      9          1           0       -5.424193   -1.415728    0.136111
     10          1           0       -2.082401    1.255347   -0.208923
     11          1           0       -3.649375    3.198523   -0.429705
     12          7           0       -2.760649   -1.304138    0.102615
     13          8           0       -1.556042   -1.063064    0.064648
     14          8           0       -3.254968   -2.421006    0.240059
     15          6           0        5.564614    1.810939   -0.061131
     16          6           0        4.400142    1.986113    0.693749
     17          6           0        3.439057    0.973088    0.761881
     18          6           0        3.675845   -0.207548    0.059513
     19          6           0        4.825960   -0.412132   -0.701193
     20          6           0        5.773436    0.614485   -0.754969
     21          1           0        6.305922    2.603161   -0.108482
     22          1           0        4.235310    2.914239    1.233617
     23          1           0        2.528671    1.082183    1.338694
     24          1           0        4.962271   -1.348465   -1.228563
     25          1           0        6.676848    0.475663   -1.342014
     26          7           0        2.665590   -1.287187    0.124043
     27          8           0        2.897842   -2.317932   -0.503860
     28          8           0        1.660630   -1.082221    0.801302
 ---------------------------------------------------------------------

 SCF Done:  E(RHF) =  -868.334549488     A.U. after   16 cycles
 E2 =    -0.2600536393D+01 EUMP2 =    -0.87093508588068D+03

 The electronic state is 1-A.
 Alpha  occ. eigenvalues --  -20.59832 -20.59791 -20.59742 -20.59705 -15.84852
 Alpha  occ. eigenvalues --  -15.84809 -11.30634 -11.30583 -11.27261 -11.27242
 Alpha  occ. eigenvalues --  -11.27209 -11.27198 -11.27073 -11.27027 -11.26373
 Alpha  occ. eigenvalues --  -11.26347 -11.26323 -11.26299  -1.58856  -1.58829
 Alpha  occ. eigenvalues --   -1.38407  -1.38364  -1.18847  -1.18798  -1.08164
 Alpha  occ. eigenvalues --   -1.08117  -1.04312  -1.04262  -0.94940  -0.94865
 Alpha  occ. eigenvalues --   -0.85690  -0.85641  -0.81790  -0.81674  -0.76757
 Alpha  occ. eigenvalues --   -0.76673  -0.71204  -0.70846  -0.70196  -0.70181
 Alpha  occ. eigenvalues --   -0.69953  -0.69899  -0.64495  -0.64427  -0.64320
 Alpha  occ. eigenvalues --   -0.64272  -0.61657  -0.61607  -0.54800  -0.54754
 Alpha  occ. eigenvalues --   -0.52619  -0.52569  -0.52411  -0.52362  -0.47955
 Alpha  occ. eigenvalues --   -0.47822  -0.47772  -0.47615  -0.43723  -0.43666
 Alpha  occ. eigenvalues --   -0.36850  -0.36802  -0.35937  -0.35885
 Alpha virt. eigenvalues --    0.05795   0.05860   0.11712   0.11764   0.17209
 Alpha virt. eigenvalues --    0.17281   0.21765   0.21868   0.27634   0.27740
 Alpha virt. eigenvalues --    0.28636   0.28857   0.31227   0.31437   0.32835

 Mulliken charges:
               1
     1  C   -0.172077
     2  C   -0.218483
     3  C   -0.171439
     4  C    0.159284
     5  C   -0.171531
     6  C   -0.218511
     7  H    0.222963
     8  H    0.221594
     9  H    0.275461
    10  H    0.275255
    11  H    0.219903
    12  N    0.487109
    13  O   -0.446367
    14  O   -0.463543
    15  C   -0.172218
    16  C   -0.218703
    17  C   -0.172271
    18  C    0.159647
    19  C   -0.171504
    20  C   -0.218478
    21  H    0.223089
    22  H    0.220254
    23  H    0.274762
    24  H    0.275709
    25  H    0.221733
    26  N    0.487026
    27  O   -0.461815
    28  O   -0.446850
 Sum of Mulliken charges =  -0.00000

 Dipole moment (field-independent basis, Debye):
    X=              0.3117    Y=              7.6184    Z=             -0.6343  Tot=              7.6511
 Quadrupole moment (field-independent basis, Debye-Ang):
   XX=            -52.8756   YY=           -105.4249   ZZ=           -104.5195
   XY=             -0.2219   XZ=             -1.2358   YZ=              1.8617

 Normal termination of Gaussian 16 at Wed May  5 16:31:47 2021.
