 Gaussian 16, Revision A.03,
 Gaussian 16:  EM64L-G16RevA.03 25-Dec-2016

 -------------
 #p 6-31g* mp2
 -------------

 ------------------------------------------------------
 Input file generated by CHIRIPA (05-May-2021 14:57:23)
 ------------------------------------------------------
 Symbolic Z-matrix:
 Charge =  0 Multiplicity = 1

                         Standard orientation:
 ---------------------------------------------------------------------
 Center     Atomic      Atomic             Coordinates (Angstroms)
 Number     Number       Type             X           Y           Z
 ---------------------------------------------------------------------
      1          6           0       -5.806663    0.563210    0.331903
      2          6           0       -4.790401    1.415853    0.775450
      3          6           0       -3.450803    1.129008    0.496621
      4          6           0       -3.162066   -0.024165   -0.231467
      5          6           0       -4.152139   -0.893310   -0.687133
      6          6           0       -5.484856   -0.586623   -0.396689
      7          1           0       -6.844622    0.793745    0.553015
      8          1           0       -5.037372    2.309528    1.341484
      9          1           0       -2.644236    1.771770    0.827868
     10          1           0       -3.874871   -1.776796   -1.249266
     11          1           0       -6.272021   -1.250613   -0.742425
     12          7           0       -1.747536   -0.338338   -0.532799
     13          8           0       -1.519394   -1.360511   -1.176033
     14          8           0       -0.893754    0.443536   -0.120043
     15          6           0        4.182381    2.252988   -0.556519
     16          6           0        4.814333    1.103341   -1.041769
     17          6           0        4.386593   -0.165429   -0.639514
     18          6           0        3.319095   -0.248094    0.253182
     19          6           0        2.669045    0.878655    0.754342
     20          6           0        3.113638    2.137180    0.338410
     21          1           0        4.521205    3.234621   -0.874312
     22          1           0        5.644580    1.190253   -1.736881
     23          1           0        4.857810   -1.071925   -0.999567
     24          1           0        1.844026    0.760131    1.446234
     25          1           0        2.620966    3.028284    0.716898
     26          7           0        2.857345   -1.585861    0.686270
     27          8           0        1.914671   -1.631770    1.473605
     28          8           0        3.446842   -2.563164    0.230190
 ---------------------------------------------------------------------

 SCF Done:  E(RHF) =  -868.337920422     A.U. after   16 cycles
 E2 =    -0.2599580790D+01 EUMP2 =    -0.87093750121125D+03

 The electronic state is 1-A.
 Alpha  occ. eigenvalues --  -20.60679 -20.60628 -20.59466 -20.59421 -15.85708
 Alpha  occ. eigenvalues --  -15.84507 -11.31109 -11.29896 -11.27717 -11.27653
 Alpha  occ. eigenvalues --  -11.27434 -11.26728 -11.26688 -11.26582 -11.26448
 Alpha  occ. eigenvalues --  -11.26384 -11.25625 -11.25558  -1.59704  -1.58507
 Alpha  occ. eigenvalues --   -1.39267  -1.38063  -1.19282  -1.18116  -1.08669
 Alpha  occ. eigenvalues --   -1.07525  -1.04697  -1.03542  -0.95502  -0.94345
 Alpha  occ. eigenvalues --   -0.86094  -0.84948  -0.82344  -0.81192  -0.77383
 Alpha  occ. eigenvalues --   -0.76201  -0.71949  -0.71013  -0.70747  -0.70400
 Alpha  occ. eigenvalues --   -0.69801  -0.69274  -0.64944  -0.64706  -0.63797
 Alpha  occ. eigenvalues --   -0.63589  -0.62050  -0.60892  -0.55199  -0.54114
 Alpha  occ. eigenvalues --   -0.53015  -0.52796  -0.51855  -0.51667  -0.48697
 Alpha  occ. eigenvalues --   -0.48664  -0.47509  -0.47473  -0.44659  -0.43459
 Alpha  occ. eigenvalues --   -0.37260  -0.36300  -0.36132  -0.35117
 Alpha virt. eigenvalues --    0.05165   0.06367   0.11355   0.12527   0.16640
 Alpha virt. eigenvalues --    0.17804   0.21451   0.22475   0.27353   0.28171
 Alpha virt. eigenvalues --    0.28487   0.29417   0.31004   0.31957   0.32562

 Mulliken charges:
               1
     1  C   -0.170874
     2  C   -0.218316
     3  C   -0.170257
     4  C    0.159848
     5  C   -0.170100
     6  C   -0.218412
     7  H    0.225303
     8  H    0.222176
     9  H    0.271347
    10  H    0.277280
    11  H    0.223836
    12  N    0.491997
    13  O   -0.453861
    14  O   -0.468632
    15  C   -0.171140
    16  C   -0.219789
    17  C   -0.170831
    18  C    0.158579
    19  C   -0.154709
    20  C   -0.219858
    21  H    0.220246
    22  H    0.218529
    23  H    0.272572
    24  H    0.279852
    25  H    0.218103
    26  N    0.490488
    27  O   -0.457419
    28  O   -0.465955
 Sum of Mulliken charges =  -0.00000

 Dipole moment (field-independent basis, Debye):
    X=             -3.6941    Y=              5.6437    Z=             -0.4466  Tot=              6.7600
 Quadrupole moment (field-independent basis, Debye-Ang):
   XX=            -61.9993   YY=           -104.1071   ZZ=           -104.6136
   XY=             11.5863   XZ=             -8.2502   YZ=              5.1949

 Normal termination of Gaussian 16 at Thu May  6 11:18:45 2021.
