 Gaussian 16, Revision A.03,
 Gaussian 16:  EM64L-G16RevA.03 25-Dec-2016

 -------------
 #p 6-31g* mp2
 -------------

 ------------------------------------------------------
 Input file generated by CHIRIPA (05-May-2021 14:55:21)
 ------------------------------------------------------
 Symbolic Z-matrix:
 Charge =  0 Multiplicity = 1

                         Standard orientation:
 ---------------------------------------------------------------------
 Center     Atomic      Atomic             Coordinates (Angstroms)
 Number     Number       Type             X           Y           Z
 ---------------------------------------------------------------------
      1          6           0        5.003870    0.447074   -1.413298
      2          6           0        3.900476    1.284767   -1.220133
      3          6           0        2.845295    0.889612   -0.392490
      4          6           0        2.926731   -0.355452    0.229181
      5          6           0        4.012581   -1.212449    0.056621
      6          6           0        5.056309   -0.796668   -0.775428
      7          1           0        5.819111    0.762052   -2.057942
      8          1           0        3.857052    2.251219   -1.714230
      9          1           0        1.979182    1.518376   -0.225395
     10          1           0        4.027420   -2.170113    0.562663
     11          1           0        5.911971   -1.449302   -0.923602
     12          7           0        1.815721   -0.784703    1.107702
     13          8           0        1.911484   -1.886454    1.643996
     14          8           0        0.870185   -0.011272    1.243358
     15          6           0       -3.729122    0.895384    0.380115
     16          6           0       -2.343038    1.435828    0.027018
     17          6           0       -1.853636    2.497212    1.012788
     18          1           0       -4.444300    1.728839    0.408719
     19          1           0       -3.702495    0.471444    1.393506
     20          1           0       -2.371923    1.857378   -0.985938
     21          1           0       -1.631115    0.600964   -0.000936
     22          1           0       -1.796361    2.085201    2.025491
     23          1           0       -2.541380    3.348753    1.034893
     24          1           0       -0.860955    2.869812    0.741470
     25          6           0       -4.232067   -0.166537   -0.596153
     26          6           0       -5.618150   -0.706981   -0.243056
     27          6           0       -6.107553   -1.768365   -1.228827
     28          1           0       -4.258694    0.257403   -1.609544
     29          1           0       -3.516889   -0.999991   -0.624756
     30          1           0       -6.330074    0.127884   -0.215103
     31          1           0       -5.589265   -1.128530    0.769899
     32          1           0       -5.419809   -2.619906   -1.250932
     33          1           0       -6.164827   -1.356354   -2.241529
     34          1           0       -7.100234   -2.140964   -0.957508
 ---------------------------------------------------------------------

 SCF Done:  E(RHF) =  -669.536129297     A.U. after   15 cycles
 E2 =    -0.2091316963D+01 EUMP2 =    -0.67162744626000D+03

 The electronic state is 1-A.
 Alpha  occ. eigenvalues --  -20.60951 -20.60945 -15.85980 -11.31288 -11.27852
 Alpha  occ. eigenvalues --  -11.27848 -11.27589 -11.26857 -11.26847 -11.20982
 Alpha  occ. eigenvalues --  -11.20646 -11.20558 -11.20518 -11.20458 -11.20098
 Alpha  occ. eigenvalues --   -1.60013  -1.39568  -1.19457  -1.08865  -1.07609
 Alpha  occ. eigenvalues --   -1.04852  -1.02709  -0.95712  -0.95185  -0.86253
 Alpha  occ. eigenvalues --   -0.86210  -0.82543  -0.78797  -0.77610  -0.77401
 Alpha  occ. eigenvalues --   -0.72212  -0.71325  -0.70567  -0.65118  -0.64856
 Alpha  occ. eigenvalues --   -0.64217  -0.62201  -0.60070  -0.58580  -0.56802
 Alpha  occ. eigenvalues --   -0.55358  -0.54455  -0.53184  -0.52945  -0.51910
 Alpha  occ. eigenvalues --   -0.51623  -0.49121  -0.48965  -0.48956  -0.47127
 Alpha  occ. eigenvalues --   -0.45848  -0.45143  -0.44946  -0.44631  -0.42985
 Alpha  occ. eigenvalues --   -0.37436  -0.36452
 Alpha virt. eigenvalues --    0.04902   0.11202   0.16378   0.20872   0.23562
 Alpha virt. eigenvalues --    0.24257   0.26733   0.27465   0.27691   0.28449
 Alpha virt. eigenvalues --    0.29186   0.30531   0.31551   0.32229   0.32606

 Mulliken charges:
               1
     1  C   -0.170446
     2  C   -0.218914
     3  C   -0.171430
     4  C    0.157583
     5  C   -0.170628
     6  C   -0.218665
     7  H    0.226005
     8  H    0.224039
     9  H    0.277495
    10  H    0.275742
    11  H    0.223779
    12  N    0.491107
    13  O   -0.459229
    14  O   -0.462826
    15  C   -0.297985
    16  C   -0.306520
    17  C   -0.469098
    18  H    0.144987
    19  H    0.153261
    20  H    0.141688
    21  H    0.172082
    22  H    0.163691
    23  H    0.147156
    24  H    0.151457
    25  C   -0.298286
    26  C   -0.299209
    27  C   -0.475372
    28  H    0.145756
    29  H    0.152424
    30  H    0.149987
    31  H    0.153088
    32  H    0.155550
    33  H    0.153209
    34  H    0.158522
 Sum of Mulliken charges =  -0.00000

 Dipole moment (field-independent basis, Debye):
    X=              4.1639    Y=              1.3697    Z=             -2.9838  Tot=              5.3025
 Quadrupole moment (field-independent basis, Debye-Ang):
   XX=            -72.0387   YY=            -92.9701   ZZ=            -96.8455
   XY=              0.3224   XZ=             -8.3601   YZ=             -0.4309

 Normal termination of Gaussian 16 at Thu May  6 01:24:25 2021.
