 Gaussian 16, Revision A.03,
 Gaussian 16:  EM64L-G16RevA.03 25-Dec-2016

 -------------
 #p 6-31g* mp2
 -------------

 ------------------------------------------------------
 Input file generated by CHIRIPA (05-May-2021 14:55:22)
 ------------------------------------------------------
 Symbolic Z-matrix:
 Charge =  0 Multiplicity = 1

                         Standard orientation:
 ---------------------------------------------------------------------
 Center     Atomic      Atomic             Coordinates (Angstroms)
 Number     Number       Type             X           Y           Z
 ---------------------------------------------------------------------
      1          6           0        1.617568    2.288047    0.619033
      2          6           0        1.829498    1.354471    1.638858
      3          6           0        2.208075    0.043629    1.334030
      4          6           0        2.366429   -0.300982   -0.007408
      5          6           0        2.162666    0.606349   -1.045928
      6          6           0        1.784535    1.911670   -0.717748
      7          1           0        1.323654    3.304196    0.864900
      8          1           0        1.700569    1.643961    2.677904
      9          1           0        2.378662   -0.699245    2.103742
     10          1           0        2.298984    0.288161   -2.072374
     11          1           0        1.620631    2.634587   -1.511834
     12          7           0        2.766975   -1.685789   -0.342476
     13          8           0        2.899904   -1.964392   -1.532160
     14          8           0        2.940411   -2.466377    0.590926
     15          6           0       -2.920057   -0.584648    0.290174
     16          6           0       -3.931138   -1.590419   -0.261302
     17          6           0       -3.870037   -2.941552    0.451789
     18          1           0       -1.908584   -1.003618    0.198903
     19          1           0       -3.103606   -0.442119    1.364135
     20          1           0       -3.746617   -1.729962   -1.334194
     21          1           0       -4.940306   -1.168926   -0.168884
     22          1           0       -4.075750   -2.822758    1.520512
     23          1           0       -2.875280   -3.386982    0.348582
     24          1           0       -4.601092   -3.645325    0.041760
     25          6           0       -2.969001    0.770884   -0.412580
     26          6           0       -1.957921    1.776655    0.138896
     27          6           0       -2.019023    3.127789   -0.574195
     28          1           0       -2.785452    0.628355   -1.486541
     29          1           0       -3.980475    1.189854   -0.321310
     30          1           0       -0.948754    1.355163    0.046478
     31          1           0       -2.142442    1.916199    1.211788
     32          1           0       -3.013780    3.573218   -0.470988
     33          1           0       -1.813309    3.008994   -1.642919
     34          1           0       -1.287967    3.831561   -0.164166
 ---------------------------------------------------------------------

 SCF Done:  E(RHF) =  -669.534202706     A.U. after   15 cycles
 E2 =    -0.2094019043D+01 EUMP2 =    -0.67162822174823D+03

 The electronic state is 1-A.
 Alpha  occ. eigenvalues --  -20.60845 -20.60840 -15.85901 -11.31291 -11.27859
 Alpha  occ. eigenvalues --  -11.27854 -11.27555 -11.26835 -11.26819 -11.21825
 Alpha  occ. eigenvalues --  -11.21743 -11.21614 -11.21588 -11.21466 -11.20983
 Alpha  occ. eigenvalues --   -1.59922  -1.39474  -1.19469  -1.08873  -1.08589
 Alpha  occ. eigenvalues --   -1.04859  -1.03742  -0.96226  -0.95673  -0.87231
 Alpha  occ. eigenvalues --   -0.86249  -0.82505  -0.79811  -0.78401  -0.77552
 Alpha  occ. eigenvalues --   -0.72115  -0.71248  -0.70562  -0.65260  -0.65097
 Alpha  occ. eigenvalues --   -0.64844  -0.62198  -0.61166  -0.59659  -0.57843
 Alpha  occ. eigenvalues --   -0.55517  -0.55343  -0.53282  -0.52942  -0.52891
 Alpha  occ. eigenvalues --   -0.52628  -0.50128  -0.48876  -0.48870  -0.48102
 Alpha  occ. eigenvalues --   -0.46794  -0.45935  -0.45827  -0.44876  -0.43992
 Alpha  occ. eigenvalues --   -0.37318  -0.36465
 Alpha virt. eigenvalues --    0.04953   0.11131   0.16392   0.20356   0.22882
 Alpha virt. eigenvalues --    0.24222   0.26303   0.26513   0.26927   0.27629
 Alpha virt. eigenvalues --    0.28862   0.30141   0.31244   0.31879   0.32460

 Mulliken charges:
               1
     1  C   -0.170477
     2  C   -0.216440
     3  C   -0.170921
     4  C    0.158255
     5  C   -0.171612
     6  C   -0.219210
     7  H    0.226993
     8  H    0.224146
     9  H    0.276186
    10  H    0.275937
    11  H    0.225096
    12  N    0.487992
    13  O   -0.460321
    14  O   -0.460056
    15  C   -0.298451
    16  C   -0.299835
    17  C   -0.476477
    18  H    0.151538
    19  H    0.148071
    20  H    0.153037
    21  H    0.151030
    22  H    0.154095
    23  H    0.159024
    24  H    0.160827
    25  C   -0.297436
    26  C   -0.308102
    27  C   -0.475136
    28  H    0.149357
    29  H    0.148827
    30  H    0.166247
    31  H    0.147580
    32  H    0.158600
    33  H    0.153880
    34  H    0.147755
 Sum of Mulliken charges =  -0.00000

 Dipole moment (field-independent basis, Debye):
    X=             -1.3409    Y=              4.7820    Z=              1.1921  Tot=              5.1075
 Quadrupole moment (field-independent basis, Debye-Ang):
   XX=           -101.9353   YY=            -99.2802   ZZ=            -89.7739
   XY=             12.0128   XZ=              2.5838   YZ=             -0.9777

 Normal termination of Gaussian 16 at Thu May  6 10:57:18 2021.
