 Gaussian 16, Revision A.03,
 Gaussian 16:  EM64L-G16RevA.03 25-Dec-2016

 -------------
 #p 6-31g* mp2
 -------------

 ------------------------------------------------------
 Input file generated by CHIRIPA (05-May-2021 14:57:21)
 ------------------------------------------------------
 Symbolic Z-matrix:
 Charge =  0 Multiplicity = 1

                         Standard orientation:
 ---------------------------------------------------------------------
 Center     Atomic      Atomic             Coordinates (Angstroms)
 Number     Number       Type             X           Y           Z
 ---------------------------------------------------------------------
      1          6           0       -1.988792    0.904653    0.127474
      2          6           0       -2.190353   -0.474728    0.242367
      3          6           0       -3.475332   -1.015611    0.138332
      4          6           0       -4.540804   -0.144042   -0.081729
      5          6           0       -4.372235    1.234630   -0.200629
      6          6           0       -3.078455    1.753434   -0.093268
      7          1           0       -0.987172    1.316248    0.209583
      8          1           0       -1.345973   -1.136299    0.413810
      9          1           0       -3.659830   -2.079635    0.223371
     10          1           0       -5.233627    1.868867   -0.371404
     11          1           0       -2.924904    2.825083   -0.182905
     12          7           0       -5.905811   -0.704963   -0.193626
     13          8           0       -6.827884    0.084207   -0.387608
     14          8           0       -6.027785   -1.923163   -0.085231
     15          6           0        2.207127    1.083476    0.987679
     16          6           0        2.996945    0.260593    1.797354
     17          6           0        4.167378   -0.316473    1.295726
     18          6           0        4.519696   -0.048163   -0.026080
     19          6           0        3.753757    0.767358   -0.857676
     20          6           0        2.587383    1.333790   -0.334920
     21          1           0        1.299483    1.527624    1.385562
     22          1           0        2.704088    0.064447    2.824877
     23          1           0        4.797338   -0.957348    1.900580
     24          1           0        4.071557    0.944452   -1.878000
     25          1           0        1.975940    1.972450   -0.966027
     26          7           0        5.756632   -0.653448   -0.568315
     27          8           0        6.045188   -0.401504   -1.736175
     28          8           0        6.414165   -1.368356    0.184808
 ---------------------------------------------------------------------

 SCF Done:  E(RHF) =  -868.336511767     A.U. after   16 cycles
 E2 =    -0.2599962569D+01 EUMP2 =    -0.87093647433593D+03

 The electronic state is 1-A.
 Alpha  occ. eigenvalues --  -20.61427 -20.61422 -20.61243 -20.61237 -15.86486
 Alpha  occ. eigenvalues --  -15.86299 -11.32049 -11.31806 -11.28626 -11.28600
 Alpha  occ. eigenvalues --  -11.28526 -11.28374 -11.28359 -11.28276 -11.27770
 Alpha  occ. eigenvalues --  -11.27701 -11.27483 -11.27450  -1.60498  -1.60314
 Alpha  occ. eigenvalues --   -1.40046  -1.39863  -1.20248  -1.19998  -1.09640
 Alpha  occ. eigenvalues --   -1.09395  -1.05665  -1.05410  -0.96440  -0.96199
 Alpha  occ. eigenvalues --   -0.87073  -0.86815  -0.83252  -0.83017  -0.78235
 Alpha  occ. eigenvalues --   -0.78018  -0.72702  -0.72516  -0.71823  -0.71638
 Alpha  occ. eigenvalues --   -0.71602  -0.71025  -0.65909  -0.65685  -0.65658
 Alpha  occ. eigenvalues --   -0.65414  -0.62994  -0.62742  -0.56463  -0.55821
 Alpha  occ. eigenvalues --   -0.53993  -0.53765  -0.53742  -0.53508  -0.49477
 Alpha  occ. eigenvalues --   -0.49443  -0.49287  -0.49261  -0.45406  -0.45237
 Alpha  occ. eigenvalues --   -0.38290  -0.38033  -0.37256  -0.37000
 Alpha virt. eigenvalues --    0.04255   0.04492   0.10334   0.10642   0.15570
 Alpha virt. eigenvalues --    0.15917   0.18115   0.21879   0.24971   0.26464
 Alpha virt. eigenvalues --    0.26804   0.29334   0.29905   0.31070   0.31965

 Mulliken charges:
               1
     1  C   -0.174170
     2  C   -0.219532
     3  C   -0.170234
     4  C    0.159490
     5  C   -0.170169
     6  C   -0.218587
     7  H    0.216938
     8  H    0.225588
     9  H    0.277936
    10  H    0.277448
    11  H    0.223296
    12  N    0.487859
    13  O   -0.458885
    14  O   -0.458504
    15  C   -0.177970
    16  C   -0.218392
    17  C   -0.170267
    18  C    0.159679
    19  C   -0.169873
    20  C   -0.218785
    21  H    0.220383
    22  H    0.226244
    23  H    0.278615
    24  H    0.278514
    25  H    0.221503
    26  N    0.487865
    27  O   -0.458082
    28  O   -0.457906
 Sum of Mulliken charges =  -0.00000

 Dipole moment (field-independent basis, Debye):
    X=              0.5426    Y=              3.9561    Z=              2.2705  Tot=              4.5935
 Quadrupole moment (field-independent basis, Debye-Ang):
   XX=           -186.1992   YY=           -101.1284   ZZ=           -101.8754
   XY=             -2.2565   XZ=              7.7881   YZ=             -3.5029

 Normal termination of Gaussian 16 at Thu May  6 01:41:46 2021.
