 Gaussian 16, Revision A.03,
 Gaussian 16:  EM64L-G16RevA.03 25-Dec-2016

 -------------
 #p 6-31g* mp2
 -------------

 ------------------------------------------------------
 Input file generated by CHIRIPA (05-May-2021 14:55:25)
 ------------------------------------------------------
 Symbolic Z-matrix:
 Charge =  0 Multiplicity = 1

                         Standard orientation:
 ---------------------------------------------------------------------
 Center     Atomic      Atomic             Coordinates (Angstroms)
 Number     Number       Type             X           Y           Z
 ---------------------------------------------------------------------
      1          6           0       -4.454426    2.059844    0.025025
      2          6           0       -5.052799    0.795660    0.007484
      3          6           0       -4.267979   -0.361084   -0.015951
      4          6           0       -2.881525   -0.216146   -0.021245
      5          6           0       -2.255657    1.029361   -0.004164
      6          6           0       -3.060222    2.172461    0.019156
      7          1           0       -5.071762    2.953131    0.043186
      8          1           0       -6.135314    0.705172    0.011991
      9          1           0       -4.705019   -1.352154   -0.029881
     10          1           0       -1.173994    1.087661   -0.009198
     11          1           0       -2.592771    3.152946    0.032742
     12          7           0       -2.040219   -1.433517   -0.045994
     13          8           0       -0.820911   -1.278893   -0.050201
     14          8           0       -2.616041   -2.519265   -0.060716
     15          6           0        3.776403    0.731825    0.283750
     16          6           0        4.674410    1.752480   -0.416129
     17          6           0        4.484009    3.172229    0.118525
     18          1           0        2.726745    1.032868    0.163188
     19          1           0        3.984682    0.749389    1.362502
     20          1           0        4.465478    1.732014   -1.493415
     21          1           0        5.722042    1.448868   -0.294050
     22          1           0        4.711875    3.214724    1.188512
     23          1           0        3.448171    3.499477   -0.017667
     24          1           0        5.135567    3.885609   -0.395694
     25          6           0        3.955263   -0.692123   -0.239805
     26          6           0        3.057256   -1.712778    0.460074
     27          6           0        3.247658   -3.132527   -0.074580
     28          1           0        3.746985   -0.709688   -1.318557
     29          1           0        5.004922   -0.993166   -0.119243
     30          1           0        2.009624   -1.409167    0.337995
     31          1           0        3.266189   -1.692312    1.537360
     32          1           0        4.283496   -3.459775    0.061612
     33          1           0        3.019791   -3.175022   -1.144567
     34          1           0        2.596099   -3.845907    0.439638
 ---------------------------------------------------------------------

 SCF Done:  E(RHF) =  -669.536087139     A.U. after   15 cycles
 E2 =    -0.2090942617D+01 EUMP2 =    -0.67162702975604D+03

 The electronic state is 1-A.
 Alpha  occ. eigenvalues --  -20.60946 -20.60936 -15.85993 -11.31304 -11.27870
 Alpha  occ. eigenvalues --  -11.27863 -11.27602 -11.26873 -11.26864 -11.21259
 Alpha  occ. eigenvalues --  -11.20915 -11.20864 -11.20558 -11.20292 -11.19874
 Alpha  occ. eigenvalues --   -1.60010  -1.39567  -1.19472  -1.08876  -1.07735
 Alpha  occ. eigenvalues --   -1.04868  -1.02775  -0.95721  -0.95274  -0.86300
 Alpha  occ. eigenvalues --   -0.86268  -0.82558  -0.78899  -0.77631  -0.77445
 Alpha  occ. eigenvalues --   -0.72219  -0.71326  -0.70582  -0.65131  -0.64871
 Alpha  occ. eigenvalues --   -0.64365  -0.62217  -0.60160  -0.58692  -0.56843
 Alpha  occ. eigenvalues --   -0.55372  -0.54581  -0.53200  -0.52960  -0.51967
 Alpha  occ. eigenvalues --   -0.51697  -0.49253  -0.48972  -0.48961  -0.47197
 Alpha  occ. eigenvalues --   -0.45940  -0.45047  -0.44984  -0.44830  -0.43045
 Alpha  occ. eigenvalues --   -0.37450  -0.36469
 Alpha virt. eigenvalues --    0.04925   0.11186   0.16426   0.21104   0.23324
 Alpha virt. eigenvalues --    0.25079   0.26201   0.27428   0.27755   0.28560
 Alpha virt. eigenvalues --    0.29038   0.31030   0.32024   0.32201   0.32624

 Mulliken charges:
               1
     1  C   -0.170601
     2  C   -0.218574
     3  C   -0.170546
     4  C    0.157356
     5  C   -0.170494
     6  C   -0.218506
     7  H    0.226075
     8  H    0.223862
     9  H    0.275911
    10  H    0.275094
    11  H    0.223976
    12  N    0.496904
    13  O   -0.468916
    14  O   -0.458841
    15  C   -0.296306
    16  C   -0.299149
    17  C   -0.474455
    18  H    0.146080
    19  H    0.148224
    20  H    0.151156
    21  H    0.151988
    22  H    0.154864
    23  H    0.150480
    24  H    0.159012
    25  C   -0.297433
    26  C   -0.311071
    27  C   -0.473354
    28  H    0.148570
    29  H    0.145993
    30  H    0.179664
    31  H    0.145823
    32  H    0.147770
    33  H    0.154977
    34  H    0.164465
 Sum of Mulliken charges =  -0.00000

 Dipole moment (field-independent basis, Debye):
    X=             -3.2512    Y=              4.2042    Z=              0.0812  Tot=              5.3153
 Quadrupole moment (field-independent basis, Debye-Ang):
   XX=            -74.7885   YY=            -96.7702   ZZ=            -95.3792
   XY=             -9.3697   XZ=              0.3043   YZ=             -0.4926

 Normal termination of Gaussian 16 at Thu May  6 11:06:02 2021.
