 Gaussian 16, Revision A.03,
 Gaussian 16:  EM64L-G16RevA.03 25-Dec-2016

 -------------
 #p 6-31g* mp2
 -------------

 ------------------------------------------------------
 Input file generated by CHIRIPA (05-May-2021 14:55:21)
 ------------------------------------------------------
 Symbolic Z-matrix:
 Charge =  0 Multiplicity = 1

                         Standard orientation:
 ---------------------------------------------------------------------
 Center     Atomic      Atomic             Coordinates (Angstroms)
 Number     Number       Type             X           Y           Z
 ---------------------------------------------------------------------
      1          6           0       -3.535553    1.892982    0.296444
      2          6           0       -4.010808    0.949761   -0.620610
      3          6           0       -3.396878   -0.301038   -0.735243
      4          6           0       -2.305002   -0.576422    0.086500
      5          6           0       -1.808167    0.342290    1.009763
      6          6           0       -2.437686    1.586776    1.107274
      7          1           0       -4.018523    2.862181    0.378843
      8          1           0       -4.863245    1.184818   -1.251596
      9          1           0       -3.744220   -1.049816   -1.436743
     10          1           0       -0.956508    0.079032    1.625222
     11          1           0       -2.066439    2.317348    1.820356
     12          7           0       -1.646811   -1.897245   -0.025793
     13          8           0       -0.686478   -2.115425    0.709594
     14          8           0       -2.103717   -2.689317   -0.847071
     15          6           0        2.637786    1.010544   -0.409375
     16          6           0        3.083333    2.416531   -0.006046
     17          6           0        2.170209    3.508768   -0.563734
     18          1           0        2.609126    0.942194   -1.505483
     19          1           0        1.609685    0.844584   -0.058863
     20          1           0        4.110782    2.579286   -0.356008
     21          1           0        3.111121    2.481482    1.089228
     22          1           0        1.144854    3.374353   -0.204315
     23          1           0        2.150197    3.472713   -1.657763
     24          1           0        2.507073    4.505810   -0.263254
     25          6           0        3.540723   -0.092184    0.140556
     26          6           0        3.095176   -1.498171   -0.262774
     27          6           0        4.008300   -2.590408    0.294914
     28          1           0        4.568824    0.073776   -0.209957
     29          1           0        3.569383   -0.023836    1.236664
     30          1           0        3.067389   -1.563122   -1.358048
     31          1           0        2.067726   -1.660926    0.087190
     32          1           0        4.028312   -2.554352    1.388943
     33          1           0        5.033654   -2.455993   -0.064504
     34          1           0        3.671436   -3.587450   -0.005566
 ---------------------------------------------------------------------

 SCF Done:  E(RHF) =  -669.536482560     A.U. after   15 cycles
 E2 =    -0.2091891904D+01 EUMP2 =    -0.67162837446464D+03

 The electronic state is 1-A.
 Alpha  occ. eigenvalues --  -20.60988 -20.60977 -15.86007 -11.31323 -11.27894
 Alpha  occ. eigenvalues --  -11.27876 -11.27612 -11.26894 -11.26879 -11.21549
 Alpha  occ. eigenvalues --  -11.21192 -11.21132 -11.20846 -11.20560 -11.20189
 Alpha  occ. eigenvalues --   -1.60036  -1.39594  -1.19488  -1.08891  -1.08019
 Alpha  occ. eigenvalues --   -1.04884  -1.03066  -0.95736  -0.95568  -0.86592
 Alpha  occ. eigenvalues --   -0.86283  -0.82573  -0.79182  -0.77778  -0.77595
 Alpha  occ. eigenvalues --   -0.72234  -0.71342  -0.70594  -0.65147  -0.64889
 Alpha  occ. eigenvalues --   -0.64656  -0.62232  -0.60460  -0.58978  -0.57132
 Alpha  occ. eigenvalues --   -0.55385  -0.54880  -0.53209  -0.52975  -0.52263
 Alpha  occ. eigenvalues --   -0.51982  -0.49546  -0.48998  -0.48988  -0.47486
 Alpha  occ. eigenvalues --   -0.46243  -0.45483  -0.45282  -0.44649  -0.43332
 Alpha  occ. eigenvalues --   -0.37456  -0.36477
 Alpha virt. eigenvalues --    0.04842   0.11102   0.16309   0.20883   0.23080
 Alpha virt. eigenvalues --    0.24764   0.26056   0.27426   0.27593   0.28257
 Alpha virt. eigenvalues --    0.29075   0.30780   0.31849   0.32009   0.32624

 Mulliken charges:
               1
     1  C   -0.170329
     2  C   -0.218258
     3  C   -0.170586
     4  C    0.158566
     5  C   -0.170989
     6  C   -0.218985
     7  H    0.226362
     8  H    0.224063
     9  H    0.275988
    10  H    0.275765
    11  H    0.224260
    12  N    0.489665
    13  O   -0.461223
    14  O   -0.458091
    15  C   -0.297955
    16  C   -0.299238
    17  C   -0.474581
    18  H    0.150176
    19  H    0.145531
    20  H    0.153068
    21  H    0.149240
    22  H    0.149348
    23  H    0.156379
    24  H    0.158798
    25  C   -0.297364
    26  C   -0.311708
    27  C   -0.474545
    28  H    0.146949
    29  H    0.146790
    30  H    0.148570
    31  H    0.177193
    32  H    0.153305
    33  H    0.149642
    34  H    0.164195
 Sum of Mulliken charges =  -0.00000

 Dipole moment (field-independent basis, Debye):
    X=             -2.5464    Y=              4.5076    Z=              0.3711  Tot=              5.1904
 Quadrupole moment (field-independent basis, Debye-Ang):
   XX=            -82.7874   YY=           -101.2786   ZZ=            -92.0016
   XY=             -8.1925   XZ=              0.9272   YZ=              1.5315

 Normal termination of Gaussian 16 at Thu May  6 20:44:31 2021.
