 Gaussian 16, Revision A.03,
 Gaussian 16:  EM64L-G16RevA.03 25-Dec-2016

 -------------
 #p 6-31g* mp2
 -------------

 ------------------------------------------------------
 Input file generated by CHIRIPA (05-May-2021 14:51:07)
 ------------------------------------------------------
 Symbolic Z-matrix:
 Charge =  0 Multiplicity = 1

                         Standard orientation:
 ---------------------------------------------------------------------
 Center     Atomic      Atomic             Coordinates (Angstroms)
 Number     Number       Type             X           Y           Z
 ---------------------------------------------------------------------
      1          6           0       -3.655874    1.053137   -0.059050
      2          6           0       -2.513295    2.062605    0.057025
      3          6           0       -3.006048    3.484866    0.325655
      4          1           0       -4.333049    1.366530   -0.865377
      5          1           0       -4.245423    1.068944    0.868084
      6          1           0       -1.925254    2.043904   -0.869514
      7          1           0       -1.838658    1.746669    0.863043
      8          1           0       -3.575118    3.525364    1.260064
      9          1           0       -3.662206    3.824288   -0.482337
     10          1           0       -2.172879    4.190126    0.405005
     11          6           0       -3.179170   -0.373179   -0.327573
     12          6           0       -4.321748   -1.382647   -0.443647
     13          6           0       -3.828995   -2.804908   -0.712277
     14          1           0       -2.589620   -0.388986   -1.254706
     15          1           0       -2.501994   -0.686572    0.478755
     16          1           0       -4.996386   -1.066711   -1.249665
     17          1           0       -4.909789   -1.363946    0.482891
     18          1           0       -3.172837   -3.144330    0.095715
     19          1           0       -3.259926   -2.845406   -1.646686
     20          1           0       -4.662165   -3.510168   -0.791627
     21          6           0        3.828653    0.072189   -0.301180
     22          6           0        5.335360   -0.010915   -0.054374
     23          6           0        6.144410    0.818915   -1.051677
     24          1           0        3.611743   -0.266705   -1.323455
     25          1           0        3.512628    1.123163   -0.246623
     26          1           0        5.648216   -1.061562   -0.108009
     27          1           0        5.548687    0.328034    0.967497
     28          1           0        5.860753    1.874756   -0.993866
     29          1           0        5.960847    0.477262   -2.075483
     30          1           0        7.218878    0.745132   -0.856914
     31          6           0        3.006390   -0.752147    0.687802
     32          6           0        1.499684   -0.669043    0.440996
     33          6           0        0.690634   -1.498873    1.438299
     34          1           0        3.322416   -1.803121    0.633245
     35          1           0        3.223301   -0.413253    1.710077
     36          1           0        1.286356   -1.007992   -0.580875
     37          1           0        1.186827    0.381605    0.494632
     38          1           0        0.874197   -1.157220    2.462106
     39          1           0        0.974291   -2.554713    1.380488
     40          1           0       -0.383835   -1.425090    1.243536
 ---------------------------------------------------------------------

 SCF Done:  E(RHF) =  -470.733372685     A.U. after   11 cycles
 E2 =    -0.1582913041D+01 EUMP2 =    -0.47231628572656D+03

 The electronic state is 1-A.
 Alpha  occ. eigenvalues --  -11.21613 -11.21612 -11.21590 -11.21563 -11.21420
 Alpha  occ. eigenvalues --  -11.21385 -11.21360 -11.21326 -11.21083 -11.21076
 Alpha  occ. eigenvalues --  -11.21063 -11.21033  -1.08451  -1.08405  -1.03541
 Alpha  occ. eigenvalues --   -1.03507  -0.96001  -0.95953  -0.87020  -0.86968
 Alpha  occ. eigenvalues --   -0.79621  -0.79550  -0.78276  -0.78211  -0.65093
 Alpha  occ. eigenvalues --   -0.65035  -0.60947  -0.60896  -0.59394  -0.59313
 Alpha  occ. eigenvalues --   -0.57676  -0.57505  -0.55282  -0.55245  -0.52742
 Alpha  occ. eigenvalues --   -0.52659  -0.52456  -0.52313  -0.49933  -0.49898
 Alpha  occ. eigenvalues --   -0.48001  -0.47822  -0.46640  -0.46595  -0.45804
 Alpha  occ. eigenvalues --   -0.45768  -0.45703  -0.45666  -0.43801  -0.43718
 Alpha virt. eigenvalues --    0.21024   0.23118   0.23808   0.24128   0.26017
 Alpha virt. eigenvalues --    0.26646   0.26757   0.27747   0.27958   0.29244
 Alpha virt. eigenvalues --    0.30173   0.31338   0.31703   0.31868   0.32326

 Mulliken charges:
               1
     1  C   -0.297673
     2  C   -0.300877
     3  C   -0.475709
     4  H    0.149827
     5  H    0.149461
     6  H    0.152416
     7  H    0.152753
     8  H    0.155216
     9  H    0.155295
    10  H    0.160139
    11  C   -0.306543
    12  C   -0.299071
    13  C   -0.476235
    14  H    0.149786
    15  H    0.157241
    16  H    0.152060
    17  H    0.151894
    18  H    0.155593
    19  H    0.155144
    20  H    0.160392
    21  C   -0.298210
    22  C   -0.299628
    23  C   -0.475690
    24  H    0.149573
    25  H    0.149523
    26  H    0.151915
    27  H    0.151897
    28  H    0.155151
    29  H    0.155138
    30  H    0.160212
    31  C   -0.298428
    32  C   -0.299421
    33  C   -0.483403
    34  H    0.149479
    35  H    0.149452
    36  H    0.152107
    37  H    0.152939
    38  H    0.154533
    39  H    0.155197
    40  H    0.166554
 Sum of Mulliken charges =  -0.00000

 Dipole moment (field-independent basis, Debye):
    X=             -0.0232    Y=              0.0049    Z=             -0.0121  Tot=              0.0266
 Quadrupole moment (field-independent basis, Debye-Ang):
   XX=            -85.3636   YY=            -85.5781   ZZ=            -83.8342
   XY=             -0.2266   XZ=              0.5057   YZ=              0.5013

 Normal termination of Gaussian 16 at Wed May  5 21:16:27 2021.
