 Gaussian 16, Revision A.03,
 Gaussian 16:  EM64L-G16RevA.03 25-Dec-2016

 -------------
 #p 6-31g* mp2
 -------------

 ------------------------------------------------------
 Input file generated by CHIRIPA (05-May-2021 14:57:27)
 ------------------------------------------------------
 Symbolic Z-matrix:
 Charge =  0 Multiplicity = 1

                         Standard orientation:
 ---------------------------------------------------------------------
 Center     Atomic      Atomic             Coordinates (Angstroms)
 Number     Number       Type             X           Y           Z
 ---------------------------------------------------------------------
      1          6           0       -5.410948   -0.231990    0.663025
      2          6           0       -5.004598   -0.892365   -0.501151
      3          6           0       -3.669062   -0.849605   -0.912322
      4          6           0       -2.762407   -0.133917   -0.131900
      5          6           0       -3.136471    0.534347    1.032913
      6          6           0       -4.477234    0.478007    1.424998
      7          1           0       -6.450454   -0.270481    0.975019
      8          1           0       -5.727548   -1.444526   -1.094874
      9          1           0       -3.327309   -1.351744   -1.809250
     10          1           0       -2.392772    1.076679    1.604057
     11          1           0       -4.789962    0.991818    2.329567
     12          7           0       -1.345769   -0.081460   -0.557085
     13          8           0       -0.566446    0.555891    0.147952
     14          8           0       -1.041554   -0.678689   -1.587331
     15          6           0        3.958511   -2.074449    0.785797
     16          6           0        3.720610   -1.823713   -0.569583
     17          6           0        3.187524   -0.598909   -0.982166
     18          6           0        2.902824    0.356895   -0.008167
     19          6           0        3.128608    0.137008    1.349758
     20          6           0        3.662273   -1.095015    1.739460
     21          1           0        4.372851   -3.028710    1.097415
     22          1           0        3.949706   -2.582501   -1.312416
     23          1           0        2.993428   -0.378390   -2.024815
     24          1           0        2.890051    0.912926    2.067016
     25          1           0        3.845991   -1.286973    2.792763
     26          7           0        2.338162    1.657361   -0.432839
     27          8           0        2.095940    2.482946    0.444871
     28          8           0        2.148496    1.826456   -1.635365
 ---------------------------------------------------------------------

 SCF Done:  E(RHF) =  -868.338612355     A.U. after   16 cycles
 E2 =    -0.2601362098D+01 EUMP2 =    -0.87093997445228D+03

 The electronic state is 1-A.
 Alpha  occ. eigenvalues --  -20.60695 -20.60647 -20.59000 -20.58971 -15.85690
 Alpha  occ. eigenvalues --  -15.84059 -11.31034 -11.29620 -11.27616 -11.27574
 Alpha  occ. eigenvalues --  -11.27359 -11.26629 -11.26603 -11.26288 -11.26212
 Alpha  occ. eigenvalues --  -11.26145 -11.25433 -11.25376  -1.59720  -1.58009
 Alpha  occ. eigenvalues --   -1.39278  -1.37587  -1.19206  -1.17842  -1.08614
 Alpha  occ. eigenvalues --   -1.07210  -1.04606  -1.03323  -0.95456  -0.94021
 Alpha  occ. eigenvalues --   -0.86007  -0.84713  -0.82293  -0.80891  -0.77326
 Alpha  occ. eigenvalues --   -0.75867  -0.72061  -0.71017  -0.70344  -0.70318
 Alpha  occ. eigenvalues --   -0.69125  -0.69032  -0.64859  -0.64612  -0.63539
 Alpha  occ. eigenvalues --   -0.63387  -0.61950  -0.60690  -0.55121  -0.53885
 Alpha  occ. eigenvalues --   -0.52937  -0.52701  -0.51610  -0.51460  -0.48712
 Alpha  occ. eigenvalues --   -0.48667  -0.47090  -0.47045  -0.44674  -0.42988
 Alpha  occ. eigenvalues --   -0.37193  -0.36208  -0.35812  -0.34929
 Alpha virt. eigenvalues --    0.05211   0.06789   0.11448   0.12725   0.16699
 Alpha virt. eigenvalues --    0.18168   0.21572   0.22624   0.27483   0.28474
 Alpha virt. eigenvalues --    0.28496   0.29568   0.31123   0.32095   0.32732

 Mulliken charges:
               1
     1  C   -0.170733
     2  C   -0.218790
     3  C   -0.170571
     4  C    0.158355
     5  C   -0.170306
     6  C   -0.218819
     7  H    0.225063
     8  H    0.222704
     9  H    0.274860
    10  H    0.278687
    11  H    0.223505
    12  N    0.492766
    13  O   -0.462934
    14  O   -0.461057
    15  C   -0.173023
    16  C   -0.219572
    17  C   -0.164225
    18  C    0.172158
    19  C   -0.169540
    20  C   -0.220269
    21  H    0.218806
    22  H    0.218301
    23  H    0.276009
    24  H    0.270817
    25  H    0.216283
    26  N    0.501400
    27  O   -0.467543
    28  O   -0.462332
 Sum of Mulliken charges =  -0.00000

 Dipole moment (field-independent basis, Debye):
    X=             -3.3495    Y=             -4.5895    Z=              2.8374  Tot=              6.3509
 Quadrupole moment (field-independent basis, Debye-Ang):
   XX=            -68.3435   YY=           -107.8352   ZZ=            -98.1200
   XY=            -10.5105   XZ=              1.1187   YZ=              4.8427

 Normal termination of Gaussian 16 at Thu May  6 14:50:40 2021.
