 Gaussian 16, Revision A.03,
 Gaussian 16:  EM64L-G16RevA.03 25-Dec-2016

 -------------
 #p 6-31g* mp2
 -------------

 ------------------------------------------------------
 Input file generated by CHIRIPA (05-May-2021 14:53:16)
 ------------------------------------------------------
 Symbolic Z-matrix:
 Charge =  0 Multiplicity = 1

                         Standard orientation:
 ---------------------------------------------------------------------
 Center     Atomic      Atomic             Coordinates (Angstroms)
 Number     Number       Type             X           Y           Z
 ---------------------------------------------------------------------
      1          6           0        4.915962   -0.168534    0.272659
      2          6           0        6.156168   -0.095472   -0.618708
      3          6           0        7.457241   -0.036966    0.182279
      4          1           0        4.899099    0.704847    0.938891
      5          1           0        4.989520   -1.053723    0.919516
      6          1           0        6.079638    0.788553   -1.264663
      7          1           0        6.169979   -0.969031   -1.283028
      8          1           0        7.560380   -0.924492    0.814941
      9          1           0        7.469525    0.843079    0.833411
     10          1           0        8.331116    0.014816   -0.474623
     11          6           0        3.607475   -0.227576   -0.513538
     12          6           0        2.367269   -0.300638    0.377829
     13          6           0        1.066197   -0.359144   -0.423158
     14          1           0        3.533917    0.657613   -1.160395
     15          1           0        3.624338   -1.100958   -1.179770
     16          1           0        2.353458    0.572921    1.042149
     17          1           0        2.443800   -1.184663    1.023784
     18          1           0        1.053912   -1.239189   -1.074290
     19          1           0        0.963057    0.528382   -1.055820
     20          1           0        0.192321   -0.410926    0.233744
     21          6           0       -4.400882   -2.120518   -0.108977
     22          6           0       -4.907674   -1.040454   -0.839145
     23          6           0       -4.321987    0.224674   -0.734420
     24          6           0       -3.225887    0.374693    0.113725
     25          6           0       -2.697963   -0.681863    0.854182
     26          6           0       -3.299585   -1.938098    0.733869
     27          1           0       -4.862046   -3.099846   -0.196384
     28          1           0       -5.762849   -1.179191   -1.494487
     29          1           0       -4.694040    1.078064   -1.288244
     30          1           0       -1.844362   -0.512640    1.499276
     31          1           0       -2.903877   -2.775083    1.302126
     32          7           0       -2.597412    1.709320    0.232844
     33          8           0       -1.632693    1.815378    0.986969
     34          8           0       -3.081432    2.624072   -0.430172
 ---------------------------------------------------------------------

 SCF Done:  E(RHF) =  -669.535162750     A.U. after   15 cycles
 E2 =    -0.2092033319D+01 EUMP2 =    -0.67162719606921D+03

 The electronic state is 1-A.
 Alpha  occ. eigenvalues --  -20.60826 -20.60809 -15.85855 -11.31215 -11.27786
 Alpha  occ. eigenvalues --  -11.27778 -11.27523 -11.26799 -11.26790 -11.21364
 Alpha  occ. eigenvalues --  -11.21214 -11.21110 -11.21032 -11.20867 -11.20638
 Alpha  occ. eigenvalues --   -1.59883  -1.39439  -1.19389  -1.08783  -1.08122
 Alpha  occ. eigenvalues --   -1.04796  -1.03216  -0.95702  -0.95594  -0.86707
 Alpha  occ. eigenvalues --   -0.86186  -0.82455  -0.79292  -0.77936  -0.77507
 Alpha  occ. eigenvalues --   -0.72083  -0.71199  -0.70512  -0.65045  -0.64812
 Alpha  occ. eigenvalues --   -0.64746  -0.62185  -0.60602  -0.59044  -0.57290
 Alpha  occ. eigenvalues --   -0.55297  -0.54947  -0.53166  -0.52943  -0.52287
 Alpha  occ. eigenvalues --   -0.52077  -0.49608  -0.48842  -0.48834  -0.47600
 Alpha  occ. eigenvalues --   -0.46314  -0.45478  -0.45399  -0.44837  -0.43449
 Alpha  occ. eigenvalues --   -0.37358  -0.36370
 Alpha virt. eigenvalues --    0.05005   0.11171   0.16521   0.21137   0.23178
 Alpha virt. eigenvalues --    0.24420   0.26823   0.26967   0.27765   0.27889
 Alpha virt. eigenvalues --    0.28952   0.30523   0.31621   0.31727   0.32165

 Mulliken charges:
               1
     1  C   -0.298203
     2  C   -0.299489
     3  C   -0.475580
     4  H    0.151320
     5  H    0.147627
     6  H    0.152722
     7  H    0.150706
     8  H    0.154203
     9  H    0.155777
    10  H    0.159590
    11  C   -0.298573
    12  C   -0.300045
    13  C   -0.476543
    14  H    0.151800
    15  H    0.147062
    16  H    0.159515
    17  H    0.145858
    18  H    0.148185
    19  H    0.161807
    20  H    0.158709
    21  C   -0.170718
    22  C   -0.218231
    23  C   -0.171020
    24  C    0.160523
    25  C   -0.170096
    26  C   -0.219135
    27  H    0.225712
    28  H    0.223555
    29  H    0.275645
    30  H    0.275432
    31  H    0.223726
    32  N    0.488577
    33  O   -0.460387
    34  O   -0.460029
 Sum of Mulliken charges =  -0.00000

 Dipole moment (field-independent basis, Debye):
    X=             -2.3143    Y=             -4.5933    Z=             -0.4162  Tot=              5.1602
 Quadrupole moment (field-independent basis, Debye-Ang):
   XX=            -79.8838   YY=            -97.1516   ZZ=            -93.5068
   XY=             13.3755   XZ=              3.2967   YZ=             -2.1428

 Normal termination of Gaussian 16 at Wed May  5 17:11:27 2021.
