 Gaussian 16, Revision A.03,
 Gaussian 16:  EM64L-G16RevA.03 25-Dec-2016

 -------------
 #p 6-31g* mp2
 -------------

 ------------------------------------------------------
 Input file generated by CHIRIPA (05-May-2021 14:51:08)
 ------------------------------------------------------
 Symbolic Z-matrix:
 Charge =  0 Multiplicity = 1

                         Standard orientation:
 ---------------------------------------------------------------------
 Center     Atomic      Atomic             Coordinates (Angstroms)
 Number     Number       Type             X           Y           Z
 ---------------------------------------------------------------------
      1          6           0       -4.051994    0.205486   -0.122016
      2          6           0       -5.508444   -0.260063   -0.120843
      3          6           0       -6.478681    0.832571   -0.570936
      4          1           0       -3.952636    1.079770    0.535783
      5          1           0       -3.782887    0.542522   -1.132650
      6          1           0       -5.774309   -0.597417    0.889169
      7          1           0       -5.604308   -1.133458   -0.778572
      8          1           0       -6.241450    1.163700   -1.587143
      9          1           0       -6.412417    1.702787    0.090074
     10          1           0       -7.514186    0.478284   -0.562616
     11          6           0       -3.070011   -0.875749    0.325611
     12          6           0       -1.613561   -0.410200    0.324438
     13          6           0       -0.643324   -1.502835    0.774531
     14          1           0       -3.339118   -1.212786    1.336245
     15          1           0       -3.169368   -1.750034   -0.332188
     16          1           0       -1.517697    0.463195    0.982167
     17          1           0       -1.347696   -0.072846   -0.685574
     18          1           0       -0.709588   -2.373051    0.113521
     19          1           0       -0.880555   -1.833964    1.790738
     20          1           0        0.392181   -1.148547    0.766211
     21          6           0        3.860966   -0.248817   -0.492257
     22          6           0        3.710657   -1.594334    0.218360
     23          6           0        4.315640   -2.752807   -0.575193
     24          1           0        3.383319   -0.307565   -1.479853
     25          1           0        4.927354   -0.054028   -0.671894
     26          1           0        2.644959   -1.785882    0.397841
     27          1           0        4.188551   -1.532314    1.204458
     28          1           0        5.385032   -2.588298   -0.742336
     29          1           0        3.832671   -2.843306   -1.553536
     30          1           0        4.197065   -3.705088   -0.048923
     31          6           0        3.261039    0.919080    0.288662
     32          6           0        3.411348    2.264597   -0.421956
     33          6           0        2.806365    3.423071    0.371599
     34          1           0        2.194651    0.724291    0.468299
     35          1           0        3.738686    0.977830    1.276258
     36          1           0        2.933455    2.202578   -1.408052
     37          1           0        4.477045    2.456145   -0.601436
     38          1           0        3.289334    3.513570    1.349940
     39          1           0        1.736973    3.258561    0.538741
     40          1           0        2.924939    4.375352   -0.154671
 ---------------------------------------------------------------------

 SCF Done:  E(RHF) =  -470.733112847     A.U. after   11 cycles
 E2 =    -0.1583051140D+01 EUMP2 =    -0.47231616398701D+03

 The electronic state is 1-A.
 Alpha  occ. eigenvalues --  -11.21666 -11.21625 -11.21600 -11.21549 -11.21442
 Alpha  occ. eigenvalues --  -11.21402 -11.21382 -11.21340 -11.21114 -11.21089
 Alpha  occ. eigenvalues --  -11.21064 -11.21040  -1.08472  -1.08420  -1.03574
 Alpha  occ. eigenvalues --   -1.03509  -0.96024  -0.95963  -0.87046  -0.86976
 Alpha  occ. eigenvalues --   -0.79662  -0.79554  -0.78281  -0.78241  -0.65103
 Alpha  occ. eigenvalues --   -0.65076  -0.60977  -0.60915  -0.59443  -0.59285
 Alpha  occ. eigenvalues --   -0.57655  -0.57559  -0.55303  -0.55250  -0.52805
 Alpha  occ. eigenvalues --   -0.52616  -0.52444  -0.52386  -0.49966  -0.49898
 Alpha  occ. eigenvalues --   -0.47996  -0.47871  -0.46674  -0.46604  -0.45823
 Alpha  occ. eigenvalues --   -0.45771  -0.45748  -0.45686  -0.43795  -0.43716
 Alpha virt. eigenvalues --    0.20919   0.23079   0.24087   0.24235   0.25966
 Alpha virt. eigenvalues --    0.26611   0.27077   0.27463   0.27889   0.29114
 Alpha virt. eigenvalues --    0.30494   0.31386   0.31694   0.31940   0.32193

 Mulliken charges:
               1
     1  C   -0.298286
     2  C   -0.299674
     3  C   -0.475732
     4  H    0.149754
     5  H    0.149497
     6  H    0.152020
     7  H    0.151981
     8  H    0.155198
     9  H    0.155253
    10  H    0.160345
    11  C   -0.298560
    12  C   -0.299104
    13  C   -0.486908
    14  H    0.149809
    15  H    0.149801
    16  H    0.151913
    17  H    0.151557
    18  H    0.155296
    19  H    0.156017
    20  H    0.170114
    21  C   -0.297709
    22  C   -0.307507
    23  C   -0.475118
    24  H    0.149353
    25  H    0.149599
    26  H    0.159641
    27  H    0.151715
    28  H    0.154956
    29  H    0.154980
    30  H    0.160347
    31  C   -0.303651
    32  C   -0.299292
    33  C   -0.475844
    34  H    0.153694
    35  H    0.149767
    36  H    0.151955
    37  H    0.152041
    38  H    0.155104
    39  H    0.155437
    40  H    0.160243
 Sum of Mulliken charges =  -0.00000

 Dipole moment (field-independent basis, Debye):
    X=             -0.0195    Y=             -0.0034    Z=              0.0090  Tot=              0.0218
 Quadrupole moment (field-independent basis, Debye-Ang):
   XX=            -84.8330   YY=            -86.0244   ZZ=            -83.8993
   XY=              1.0483   XZ=              0.2636   YZ=              0.1514

 Normal termination of Gaussian 16 at Wed May  5 16:34:59 2021.
