 Gaussian 16, Revision A.03,
 Gaussian 16:  EM64L-G16RevA.03 25-Dec-2016

 -------------
 #p 6-31g* mp2
 -------------

 ------------------------------------------------------
 Input file generated by CHIRIPA (05-May-2021 14:51:09)
 ------------------------------------------------------
 Symbolic Z-matrix:
 Charge =  0 Multiplicity = 1

                         Standard orientation:
 ---------------------------------------------------------------------
 Center     Atomic      Atomic             Coordinates (Angstroms)
 Number     Number       Type             X           Y           Z
 ---------------------------------------------------------------------
      1          6           0       -2.699339   -0.423341   -0.235609
      2          6           0       -3.283849   -1.254085   -1.378499
      3          6           0       -3.042900   -2.753683   -1.202589
      4          1           0       -1.620250   -0.616941   -0.164690
      5          1           0       -3.139925   -0.757543    0.713911
      6          1           0       -2.843321   -0.917482   -2.325731
      7          1           0       -4.361639   -1.058340   -1.446829
      8          1           0       -3.497358   -3.110400   -0.272630
      9          1           0       -1.970413   -2.968742   -1.156527
     10          1           0       -3.468941   -3.328614   -2.030722
     11          6           0       -2.932140    1.077799   -0.397194
     12          6           0       -2.347630    1.908543    0.745696
     13          6           0       -2.588579    3.408141    0.569786
     14          1           0       -2.491554    1.412001   -1.346714
     15          1           0       -4.011229    1.271399   -0.468113
     16          1           0       -1.269840    1.712798    0.814026
     17          1           0       -2.788158    1.571940    1.692928
     18          1           0       -3.661066    3.623200    0.523724
     19          1           0       -2.134121    3.764858   -0.360172
     20          1           0       -2.162539    3.983072    1.397919
     21          6           0        3.093296   -0.259078   -0.391941
     22          6           0        4.215155    0.773496   -0.506868
     23          6           0        4.760119    0.898403   -1.929966
     24          1           0        3.466221   -1.235489   -0.730311
     25          1           0        2.278138    0.017888   -1.074732
     26          1           0        5.027363    0.495420    0.176951
     27          1           0        3.839572    1.747522   -0.168006
     28          1           0        3.966299    1.198831   -2.621483
     29          1           0        5.160839   -0.060386   -2.274568
     30          1           0        5.561097    1.641889   -1.989319
     31          6           0        2.538183   -0.395380    1.024744
     32          6           0        1.416324   -1.427955    1.139671
     33          6           0        0.871360   -1.552861    2.562769
     34          1           0        3.353341   -0.672346    1.707534
     35          1           0        2.165257    0.581030    1.363113
     36          1           0        1.791907   -2.401980    0.800809
     37          1           0        0.604117   -1.149878    0.455852
     38          1           0        0.470640   -0.594073    2.907370
     39          1           0        1.665180   -1.853289    3.254286
     40          1           0        0.070383   -2.296347    2.622122
 ---------------------------------------------------------------------

 SCF Done:  E(RHF) =  -470.733394376     A.U. after   11 cycles
 E2 =    -0.1583268762D+01 EUMP2 =    -0.47231666313814D+03

 The electronic state is 1-A.
 Alpha  occ. eigenvalues --  -11.21656 -11.21629 -11.21617 -11.21610 -11.21438
 Alpha  occ. eigenvalues --  -11.21432 -11.21378 -11.21367 -11.21114 -11.21096
 Alpha  occ. eigenvalues --  -11.21075 -11.21052  -1.08479  -1.08442  -1.03561
 Alpha  occ. eigenvalues --   -1.03544  -0.96011  -0.95987  -0.87024  -0.87006
 Alpha  occ. eigenvalues --   -0.79653  -0.79586  -0.78346  -0.78206  -0.65234
 Alpha  occ. eigenvalues --   -0.64967  -0.60986  -0.60921  -0.59401  -0.59335
 Alpha  occ. eigenvalues --   -0.57643  -0.57576  -0.55331  -0.55244  -0.52701
 Alpha  occ. eigenvalues --   -0.52682  -0.52432  -0.52415  -0.49997  -0.49898
 Alpha  occ. eigenvalues --   -0.47994  -0.47913  -0.46823  -0.46588  -0.46052
 Alpha  occ. eigenvalues --   -0.45779  -0.45771  -0.45321  -0.43813  -0.43800
 Alpha virt. eigenvalues --    0.20052   0.23264   0.23900   0.24113   0.25691
 Alpha virt. eigenvalues --    0.26744   0.27174   0.27862   0.28120   0.29375
 Alpha virt. eigenvalues --    0.30500   0.31511   0.31729   0.31915   0.32403

 Mulliken charges:
               1
     1  C   -0.308121
     2  C   -0.298964
     3  C   -0.476206
     4  H    0.158851
     5  H    0.149876
     6  H    0.151672
     7  H    0.152037
     8  H    0.155131
     9  H    0.155749
    10  H    0.160324
    11  C   -0.297684
    12  C   -0.300269
    13  C   -0.475731
    14  H    0.149152
    15  H    0.149991
    16  H    0.151231
    17  H    0.152436
    18  H    0.155522
    19  H    0.155134
    20  H    0.160302
    21  C   -0.298187
    22  C   -0.299684
    23  C   -0.475716
    24  H    0.149858
    25  H    0.148594
    26  H    0.152131
    27  H    0.151985
    28  H    0.155047
    29  H    0.155255
    30  H    0.160399
    31  C   -0.298072
    32  C   -0.307996
    33  C   -0.475547
    34  H    0.149878
    35  H    0.149542
    36  H    0.152047
    37  H    0.158265
    38  H    0.155915
    39  H    0.154986
    40  H    0.160867
 Sum of Mulliken charges =  -0.00000

 Dipole moment (field-independent basis, Debye):
    X=             -0.0093    Y=             -0.0065    Z=              0.0104  Tot=              0.0154
 Quadrupole moment (field-independent basis, Debye-Ang):
   XX=            -83.7088   YY=            -85.5133   ZZ=            -85.4316
   XY=             -0.4443   XZ=              0.1528   YZ=             -0.0129

 Normal termination of Gaussian 16 at Wed May  5 16:37:10 2021.
