 Gaussian 16, Revision A.03,
 Gaussian 16:  EM64L-G16RevA.03 25-Dec-2016

 -------------
 #p 6-31g* mp2
 -------------

 ------------------------------------------------------
 Input file generated by CHIRIPA (05-May-2021 14:51:09)
 ------------------------------------------------------
 Symbolic Z-matrix:
 Charge =  0 Multiplicity = 1

                         Standard orientation:
 ---------------------------------------------------------------------
 Center     Atomic      Atomic             Coordinates (Angstroms)
 Number     Number       Type             X           Y           Z
 ---------------------------------------------------------------------
      1          6           0       -3.597954    0.272036    0.122289
      2          6           0       -3.238146    1.746462    0.308278
      3          6           0       -4.429962    2.594100    0.754235
      4          1           0       -4.406071    0.188858   -0.617287
      5          1           0       -3.996897   -0.122817    1.066921
      6          1           0       -2.838709    2.138051   -0.636034
      7          1           0       -2.430660    1.826125    1.047355
      8          1           0       -4.825746    2.230659    1.708104
      9          1           0       -5.236113    2.544357    0.015150
     10          1           0       -4.150377    3.644620    0.881122
     11          6           0       -2.416841   -0.588227   -0.323413
     12          6           0       -2.776649   -2.062652   -0.509402
     13          6           0       -1.584833   -2.910291   -0.955359
     14          1           0       -2.017898   -0.193374   -1.268045
     15          1           0       -1.608724   -0.505048    0.416163
     16          1           0       -3.584135   -2.142316   -1.248480
     17          1           0       -3.176086   -2.454242    0.434909
     18          1           0       -0.778681   -2.860548   -0.216275
     19          1           0       -1.189049   -2.546850   -1.909228
     20          1           0       -1.864418   -3.960811   -1.082246
     21          6           0        2.653142   -0.510428   -0.004375
     22          6           0        3.123094   -1.603089    0.956469
     23          6           0        2.405174   -2.934614    0.734145
     24          1           0        1.570056   -0.368745    0.113073
     25          1           0        2.814112   -0.846736   -1.038000
     26          1           0        2.962563   -1.264254    1.987991
     27          1           0        4.205220   -1.742054    0.836856
     28          1           0        2.575245   -3.298632   -0.284269
     29          1           0        1.325527   -2.818117    0.873407
     30          1           0        2.756417   -3.701449    1.431605
     31          6           0        3.361652    0.826619    0.205499
     32          6           0        2.891701    1.919280   -0.755345
     33          6           0        3.609621    3.250804   -0.533021
     34          1           0        3.200683    1.162928    1.239125
     35          1           0        4.444740    0.684936    0.088051
     36          1           0        1.809575    2.058244   -0.635732
     37          1           0        3.052232    1.580444   -1.786866
     38          1           0        4.689267    3.134308   -0.672282
     39          1           0        3.439550    3.614822    0.485393
     40          1           0        3.258377    4.017641   -1.230481
 ---------------------------------------------------------------------

 SCF Done:  E(RHF) =  -470.733295285     A.U. after   11 cycles
 E2 =    -0.1582932509D+01 EUMP2 =    -0.47231622779405D+03

 The electronic state is 1-A.
 Alpha  occ. eigenvalues --  -11.21633 -11.21601 -11.21593 -11.21578 -11.21436
 Alpha  occ. eigenvalues --  -11.21383 -11.21376 -11.21323 -11.21094 -11.21056
 Alpha  occ. eigenvalues --  -11.21055 -11.21016  -1.08453  -1.08410  -1.03548
 Alpha  occ. eigenvalues --   -1.03506  -0.96008  -0.95944  -0.87040  -0.86945
 Alpha  occ. eigenvalues --   -0.79652  -0.79531  -0.78300  -0.78186  -0.65116
 Alpha  occ. eigenvalues --   -0.65013  -0.61026  -0.60841  -0.59374  -0.59313
 Alpha  occ. eigenvalues --   -0.57690  -0.57500  -0.55419  -0.55128  -0.52684
 Alpha  occ. eigenvalues --   -0.52656  -0.52557  -0.52245  -0.50084  -0.49750
 Alpha  occ. eigenvalues --   -0.48081  -0.47750  -0.46751  -0.46493  -0.45988
 Alpha  occ. eigenvalues --   -0.45744  -0.45717  -0.45463  -0.43798  -0.43768
 Alpha virt. eigenvalues --    0.20767   0.23292   0.23365   0.24892   0.25521
 Alpha virt. eigenvalues --    0.26572   0.26916   0.27138   0.28664   0.29356
 Alpha virt. eigenvalues --    0.30264   0.31673   0.31810   0.31859   0.31923

 Mulliken charges:
               1
     1  C   -0.298289
     2  C   -0.299664
     3  C   -0.475712
     4  H    0.149990
     5  H    0.149570
     6  H    0.152066
     7  H    0.151419
     8  H    0.155226
     9  H    0.155325
    10  H    0.160320
    11  C   -0.299529
    12  C   -0.299518
    13  C   -0.481902
    14  H    0.150196
    15  H    0.149325
    16  H    0.152019
    17  H    0.151682
    18  H    0.161561
    19  H    0.155435
    20  H    0.160317
    21  C   -0.300140
    22  C   -0.299581
    23  C   -0.480406
    24  H    0.151532
    25  H    0.149710
    26  H    0.151426
    27  H    0.151998
    28  H    0.156096
    29  H    0.159395
    30  H    0.160258
    31  C   -0.298212
    32  C   -0.299836
    33  C   -0.475663
    34  H    0.149243
    35  H    0.149603
    36  H    0.152577
    37  H    0.151798
    38  H    0.155086
    39  H    0.155103
    40  H    0.160175
 Sum of Mulliken charges =  -0.00000

 Dipole moment (field-independent basis, Debye):
    X=             -0.0046    Y=             -0.0108    Z=             -0.0149  Tot=              0.0190
 Quadrupole moment (field-independent basis, Debye-Ang):
   XX=            -84.9828   YY=            -86.2777   ZZ=            -83.4711
   XY=             -0.1684   XZ=             -0.0414   YZ=             -0.2586

 Normal termination of Gaussian 16 at Wed May  5 19:42:38 2021.
