 Gaussian 16, Revision A.03,
 Gaussian 16:  EM64L-G16RevA.03 25-Dec-2016

 -------------
 #p 6-31g* mp2
 -------------

 ------------------------------------------------------
 Input file generated by CHIRIPA (05-May-2021 14:57:27)
 ------------------------------------------------------
 Symbolic Z-matrix:
 Charge =  0 Multiplicity = 1

                         Standard orientation:
 ---------------------------------------------------------------------
 Center     Atomic      Atomic             Coordinates (Angstroms)
 Number     Number       Type             X           Y           Z
 ---------------------------------------------------------------------
      1          6           0       -6.307598    0.067939    0.355168
      2          6           0       -5.672330    1.061578   -0.396921
      3          6           0       -4.316721    0.949834   -0.720008
      4          6           0       -3.623643   -0.173918   -0.272669
      5          6           0       -4.228408   -1.180719    0.478265
      6          6           0       -5.584883   -1.048070    0.789595
      7          1           0       -7.361004    0.162864    0.601583
      8          1           0       -6.231104    1.929382   -0.735645
      9          1           0       -3.800063    1.704240   -1.300831
     10          1           0       -3.645100   -2.034245    0.801781
     11          1           0       -6.075635   -1.821298    1.373826
     12          7           0       -2.188061   -0.303282   -0.608483
     13          8           0       -1.599658   -1.303055   -0.202438
     14          8           0       -1.678439    0.597545   -1.271380
     15          6           0        1.859897    1.438218    1.060955
     16          6           0        1.850169    0.039574    1.075788
     17          6           0        2.952936   -0.683094    0.610809
     18          6           0        4.053630    0.028308    0.135763
     19          6           0        4.093531    1.421482    0.108099
     20          6           0        2.979573    2.123500    0.578010
     21          1           0        0.998895    1.991583    1.424077
     22          1           0        0.981990   -0.495274    1.450283
     23          1           0        2.972060   -1.766169    0.610922
     24          1           0        4.973464    1.926734   -0.271185
     25          1           0        2.989922    3.209676    0.565300
     26          7           0        5.227004   -0.725818   -0.359099
     27          8           0        6.184484   -0.075507   -0.772577
     28          8           0        5.166995   -1.952933   -0.324125
 ---------------------------------------------------------------------

 SCF Done:  E(RHF) =  -868.339242836     A.U. after   16 cycles
 E2 =    -0.2598741148D+01 EUMP2 =    -0.87093798398423D+03

 The electronic state is 1-A.
 Alpha  occ. eigenvalues --  -20.61692 -20.61666 -20.59838 -20.59828 -15.86710
 Alpha  occ. eigenvalues --  -15.84880 -11.31892 -11.30044 -11.28436 -11.28432
 Alpha  occ. eigenvalues --  -11.28128 -11.27399 -11.27389 -11.26626 -11.26508
 Alpha  occ. eigenvalues --  -11.26283 -11.25639 -11.25420  -1.60750  -1.58914
 Alpha  occ. eigenvalues --   -1.40307  -1.38474  -1.20045  -1.18181  -1.09471
 Alpha  occ. eigenvalues --   -1.07618  -1.05416  -1.03545  -0.96335  -0.94495
 Alpha  occ. eigenvalues --   -0.86821  -0.84962  -0.83171  -0.81327  -0.78245
 Alpha  occ. eigenvalues --   -0.76401  -0.72925  -0.72074  -0.71141  -0.71108
 Alpha  occ. eigenvalues --   -0.70231  -0.69320  -0.65695  -0.65409  -0.63839
 Alpha  occ. eigenvalues --   -0.63544  -0.62763  -0.60903  -0.55912  -0.54087
 Alpha  occ. eigenvalues --   -0.53760  -0.53500  -0.51886  -0.51646  -0.49688
 Alpha  occ. eigenvalues --   -0.49653  -0.47871  -0.47845  -0.45746  -0.43925
 Alpha  occ. eigenvalues --   -0.38013  -0.37013  -0.36139  -0.35116
 Alpha virt. eigenvalues --    0.04246   0.06115   0.10644   0.12529   0.15777
 Alpha virt. eigenvalues --    0.17674   0.20829   0.22603   0.26753   0.27680
 Alpha virt. eigenvalues --    0.28580   0.29365   0.30432   0.31825   0.32229

 Mulliken charges:
               1
     1  C   -0.170045
     2  C   -0.218487
     3  C   -0.171345
     4  C    0.156990
     5  C   -0.171284
     6  C   -0.218421
     7  H    0.227947
     8  H    0.225370
     9  H    0.275888
    10  H    0.275529
    11  H    0.225571
    12  N    0.487179
    13  O   -0.464880
    14  O   -0.457609
    15  C   -0.166632
    16  C   -0.210679
    17  C   -0.171515
    18  C    0.157912
    19  C   -0.172860
    20  C   -0.218389
    21  H    0.221287
    22  H    0.231933
    23  H    0.274526
    24  H    0.271459
    25  H    0.218500
    26  N    0.488224
    27  O   -0.464109
    28  O   -0.462060
 Sum of Mulliken charges =  -0.00000

 Dipole moment (field-independent basis, Debye):
    X=             -9.7111    Y=              3.0513    Z=              2.9072  Tot=             10.5862
 Quadrupole moment (field-independent basis, Debye-Ang):
   XX=           -102.0732   YY=            -97.8767   ZZ=           -105.0596
   XY=             11.7126   XZ=              3.0315   YZ=             -3.5894

 Normal termination of Gaussian 16 at Thu May  6 13:09:19 2021.
