 Gaussian 16, Revision A.03,
 Gaussian 16:  EM64L-G16RevA.03 25-Dec-2016

 -------------
 #p 6-31g* mp2
 -------------

 ------------------------------------------------------
 Input file generated by CHIRIPA (05-May-2021 14:51:07)
 ------------------------------------------------------
 Symbolic Z-matrix:
 Charge =  0 Multiplicity = 1

                         Standard orientation:
 ---------------------------------------------------------------------
 Center     Atomic      Atomic             Coordinates (Angstroms)
 Number     Number       Type             X           Y           Z
 ---------------------------------------------------------------------
      1          6           0        2.519193    0.225215    0.335722
      2          6           0        2.066216    0.841979    1.659505
      3          6           0        0.623335    1.345771    1.613868
      4          1           0        2.414971    0.971427   -0.463810
      5          1           0        1.847811   -0.605421    0.077488
      6          1           0        2.739081    1.670320    1.915861
      7          1           0        2.171709    0.094273    2.456012
      8          1           0       -0.063944    0.525587    1.382466
      9          1           0        0.506652    2.110589    0.839246
     10          1           0        0.320226    1.782734    2.570449
     11          6           0        3.959507   -0.283045    0.365628
     12          6           0        4.412484   -0.899808   -0.958154
     13          6           0        5.855364   -1.403601   -0.912517
     14          1           0        4.630888    0.547592    0.623863
     15          1           0        4.063729   -1.029256    1.165160
     16          1           0        4.306991   -0.152102   -1.754661
     17          1           0        3.739618   -1.728150   -1.214510
     18          1           0        5.972047   -2.168419   -0.137895
     19          1           0        6.542644   -0.583417   -0.681115
     20          1           0        6.158474   -1.840564   -1.869099
     21          6           0       -3.646073   -0.400546    0.132617
     22          6           0       -3.892331   -1.820570   -0.378141
     23          6           0       -4.707339   -2.667500    0.599747
     24          1           0       -3.125575   -0.450343    1.098819
     25          1           0       -4.612749    0.085942    0.323041
     26          1           0       -2.925496   -2.303758   -0.568858
     27          1           0       -4.412133   -1.767383   -1.343332
     28          1           0       -5.685458   -2.210851    0.782381
     29          1           0       -4.190374   -2.750274    1.561255
     30          1           0       -4.871615   -3.678751    0.214723
     31          6           0       -2.832626    0.458376   -0.833968
     32          6           0       -2.586368    1.878400   -0.323210
     33          6           0       -1.771361    2.725329   -1.301098
     34          1           0       -1.865950   -0.028112   -1.024391
     35          1           0       -3.353125    0.508173   -1.800171
     36          1           0       -2.066566    1.825212    0.641980
     37          1           0       -3.553205    2.361588   -0.132493
     38          1           0       -2.288327    2.808104   -2.262606
     39          1           0       -0.793242    2.268681   -1.483732
     40          1           0       -1.607085    3.736581   -0.916073
 ---------------------------------------------------------------------

 SCF Done:  E(RHF) =  -470.732613712     A.U. after   11 cycles
 E2 =    -0.1583754544D+01 EUMP2 =    -0.47231636825607D+03

 The electronic state is 1-A.
 Alpha  occ. eigenvalues --  -11.21652 -11.21634 -11.21584 -11.21463 -11.21418
 Alpha  occ. eigenvalues --  -11.21399 -11.21356 -11.21283 -11.21124 -11.21095
 Alpha  occ. eigenvalues --  -11.21061 -11.20998  -1.08487  -1.08366  -1.03609
 Alpha  occ. eigenvalues --   -1.03443  -0.96057  -0.95914  -0.87066  -0.86945
 Alpha  occ. eigenvalues --   -0.79696  -0.79497  -0.78303  -0.78172  -0.65115
 Alpha  occ. eigenvalues --   -0.65020  -0.61013  -0.60890  -0.59405  -0.59291
 Alpha  occ. eigenvalues --   -0.57627  -0.57529  -0.55473  -0.55093  -0.52741
 Alpha  occ. eigenvalues --   -0.52623  -0.52446  -0.52336  -0.50090  -0.49757
 Alpha  occ. eigenvalues --   -0.48082  -0.47738  -0.46695  -0.46521  -0.45922
 Alpha  occ. eigenvalues --   -0.45758  -0.45665  -0.45544  -0.43826  -0.43723
 Alpha virt. eigenvalues --    0.20664   0.22994   0.23544   0.24945   0.25485
 Alpha virt. eigenvalues --    0.26455   0.26868   0.27796   0.28029   0.29480
 Alpha virt. eigenvalues --    0.30954   0.31387   0.31784   0.31839   0.32165

 Mulliken charges:
               1
     1  C   -0.298675
     2  C   -0.300559
     3  C   -0.482034
     4  H    0.149661
     5  H    0.148965
     6  H    0.152255
     7  H    0.151935
     8  H    0.156357
     9  H    0.161710
    10  H    0.160412
    11  C   -0.298268
    12  C   -0.299713
    13  C   -0.475750
    14  H    0.149787
    15  H    0.149809
    16  H    0.152107
    17  H    0.151908
    18  H    0.155211
    19  H    0.155273
    20  H    0.160408
    21  C   -0.299237
    22  C   -0.299450
    23  C   -0.475655
    24  H    0.149610
    25  H    0.149713
    26  H    0.151380
    27  H    0.152043
    28  H    0.155257
    29  H    0.154988
    30  H    0.160128
    31  C   -0.298952
    32  C   -0.305739
    33  C   -0.477377
    34  H    0.149470
    35  H    0.149420
    36  H    0.162868
    37  H    0.150936
    38  H    0.154991
    39  H    0.155483
    40  H    0.159323
 Sum of Mulliken charges =  -0.00000

 Dipole moment (field-independent basis, Debye):
    X=              0.0369    Y=              0.0167    Z=              0.0271  Tot=              0.0487
 Quadrupole moment (field-independent basis, Debye-Ang):
   XX=            -85.3726   YY=            -84.5908   ZZ=            -84.8976
   XY=              0.0601   XZ=              0.7090   YZ=              0.0304

 Normal termination of Gaussian 16 at Thu May  6 06:51:42 2021.
