 Gaussian 16, Revision A.03,
 Gaussian 16:  EM64L-G16RevA.03 25-Dec-2016

 -------------
 #p 6-31g* mp2
 -------------

 ------------------------------------------------------
 Input file generated by CHIRIPA (05-May-2021 14:55:25)
 ------------------------------------------------------
 Symbolic Z-matrix:
 Charge =  0 Multiplicity = 1

                         Standard orientation:
 ---------------------------------------------------------------------
 Center     Atomic      Atomic             Coordinates (Angstroms)
 Number     Number       Type             X           Y           Z
 ---------------------------------------------------------------------
      1          6           0       -0.541716   -0.199496    0.591846
      2          6           0       -1.119235   -1.297345   -0.054469
      3          6           0       -2.489839   -1.319184   -0.329267
      4          6           0       -3.256638   -0.221299    0.057977
      5          6           0       -2.710619    0.887129    0.703377
      6          6           0       -1.337848    0.887321    0.968043
      7          1           0        0.523844   -0.190939    0.801380
      8          1           0       -0.503390   -2.142774   -0.347778
      9          1           0       -2.962856   -2.156206   -0.828334
     10          1           0       -3.350259    1.715215    0.983648
     11          1           0       -0.892057    1.741276    1.470114
     12          7           0       -4.708782   -0.232961   -0.227576
     13          8           0       -5.362605    0.746671    0.123814
     14          8           0       -5.165654   -1.221512   -0.797375
     15          6           0        4.476728   -0.172746   -0.139285
     16          6           0        4.154220   -1.634278    0.173598
     17          6           0        5.393898   -2.529159    0.160199
     18          1           0        4.962807   -0.113568   -1.122733
     19          1           0        5.206593    0.199310    0.593017
     20          1           0        3.424134   -2.003056   -0.558244
     21          1           0        3.668679   -1.689964    1.156332
     22          1           0        6.123007   -2.188451    0.902439
     23          1           0        5.877073   -2.503323   -0.821880
     24          1           0        5.140452   -3.569585    0.386336
     25          6           0        3.247578    0.734351   -0.129617
     26          6           0        3.570085    2.195884   -0.442501
     27          6           0        2.330407    3.090764   -0.429101
     28          1           0        2.517712    0.362295   -0.861920
     29          1           0        2.761499    0.675173    0.853831
     30          1           0        4.055627    2.251569   -1.425235
     31          1           0        4.300170    2.564662    0.289342
     32          1           0        1.847233    3.064928    0.552977
     33          1           0        1.601298    2.750057   -1.171341
     34          1           0        2.583854    4.131191   -0.655238
 ---------------------------------------------------------------------

 SCF Done:  E(RHF) =  -669.535494908     A.U. after   15 cycles
 E2 =    -0.2092029531D+01 EUMP2 =    -0.67162752443873D+03

 The electronic state is 1-A.
 Alpha  occ. eigenvalues --  -20.60679 -20.60674 -15.85733 -11.31068 -11.27645
 Alpha  occ. eigenvalues --  -11.27640 -11.27275 -11.26632 -11.26620 -11.22683
 Alpha  occ. eigenvalues --  -11.22663 -11.22596 -11.22402 -11.22059 -11.21894
 Alpha  occ. eigenvalues --   -1.59756  -1.39310  -1.19237  -1.09532  -1.08624
 Alpha  occ. eigenvalues --   -1.04641  -1.04530  -0.96982  -0.95468  -0.87993
 Alpha  occ. eigenvalues --   -0.86032  -0.82315  -0.80609  -0.79413  -0.77365
 Alpha  occ. eigenvalues --   -0.71950  -0.71080  -0.70319  -0.66146  -0.64882
 Alpha  occ. eigenvalues --   -0.64644  -0.62000  -0.61908  -0.60347  -0.58623
 Alpha  occ. eigenvalues --   -0.56268  -0.55165  -0.53625  -0.53362  -0.52970
 Alpha  occ. eigenvalues --   -0.52724  -0.50912  -0.48911  -0.48707  -0.48707
 Alpha  occ. eigenvalues --   -0.47639  -0.46866  -0.46821  -0.44814  -0.44723
 Alpha  occ. eigenvalues --   -0.37188  -0.36253
 Alpha virt. eigenvalues --    0.05160   0.11374   0.16614   0.19652   0.22431
 Alpha virt. eigenvalues --    0.23044   0.24793   0.25263   0.26399   0.28187
 Alpha virt. eigenvalues --    0.29383   0.30348   0.30972   0.31203   0.31678

 Mulliken charges:
               1
     1  C   -0.175730
     2  C   -0.222382
     3  C   -0.170764
     4  C    0.157992
     5  C   -0.170999
     6  C   -0.222223
     7  H    0.237643
     8  H    0.223303
     9  H    0.274987
    10  H    0.275185
    11  H    0.223644
    12  N    0.488056
    13  O   -0.460797
    14  O   -0.460887
    15  C   -0.297498
    16  C   -0.301717
    17  C   -0.475962
    18  H    0.154013
    19  H    0.152994
    20  H    0.148800
    21  H    0.149304
    22  H    0.157714
    23  H    0.157863
    24  H    0.162211
    25  C   -0.305849
    26  C   -0.299323
    27  C   -0.477933
    28  H    0.150952
    29  H    0.142608
    30  H    0.156690
    31  H    0.154985
    32  H    0.148027
    33  H    0.159395
    34  H    0.165700
 Sum of Mulliken charges =  -0.00000

 Dipole moment (field-independent basis, Debye):
    X=              5.4488    Y=              0.1013    Z=              0.9148  Tot=              5.5260
 Quadrupole moment (field-independent basis, Debye-Ang):
   XX=           -128.2125   YY=            -91.0387   ZZ=            -93.4493
   XY=             -1.0422   XZ=             -3.3583   YZ=              2.0397

 Normal termination of Gaussian 16 at Thu May  6 00:05:37 2021.
