 Gaussian 16, Revision A.03,
 Gaussian 16:  EM64L-G16RevA.03 25-Dec-2016

 -------------
 #p 6-31g* mp2
 -------------

 ------------------------------------------------------
 Input file generated by CHIRIPA (05-May-2021 14:55:25)
 ------------------------------------------------------
 Symbolic Z-matrix:
 Charge =  0 Multiplicity = 1

                         Standard orientation:
 ---------------------------------------------------------------------
 Center     Atomic      Atomic             Coordinates (Angstroms)
 Number     Number       Type             X           Y           Z
 ---------------------------------------------------------------------
      1          6           0       -1.471038    0.531671    1.739141
      2          6           0       -2.551692   -0.226916    2.200933
      3          6           0       -3.584543   -0.593202    1.332830
      4          6           0       -3.504207   -0.181965    0.003274
      5          6           0       -2.440720    0.574355   -0.486893
      6          6           0       -1.419092    0.929185    0.399064
      7          1           0       -0.673053    0.811761    2.420439
      8          1           0       -2.594677   -0.537035    3.241136
      9          1           0       -4.432793   -1.180015    1.663799
     10          1           0       -2.425724    0.868699   -1.529273
     11          1           0       -0.581062    1.518362    0.037649
     12          7           0       -4.591700   -0.563671   -0.925198
     13          8           0       -4.497408   -0.188878   -2.091935
     14          8           0       -5.517777   -1.230419   -0.468617
     15          6           0        4.940245   -0.183219   -0.149421
     16          6           0        4.871734   -1.710014   -0.196207
     17          6           0        6.248592   -2.366957   -0.093822
     18          1           0        5.580296    0.173997   -0.967759
     19          1           0        5.426698    0.126546    0.785889
     20          1           0        4.384311   -2.016769   -1.130517
     21          1           0        4.231618   -2.063627    0.622221
     22          1           0        6.738883   -2.089676    0.844970
     23          1           0        6.892443   -2.042552   -0.917726
     24          1           0        6.176264   -3.458456   -0.129304
     25          6           0        3.571692    0.488001   -0.250701
     26          6           0        3.640203    2.014795   -0.203914
     27          6           0        2.263346    2.671739   -0.306299
     28          1           0        3.085239    0.178236   -1.186010
     29          1           0        2.931642    0.130784    0.567637
     30          1           0        4.280320    2.368408   -1.022342
     31          1           0        4.127628    2.321550    0.730395
     32          1           0        1.619495    2.347333    0.517605
     33          1           0        1.773055    2.394457   -1.245091
     34          1           0        2.335674    3.763237   -0.270818
 ---------------------------------------------------------------------

 SCF Done:  E(RHF) =  -669.535446964     A.U. after   15 cycles
 E2 =    -0.2091178525D+01 EUMP2 =    -0.67162662548946D+03

 The electronic state is 1-A.
 Alpha  occ. eigenvalues --  -20.60703 -20.60698 -15.85754 -11.31104 -11.27670
 Alpha  occ. eigenvalues --  -11.27646 -11.27408 -11.26697 -11.26598 -11.22511
 Alpha  occ. eigenvalues --  -11.22318 -11.22173 -11.22093 -11.21973 -11.21470
 Alpha  occ. eigenvalues --   -1.59779  -1.39333  -1.19269  -1.09153  -1.08671
 Alpha  occ. eigenvalues --   -1.04667  -1.04276  -0.96752  -0.95510  -0.87781
 Alpha  occ. eigenvalues --   -0.86066  -0.82340  -0.80358  -0.78929  -0.77386
 Alpha  occ. eigenvalues --   -0.71974  -0.71101  -0.70392  -0.65785  -0.64921
 Alpha  occ. eigenvalues --   -0.64692  -0.62055  -0.61656  -0.60115  -0.58333
 Alpha  occ. eigenvalues --   -0.56055  -0.55183  -0.53448  -0.53300  -0.53001
 Alpha  occ. eigenvalues --   -0.52618  -0.50702  -0.48777  -0.48730  -0.48594
 Alpha  occ. eigenvalues --   -0.47373  -0.46476  -0.46374  -0.44742  -0.44505
 Alpha  occ. eigenvalues --   -0.37256  -0.36266
 Alpha virt. eigenvalues --    0.05138   0.11373   0.16636   0.19914   0.22420
 Alpha virt. eigenvalues --    0.23827   0.25438   0.25739   0.26970   0.27784
 Alpha virt. eigenvalues --    0.28953   0.30386   0.30912   0.31436   0.31866

 Mulliken charges:
               1
     1  C   -0.173485
     2  C   -0.218325
     3  C   -0.171656
     4  C    0.159055
     5  C   -0.172935
     6  C   -0.225252
     7  H    0.224249
     8  H    0.222876
     9  H    0.275209
    10  H    0.275499
    11  H    0.235465
    12  N    0.487989
    13  O   -0.460607
    14  O   -0.460727
    15  C   -0.298821
    16  C   -0.300103
    17  C   -0.476145
    18  H    0.151680
    19  H    0.149973
    20  H    0.153653
    21  H    0.151447
    22  H    0.155295
    23  H    0.156259
    24  H    0.162002
    25  C   -0.298649
    26  C   -0.299802
    27  C   -0.480450
    28  H    0.151403
    29  H    0.145818
    30  H    0.156577
    31  H    0.153972
    32  H    0.146033
    33  H    0.155894
    34  H    0.166610
 Sum of Mulliken charges =  -0.00000

 Dipole moment (field-independent basis, Debye):
    X=              4.0964    Y=              1.3613    Z=              3.2088  Tot=              5.3787
 Quadrupole moment (field-independent basis, Debye-Ang):
   XX=           -121.2036   YY=            -94.9097   ZZ=            -91.2276
   XY=             -3.4501   XZ=            -13.8435   YZ=             -2.7307

 Normal termination of Gaussian 16 at Wed May  5 16:09:57 2021.
