 Gaussian 16, Revision A.03,
 Gaussian 16:  EM64L-G16RevA.03 25-Dec-2016

 -------------
 #p 6-31g* mp2
 -------------

 ------------------------------------------------------
 Input file generated by CHIRIPA (05-May-2021 14:53:13)
 ------------------------------------------------------
 Symbolic Z-matrix:
 Charge =  0 Multiplicity = 1

                         Standard orientation:
 ---------------------------------------------------------------------
 Center     Atomic      Atomic             Coordinates (Angstroms)
 Number     Number       Type             X           Y           Z
 ---------------------------------------------------------------------
      1          6           0        5.116614   -0.242651    0.303115
      2          6           0        5.909551    0.391463   -0.840185
      3          6           0        7.381802    0.608581   -0.489288
      4          1           0        5.192453    0.397543    1.192690
      5          1           0        5.576592   -1.204234    0.569898
      6          1           0        5.447393    1.350916   -1.105660
      7          1           0        5.831656   -0.250219   -1.727199
      8          1           0        7.864002   -0.343417   -0.244782
      9          1           0        7.477556    1.266815    0.380288
     10          1           0        7.929889    1.062832   -1.320622
     11          6           0        3.643112   -0.466002   -0.032499
     12          6           0        2.850175   -1.100116    1.110801
     13          6           0        1.377924   -1.317234    0.759903
     14          1           0        3.183134    0.495581   -0.299283
     15          1           0        3.567273   -1.106196   -0.922075
     16          1           0        2.928070   -0.458434    1.997814
     17          1           0        3.312333   -2.059568    1.376276
     18          1           0        1.282170   -1.975467   -0.109672
     19          1           0        0.895724   -0.365235    0.515398
     20          1           0        0.829837   -1.771484    1.591238
     21          6           0       -4.903714   -1.744559   -0.395191
     22          6           0       -3.518314   -1.864930   -0.545861
     23          6           0       -2.687537   -0.751666   -0.387752
     24          6           0       -3.278499    0.472237   -0.077723
     25          6           0       -4.655344    0.624193    0.078792
     26          6           0       -5.466814   -0.502570   -0.083895
     27          1           0       -5.541583   -2.614612   -0.519792
     28          1           0       -3.078234   -2.828223   -0.787606
     29          1           0       -1.611952   -0.816591   -0.498748
     30          1           0       -5.064867    1.597629    0.319896
     31          1           0       -6.542413   -0.406127    0.033709
     32          7           0       -2.409212    1.657946    0.092083
     33          8           0       -2.954478    2.725079    0.365116
     34          8           0       -1.199058    1.497719   -0.051072
 ---------------------------------------------------------------------

 SCF Done:  E(RHF) =  -669.536278302     A.U. after   15 cycles
 E2 =    -0.2091281153D+01 EUMP2 =    -0.67162755945549D+03

 The electronic state is 1-A.
 Alpha  occ. eigenvalues --  -20.60870 -20.60859 -15.85908 -11.31190 -11.27767
 Alpha  occ. eigenvalues --  -11.27721 -11.27504 -11.26770 -11.26747 -11.21247
 Alpha  occ. eigenvalues --  -11.21238 -11.21012 -11.20920 -11.20769 -11.20693
 Alpha  occ. eigenvalues --   -1.59932  -1.39489  -1.19363  -1.08777  -1.08042
 Alpha  occ. eigenvalues --   -1.04754  -1.03172  -0.95669  -0.95588  -0.86666
 Alpha  occ. eigenvalues --   -0.86155  -0.82459  -0.79256  -0.77859  -0.77498
 Alpha  occ. eigenvalues --   -0.72138  -0.71245  -0.70475  -0.65024  -0.64764
 Alpha  occ. eigenvalues --   -0.64658  -0.62104  -0.60554  -0.59003  -0.57241
 Alpha  occ. eigenvalues --   -0.55270  -0.54899  -0.53092  -0.52876  -0.52338
 Alpha  occ. eigenvalues --   -0.52042  -0.49594  -0.48878  -0.48854  -0.47549
 Alpha  occ. eigenvalues --   -0.46251  -0.45406  -0.45301  -0.44880  -0.43432
 Alpha  occ. eigenvalues --   -0.37350  -0.36354
 Alpha virt. eigenvalues --    0.05003   0.11289   0.16496   0.21122   0.23290
 Alpha virt. eigenvalues --    0.24553   0.26017   0.27051   0.27721   0.28007
 Alpha virt. eigenvalues --    0.29312   0.30654   0.31673   0.31777   0.32218

 Mulliken charges:
               1
     1  C   -0.298256
     2  C   -0.299727
     3  C   -0.475562
     4  H    0.150559
     5  H    0.147397
     6  H    0.154221
     7  H    0.150569
     8  H    0.153918
     9  H    0.155511
    10  H    0.159614
    11  C   -0.299906
    12  C   -0.297930
    13  C   -0.493388
    14  H    0.157576
    15  H    0.146496
    16  H    0.154659
    17  H    0.148415
    18  H    0.144907
    19  H    0.182940
    20  H    0.155544
    21  C   -0.170336
    22  C   -0.220689
    23  C   -0.173853
    24  C    0.156413
    25  C   -0.170492
    26  C   -0.218989
    27  H    0.225591
    28  H    0.224055
    29  H    0.285307
    30  H    0.275387
    31  H    0.223366
    32  N    0.491620
    33  O   -0.459564
    34  O   -0.465372
 Sum of Mulliken charges =  -0.00000

 Dipole moment (field-independent basis, Debye):
    X=             -3.1484    Y=             -4.0206    Z=             -0.5953  Tot=              5.1412
 Quadrupole moment (field-independent basis, Debye-Ang):
   XX=            -73.0444   YY=            -97.0351   ZZ=            -95.3147
   XY=              9.7807   XZ=              1.1873   YZ=              1.1188

 Normal termination of Gaussian 16 at Thu May  6 10:28:29 2021.
