 Gaussian 16, Revision A.03,
 Gaussian 16:  EM64L-G16RevA.03 25-Dec-2016

 -------------
 #p 6-31g* mp2
 -------------

 ------------------------------------------------------
 Input file generated by CHIRIPA (05-May-2021 14:55:22)
 ------------------------------------------------------
 Symbolic Z-matrix:
 Charge =  0 Multiplicity = 1

                         Standard orientation:
 ---------------------------------------------------------------------
 Center     Atomic      Atomic             Coordinates (Angstroms)
 Number     Number       Type             X           Y           Z
 ---------------------------------------------------------------------
      1          6           0        0.897395   -2.640120    0.594397
      2          6           0        0.606540   -1.510167    1.365844
      3          6           0        1.246406   -0.293312    1.112102
      4          6           0        2.175901   -0.241915    0.074466
      5          6           0        2.487166   -1.350185   -0.711754
      6          6           0        1.835126   -2.556670   -0.440116
      7          1           0        0.395603   -3.581374    0.798461
      8          1           0       -0.121271   -1.572039    2.169901
      9          1           0        1.040190    0.596928    1.693794
     10          1           0        3.217352   -1.257569   -1.506529
     11          1           0        2.062994   -3.432585   -1.040861
     12          7           0        2.859742    1.040825   -0.203631
     13          8           0        3.674686    1.059985   -1.123488
     14          8           0        2.567844    2.002788    0.503517
     15          6           0       -2.122145    1.101347    0.052902
     16          6           0       -2.562555    2.538967   -0.225077
     17          6           0       -1.514201    3.569952    0.194233
     18          1           0       -1.905882    0.991541    1.124404
     19          1           0       -1.180318    0.904651   -0.477822
     20          1           0       -3.503992    2.732455    0.304899
     21          1           0       -2.777979    2.645313   -1.296011
     22          1           0       -0.575102    3.405196   -0.343864
     23          1           0       -1.305240    3.492833    1.266142
     24          1           0       -1.849602    4.590852   -0.013442
     25          6           0       -3.159634    0.059169   -0.360872
     26          6           0       -2.719225   -1.378451   -0.082892
     27          6           0       -3.767579   -2.409436   -0.502202
     28          1           0       -4.101462    0.255864    0.169852
     29          1           0       -3.375897    0.168975   -1.432374
     30          1           0       -2.503801   -1.484799    0.988041
     31          1           0       -1.777788   -1.571939   -0.612868
     32          1           0       -3.976540   -2.332317   -1.574111
     33          1           0       -4.706678   -2.244681    0.035895
     34          1           0       -3.432178   -3.430336   -0.294527
 ---------------------------------------------------------------------

 SCF Done:  E(RHF) =  -669.534279896     A.U. after   15 cycles
 E2 =    -0.2094804836D+01 EUMP2 =    -0.67162908473145D+03

 The electronic state is 1-A.
 Alpha  occ. eigenvalues --  -20.60812 -20.60802 -15.85854 -11.31197 -11.27765
 Alpha  occ. eigenvalues --  -11.27721 -11.27482 -11.26784 -11.26722 -11.22042
 Alpha  occ. eigenvalues --  -11.21687 -11.21588 -11.21586 -11.21525 -11.20736
 Alpha  occ. eigenvalues --   -1.59881  -1.39433  -1.19374  -1.08791  -1.08652
 Alpha  occ. eigenvalues --   -1.04766  -1.03712  -0.96145  -0.95604  -0.87160
 Alpha  occ. eigenvalues --   -0.86163  -0.82437  -0.79805  -0.78515  -0.77459
 Alpha  occ. eigenvalues --   -0.72069  -0.71204  -0.70467  -0.65328  -0.65016
 Alpha  occ. eigenvalues --   -0.64760  -0.62114  -0.61102  -0.59577  -0.57759
 Alpha  occ. eigenvalues --   -0.55418  -0.55264  -0.53245  -0.52895  -0.52750
 Alpha  occ. eigenvalues --   -0.52541  -0.50081  -0.48833  -0.48828  -0.48094
 Alpha  occ. eigenvalues --   -0.46835  -0.46022  -0.45887  -0.44816  -0.43975
 Alpha  occ. eigenvalues --   -0.37297  -0.36265
 Alpha virt. eigenvalues --    0.05009   0.11221   0.16392   0.20225   0.22984
 Alpha virt. eigenvalues --    0.23630   0.25067   0.26787   0.27431   0.28040
 Alpha virt. eigenvalues --    0.29639   0.30206   0.31269   0.31638   0.32144

 Mulliken charges:
               1
     1  C   -0.171127
     2  C   -0.211929
     3  C   -0.169122
     4  C    0.156499
     5  C   -0.171677
     6  C   -0.219574
     7  H    0.225961
     8  H    0.223723
     9  H    0.276334
    10  H    0.275430
    11  H    0.223459
    12  N    0.487854
    13  O   -0.460351
    14  O   -0.460109
    15  C   -0.298495
    16  C   -0.300305
    17  C   -0.477551
    18  H    0.139968
    19  H    0.154039
    20  H    0.150232
    21  H    0.152681
    22  H    0.166298
    23  H    0.152780
    24  H    0.160708
    25  C   -0.298021
    26  C   -0.301709
    27  C   -0.474992
    28  H    0.149459
    29  H    0.151688
    30  H    0.140875
    31  H    0.158484
    32  H    0.157614
    33  H    0.156460
    34  H    0.154418
 Sum of Mulliken charges =  -0.00000

 Dipole moment (field-independent basis, Debye):
    X=             -2.3345    Y=             -4.4307    Z=              0.9086  Tot=              5.0898
 Quadrupole moment (field-independent basis, Debye-Ang):
   XX=           -105.2253   YY=            -92.7751   ZZ=            -91.4053
   XY=            -11.2545   XZ=             -0.5296   YZ=              1.0171

 Normal termination of Gaussian 16 at Wed May  5 17:30:03 2021.
