 Gaussian 16, Revision A.03,
 Gaussian 16:  EM64L-G16RevA.03 25-Dec-2016

 -------------
 #p 6-31g* mp2
 -------------

 ------------------------------------------------------
 Input file generated by CHIRIPA (05-May-2021 14:57:27)
 ------------------------------------------------------
 Symbolic Z-matrix:
 Charge =  0 Multiplicity = 1

                         Standard orientation:
 ---------------------------------------------------------------------
 Center     Atomic      Atomic             Coordinates (Angstroms)
 Number     Number       Type             X           Y           Z
 ---------------------------------------------------------------------
      1          6           0       -2.148232    1.222146    0.023555
      2          6           0       -2.416269    0.164569    0.898888
      3          6           0       -3.668170   -0.457757    0.898224
      4          6           0       -4.633138    0.005108    0.004980
      5          6           0       -4.396514    1.056478   -0.879281
      6          6           0       -3.137466    1.663946   -0.861176
      7          1           0       -1.172948    1.699813    0.030845
      8          1           0       -1.649924   -0.180638    1.587069
      9          1           0       -3.902524   -1.278544    1.565160
     10          1           0       -5.180550    1.378487   -1.553830
     11          1           0       -2.932119    2.485060   -1.542094
     12          7           0       -5.962254   -0.645856   -0.004955
     13          8           0       -6.795417   -0.219405   -0.801582
     14          8           0       -6.145684   -1.570207    0.784074
     15          6           0        1.902531    0.023451    0.192297
     16          6           0        2.703437    1.032901    0.736430
     17          6           0        4.096083    0.968008    0.632153
     18          6           0        4.656892   -0.125528   -0.025848
     19          6           0        3.885812   -1.147022   -0.578364
     20          6           0        2.495229   -1.061376   -0.462209
     21          1           0        0.821491    0.081923    0.277915
     22          1           0        2.245887    1.876566    1.245274
     23          1           0        4.739839    1.735588    1.044241
     24          1           0        4.370876   -1.975658   -1.079855
     25          1           0        1.875721   -1.846786   -0.885751
     26          7           0        6.130132   -0.205212   -0.142529
     27          8           0        6.599759   -1.179062   -0.727083
     28          8           0        6.787335    0.707690    0.352781
 ---------------------------------------------------------------------

 SCF Done:  E(RHF) =  -868.336338306     A.U. after   16 cycles
 E2 =    -0.2600284845D+01 EUMP2 =    -0.87093662315087D+03

 The electronic state is 1-A.
 Alpha  occ. eigenvalues --  -20.61447 -20.61440 -20.61311 -20.61304 -15.86506
 Alpha  occ. eigenvalues --  -15.86368 -11.32064 -11.31890 -11.28669 -11.28616
 Alpha  occ. eigenvalues --  -11.28544 -11.28476 -11.28437 -11.28355 -11.27815
 Alpha  occ. eigenvalues --  -11.27693 -11.27607 -11.27520  -1.60518  -1.60382
 Alpha  occ. eigenvalues --   -1.40065  -1.39931  -1.20269  -1.20085  -1.09663
 Alpha  occ. eigenvalues --   -1.09478  -1.05691  -1.05501  -0.96466  -0.96275
 Alpha  occ. eigenvalues --   -0.87103  -0.86910  -0.83274  -0.83099  -0.78260
 Alpha  occ. eigenvalues --   -0.78098  -0.72724  -0.72585  -0.71843  -0.71706
 Alpha  occ. eigenvalues --   -0.71664  -0.71070  -0.65935  -0.65753  -0.65725
 Alpha  occ. eigenvalues --   -0.65499  -0.63024  -0.62836  -0.56444  -0.55945
 Alpha  occ. eigenvalues --   -0.54004  -0.53837  -0.53782  -0.53603  -0.49497
 Alpha  occ. eigenvalues --   -0.49463  -0.49357  -0.49328  -0.45427  -0.45301
 Alpha  occ. eigenvalues --   -0.38304  -0.38115  -0.37281  -0.37092
 Alpha virt. eigenvalues --    0.04239   0.04425   0.10245   0.10538   0.15608
 Alpha virt. eigenvalues --    0.15866   0.17925   0.22019   0.25131   0.25791
 Alpha virt. eigenvalues --    0.27175   0.29312   0.29971   0.30443   0.32195

 Mulliken charges:
               1
     1  C   -0.174006
     2  C   -0.222038
     3  C   -0.169728
     4  C    0.159404
     5  C   -0.169773
     6  C   -0.217829
     7  H    0.219614
     8  H    0.220387
     9  H    0.278338
    10  H    0.278833
    11  H    0.226843
    12  N    0.487900
    13  O   -0.457736
    14  O   -0.458367
    15  C   -0.177281
    16  C   -0.219956
    17  C   -0.169803
    18  C    0.159377
    19  C   -0.169883
    20  C   -0.219339
    21  H    0.221141
    22  H    0.220304
    23  H    0.277568
    24  H    0.278278
    25  H    0.226930
    26  N    0.487851
    27  O   -0.458167
    28  O   -0.458863
 Sum of Mulliken charges =  -0.00000

 Dipole moment (field-independent basis, Debye):
    X=             -0.5957    Y=              2.5042    Z=              0.3459  Tot=              2.5972
 Quadrupole moment (field-independent basis, Debye-Ang):
   XX=           -194.8160   YY=            -99.6885   ZZ=           -101.9488
   XY=             -9.5114   XZ=              3.4811   YZ=             -0.2467

 Normal termination of Gaussian 16 at Wed May  5 19:39:14 2021.
