 Gaussian 16, Revision A.03,
 Gaussian 16:  EM64L-G16RevA.03 25-Dec-2016

 -------------
 #p 6-31g* mp2
 -------------

 ------------------------------------------------------
 Input file generated by CHIRIPA (05-May-2021 14:51:12)
 ------------------------------------------------------
 Symbolic Z-matrix:
 Charge =  0 Multiplicity = 1

                         Standard orientation:
 ---------------------------------------------------------------------
 Center     Atomic      Atomic             Coordinates (Angstroms)
 Number     Number       Type             X           Y           Z
 ---------------------------------------------------------------------
      1          6           0        3.785843    0.425757   -0.222881
      2          6           0        3.605223    1.925816    0.012031
      3          6           0        4.658134    2.768074   -0.708923
      4          1           0        4.788637    0.126806    0.111752
      5          1           0        3.743027    0.222914   -1.301962
      6          1           0        3.646984    2.125589    1.090439
      7          1           0        2.602673    2.221195   -0.323023
      8          1           0        4.613647    2.598047   -1.789530
      9          1           0        5.663891    2.501897   -0.368038
     10          1           0        4.510236    3.837192   -0.527336
     11          6           0        2.740784   -0.429454    0.491396
     12          6           0        2.921404   -1.929513    0.256484
     13          6           0        1.868493   -2.771771    0.977438
     14          1           0        2.783600   -0.226610    1.570477
     15          1           0        1.737990   -0.130503    0.156764
     16          1           0        3.923954   -2.224892    0.591538
     17          1           0        2.879643   -2.129285   -0.821924
     18          1           0        0.862736   -2.505593    0.636553
     19          1           0        1.912980   -2.601743    2.058046
     20          1           0        2.016391   -3.840889    0.795851
     21          6           0       -3.854017    0.485428   -0.108698
     22          6           0       -3.483454    1.867338    0.430738
     23          6           0       -4.675692    2.823545    0.475794
     24          1           0       -4.277315    0.593715   -1.116684
     25          1           0       -4.646857    0.055100    0.518692
     26          1           0       -2.690580    2.294348   -0.196661
     27          1           0       -3.060811    1.755730    1.437481
     28          1           0       -5.466934    2.422748    1.117587
     29          1           0       -5.094600    2.964426   -0.525840
     30          1           0       -4.388335    3.805463    0.864540
     31          6           0       -2.672610   -0.481731   -0.159817
     32          6           0       -3.043173   -1.863641   -0.699253
     33          6           0       -1.850935   -2.819849   -0.744309
     34          1           0       -1.879770   -0.051404   -0.787207
     35          1           0       -2.249311   -0.590018    0.848170
     36          1           0       -3.465816   -1.752034   -1.705997
     37          1           0       -3.836047   -2.290652   -0.071855
     38          1           0       -1.432027   -2.960730    0.257325
     39          1           0       -1.059693   -2.419052   -1.386102
     40          1           0       -2.138292   -3.801766   -1.133055
 ---------------------------------------------------------------------

 SCF Done:  E(RHF) =  -470.733054760     A.U. after   11 cycles
 E2 =    -0.1582768524D+01 EUMP2 =    -0.47231582328415D+03

 The electronic state is 1-A.
 Alpha  occ. eigenvalues --  -11.21640 -11.21623 -11.21578 -11.21527 -11.21448
 Alpha  occ. eigenvalues --  -11.21386 -11.21363 -11.21300 -11.21105 -11.21087
 Alpha  occ. eigenvalues --  -11.21055 -11.20908  -1.08469  -1.08381  -1.03573
 Alpha  occ. eigenvalues --   -1.03466  -0.96038  -0.95902  -0.87075  -0.86902
 Alpha  occ. eigenvalues --   -0.79676  -0.79497  -0.78293  -0.78182  -0.65097
 Alpha  occ. eigenvalues --   -0.65015  -0.60979  -0.60873  -0.59390  -0.59283
 Alpha  occ. eigenvalues --   -0.57714  -0.57476  -0.55357  -0.55176  -0.52713
 Alpha  occ. eigenvalues --   -0.52640  -0.52561  -0.52209  -0.50026  -0.49796
 Alpha  occ. eigenvalues --   -0.48076  -0.47720  -0.46691  -0.46518  -0.45899
 Alpha  occ. eigenvalues --   -0.45747  -0.45697  -0.45544  -0.43820  -0.43730
 Alpha virt. eigenvalues --    0.21641   0.23137   0.23588   0.24901   0.26147
 Alpha virt. eigenvalues --    0.26263   0.27183   0.27321   0.28265   0.29100
 Alpha virt. eigenvalues --    0.30766   0.31398   0.31795   0.31852   0.32106

 Mulliken charges:
               1
     1  C   -0.298231
     2  C   -0.299558
     3  C   -0.475672
     4  H    0.149608
     5  H    0.149223
     6  H    0.151927
     7  H    0.151794
     8  H    0.155039
     9  H    0.155174
    10  H    0.160148
    11  C   -0.298730
    12  C   -0.299053
    13  C   -0.483321
    14  H    0.149316
    15  H    0.150062
    16  H    0.151449
    17  H    0.151371
    18  H    0.164455
    19  H    0.153709
    20  H    0.159678
    21  C   -0.298227
    22  C   -0.299676
    23  C   -0.475752
    24  H    0.149734
    25  H    0.149768
    26  H    0.151760
    27  H    0.152264
    28  H    0.155256
    29  H    0.155168
    30  H    0.160383
    31  C   -0.298970
    32  C   -0.299619
    33  C   -0.479892
    34  H    0.148802
    35  H    0.150211
    36  H    0.151974
    37  H    0.152242
    38  H    0.160140
    39  H    0.155097
    40  H    0.160948
 Sum of Mulliken charges =  -0.00000

 Dipole moment (field-independent basis, Debye):
    X=             -0.0602    Y=             -0.0123    Z=             -0.0013  Tot=              0.0614
 Quadrupole moment (field-independent basis, Debye-Ang):
   XX=            -85.4981   YY=            -85.8772   ZZ=            -83.4339
   XY=              0.2381   XZ=              0.6457   YZ=             -0.0450

 Normal termination of Gaussian 16 at Wed May  5 16:49:17 2021.
