 Gaussian 16, Revision A.03,
 Gaussian 16:  EM64L-G16RevA.03 25-Dec-2016

 -------------
 #p 6-31g* mp2
 -------------

 ------------------------------------------------------
 Input file generated by CHIRIPA (05-May-2021 14:51:12)
 ------------------------------------------------------
 Symbolic Z-matrix:
 Charge =  0 Multiplicity = 1

                         Standard orientation:
 ---------------------------------------------------------------------
 Center     Atomic      Atomic             Coordinates (Angstroms)
 Number     Number       Type             X           Y           Z
 ---------------------------------------------------------------------
      1          6           0        3.555478    1.151247   -0.092574
      2          6           0        2.140082    1.727088   -0.147759
      3          6           0        2.109709    3.241855    0.058040
      4          1           0        4.008200    1.400143    0.876981
      5          1           0        4.172414    1.638923   -0.860010
      6          1           0        1.525635    1.237483    0.618634
      7          1           0        1.690608    1.476628   -1.117222
      8          1           0        2.699325    3.747365   -0.713591
      9          1           0        2.533415    3.506862    1.032127
     10          1           0        1.088241    3.632484    0.014777
     11          6           0        3.602239   -0.361999   -0.296606
     12          6           0        5.017635   -0.937841   -0.241422
     13          6           0        5.048009   -2.452607   -0.447220
     14          1           0        2.985304   -0.849675    0.470830
     15          1           0        3.149518   -0.610895   -1.266162
     16          1           0        5.467110   -0.687380    0.728041
     17          1           0        5.632083   -0.448236   -1.007814
     18          1           0        4.624303   -2.717614   -1.421308
     19          1           0        4.458393   -2.958117    0.324411
     20          1           0        6.069477   -2.843237   -0.403958
     21          6           0       -2.868667   -0.658847    0.098437
     22          6           0       -1.959054   -0.404433    1.300877
     23          6           0       -0.541584   -0.938767    1.093376
     24          1           0       -2.907856   -1.738361   -0.101714
     25          1           0       -2.426443   -0.191639   -0.792377
     26          1           0       -2.403559   -0.870802    2.189433
     27          1           0       -1.922179    0.674584    1.498307
     28          1           0       -0.074863   -0.465233    0.223584
     29          1           0       -0.558978   -2.019399    0.918637
     30          1           0        0.091656   -0.746198    1.965032
     31          6           0       -4.289051   -0.130400    0.290744
     32          6           0       -5.198663   -0.384815   -0.911697
     33          6           0       -6.616134    0.149520   -0.704195
     34          1           0       -4.731276   -0.597609    1.181558
     35          1           0       -4.249861    0.949113    0.490895
     36          1           0       -5.235539   -1.463831   -1.109127
     37          1           0       -4.754158    0.081554   -1.800252
     38          1           0       -6.598739    1.230151   -0.529456
     39          1           0       -7.082855   -0.324016    0.165596
     40          1           0       -7.249375   -0.043050   -1.575850
 ---------------------------------------------------------------------

 SCF Done:  E(RHF) =  -470.732736833     A.U. after   11 cycles
 E2 =    -0.1583161067D+01 EUMP2 =    -0.47231589790006D+03

 The electronic state is 1-A.
 Alpha  occ. eigenvalues --  -11.21601 -11.21597 -11.21565 -11.21526 -11.21403
 Alpha  occ. eigenvalues --  -11.21360 -11.21343 -11.21298 -11.21071 -11.21057
 Alpha  occ. eigenvalues --  -11.21036 -11.21013  -1.08435  -1.08385  -1.03547
 Alpha  occ. eigenvalues --   -1.03478  -0.95979  -0.95946  -0.87022  -0.86943
 Alpha  occ. eigenvalues --   -0.79673  -0.79502  -0.78280  -0.78158  -0.65103
 Alpha  occ. eigenvalues --   -0.64987  -0.61034  -0.60809  -0.59362  -0.59303
 Alpha  occ. eigenvalues --   -0.57586  -0.57560  -0.55299  -0.55214  -0.52727
 Alpha  occ. eigenvalues --   -0.52615  -0.52402  -0.52362  -0.50026  -0.49836
 Alpha  occ. eigenvalues --   -0.47976  -0.47808  -0.46741  -0.46504  -0.45864
 Alpha  occ. eigenvalues --   -0.45741  -0.45694  -0.45431  -0.43775  -0.43734
 Alpha virt. eigenvalues --    0.21829   0.23024   0.23807   0.24743   0.26037
 Alpha virt. eigenvalues --    0.26054   0.26860   0.27600   0.27973   0.29442
 Alpha virt. eigenvalues --    0.30539   0.31344   0.31694   0.31878   0.32249

 Mulliken charges:
               1
     1  C   -0.297597
     2  C   -0.306852
     3  C   -0.475118
     4  H    0.149228
     5  H    0.149091
     6  H    0.161732
     7  H    0.150132
     8  H    0.154938
     9  H    0.155031
    10  H    0.159414
    11  C   -0.300774
    12  C   -0.299582
    13  C   -0.475645
    14  H    0.153137
    15  H    0.149145
    16  H    0.151738
    17  H    0.151753
    18  H    0.155117
    19  H    0.155375
    20  H    0.160027
    21  C   -0.298505
    22  C   -0.300561
    23  C   -0.480921
    24  H    0.149718
    25  H    0.149786
    26  H    0.151853
    27  H    0.151905
    28  H    0.163223
    29  H    0.155016
    30  H    0.158242
    31  C   -0.298291
    32  C   -0.299651
    33  C   -0.475703
    34  H    0.149528
    35  H    0.149614
    36  H    0.151951
    37  H    0.151900
    38  H    0.155175
    39  H    0.155184
    40  H    0.160248
 Sum of Mulliken charges =  -0.00000

 Dipole moment (field-independent basis, Debye):
    X=             -0.0079    Y=             -0.0152    Z=              0.0046  Tot=              0.0177
 Quadrupole moment (field-independent basis, Debye-Ang):
   XX=            -86.0068   YY=            -85.3525   ZZ=            -83.6540
   XY=              0.7758   XZ=             -0.1196   YZ=             -0.6202

 Normal termination of Gaussian 16 at Wed May  5 18:18:59 2021.
