 Gaussian 16, Revision A.03,
 Gaussian 16:  EM64L-G16RevA.03 25-Dec-2016

 -------------
 #p 6-31g* mp2
 -------------

 ------------------------------------------------------
 Input file generated by CHIRIPA (05-May-2021 14:53:15)
 ------------------------------------------------------
 Symbolic Z-matrix:
 Charge =  0 Multiplicity = 1

                         Standard orientation:
 ---------------------------------------------------------------------
 Center     Atomic      Atomic             Coordinates (Angstroms)
 Number     Number       Type             X           Y           Z
 ---------------------------------------------------------------------
      1          6           0        2.468204   -1.158232    0.247755
      2          6           0        1.435319   -1.258699    1.370715
      3          6           0        0.482183   -2.440988    1.193184
      4          1           0        1.946361   -1.069014   -0.714880
      5          1           0        3.045214   -2.092382    0.205101
      6          1           0        0.861357   -0.324104    1.412138
      7          1           0        1.959682   -1.347496    2.330806
      8          1           0        1.037747   -3.384161    1.173782
      9          1           0       -0.066819   -2.354954    0.249894
     10          1           0       -0.247775   -2.493898    2.006953
     11          6           0        3.428225    0.018789    0.411185
     12          6           0        4.461110    0.119255   -0.711775
     13          6           0        5.414246    1.301545   -0.534243
     14          1           0        2.851216    0.952938    0.453840
     15          1           0        3.950068   -0.070430    1.373820
     16          1           0        3.936747    0.208052   -1.671866
     17          1           0        5.035072   -0.815340   -0.753198
     18          1           0        5.963248    1.215510    0.409046
     19          1           0        4.858682    2.244717   -0.514841
     20          1           0        6.144204    1.354454   -1.348013
     21          6           0       -1.817622    2.781991    0.560505
     22          6           0       -2.749235    1.984406    1.233169
     23          6           0       -3.026234    0.688088    0.788895
     24          6           0       -2.350246    0.219173   -0.336471
     25          6           0       -1.416704    0.989524   -1.028098
     26          6           0       -1.155497    2.282885   -0.565995
     27          1           0       -1.608577    3.787853    0.912553
     28          1           0       -3.264958    2.369396    2.108303
     29          1           0       -3.742734    0.049181    1.290736
     30          1           0       -0.918488    0.578112   -1.897545
     31          1           0       -0.431499    2.900052   -1.090378
     32          7           0       -2.635132   -1.151616   -0.816241
     33          8           0       -2.026176   -1.541397   -1.810162
     34          8           0       -3.461989   -1.810300   -0.189279
 ---------------------------------------------------------------------

 SCF Done:  E(RHF) =  -669.536212289     A.U. after   15 cycles
 E2 =    -0.2092759827D+01 EUMP2 =    -0.67162897211556D+03

 The electronic state is 1-A.
 Alpha  occ. eigenvalues --  -20.60918 -20.60901 -15.85934 -11.31292 -11.27871
 Alpha  occ. eigenvalues --  -11.27848 -11.27597 -11.26880 -11.26858 -11.21715
 Alpha  occ. eigenvalues --  -11.21457 -11.21381 -11.21256 -11.21254 -11.20570
 Alpha  occ. eigenvalues --   -1.59971  -1.39526  -1.19463  -1.08860  -1.08396
 Alpha  occ. eigenvalues --   -1.04864  -1.03450  -0.95889  -0.95697  -0.86898
 Alpha  occ. eigenvalues --   -0.86261  -0.82531  -0.79523  -0.78192  -0.77581
 Alpha  occ. eigenvalues --   -0.72162  -0.71307  -0.70568  -0.65118  -0.65039
 Alpha  occ. eigenvalues --   -0.64863  -0.62211  -0.60854  -0.59274  -0.57493
 Alpha  occ. eigenvalues --   -0.55363  -0.55181  -0.53187  -0.52954  -0.52566
 Alpha  occ. eigenvalues --   -0.52295  -0.49832  -0.48925  -0.48918  -0.47829
 Alpha  occ. eigenvalues --   -0.46579  -0.45738  -0.45670  -0.44870  -0.43706
 Alpha  occ. eigenvalues --   -0.37431  -0.36457
 Alpha virt. eigenvalues --    0.04925   0.11149   0.16407   0.21080   0.22769
 Alpha virt. eigenvalues --    0.24194   0.26219   0.27152   0.27405   0.28126
 Alpha virt. eigenvalues --    0.28544   0.30719   0.31541   0.31774   0.31966

 Mulliken charges:
               1
     1  C   -0.298154
     2  C   -0.301818
     3  C   -0.483424
     4  H    0.150174
     5  H    0.151396
     6  H    0.149811
     7  H    0.149824
     8  H    0.156447
     9  H    0.165821
    10  H    0.159918
    11  C   -0.297440
    12  C   -0.299389
    13  C   -0.475094
    14  H    0.144018
    15  H    0.149873
    16  H    0.150337
    17  H    0.154088
    18  H    0.155834
    19  H    0.151521
    20  H    0.160793
    21  C   -0.170637
    22  C   -0.218451
    23  C   -0.170660
    24  C    0.159244
    25  C   -0.171926
    26  C   -0.218939
    27  H    0.226191
    28  H    0.223982
    29  H    0.276043
    30  H    0.275786
    31  H    0.223917
    32  N    0.488562
    33  O   -0.460141
    34  O   -0.457507
 Sum of Mulliken charges =  -0.00000

 Dipole moment (field-independent basis, Debye):
    X=              0.8776    Y=              4.7644    Z=              1.6699  Tot=              5.1242
 Quadrupole moment (field-independent basis, Debye-Ang):
   XX=            -97.8744   YY=            -93.2714   ZZ=            -93.3293
   XY=            -11.9145   XZ=             -6.9449   YZ=             -1.9812

 Normal termination of Gaussian 16 at Thu May  6 08:59:29 2021.
