 Gaussian 16, Revision A.03,
 Gaussian 16:  EM64L-G16RevA.03 25-Dec-2016

 -------------
 #p 6-31g* mp2
 -------------

 ------------------------------------------------------
 Input file generated by CHIRIPA (05-May-2021 14:57:22)
 ------------------------------------------------------
 Symbolic Z-matrix:
 Charge =  0 Multiplicity = 1

                         Standard orientation:
 ---------------------------------------------------------------------
 Center     Atomic      Atomic             Coordinates (Angstroms)
 Number     Number       Type             X           Y           Z
 ---------------------------------------------------------------------
      1          6           0       -3.313465    2.647464    0.611644
      2          6           0       -2.267522    1.823401    1.039950
      3          6           0       -2.280946    0.454287    0.757295
      4          6           0       -3.360784   -0.059634    0.040967
      5          6           0       -4.417740    0.735479   -0.399407
      6          6           0       -4.383349    2.101834   -0.105403
      7          1           0       -3.294893    3.709953    0.835625
      8          1           0       -1.435351    2.244397    1.596995
      9          1           0       -1.484322   -0.206546    1.076838
     10          1           0       -5.233757    0.286862   -0.952830
     11          1           0       -5.197016    2.739415   -0.439292
     12          7           0       -3.386093   -1.507594   -0.264274
     13          8           0       -4.348856   -1.935919   -0.896937
     14          8           0       -2.442689   -2.186762    0.134921
     15          6           0        1.496995   -1.858554    0.203461
     16          6           0        1.317378   -0.755788   -0.638065
     17          6           0        2.340871    0.181134   -0.808903
     18          6           0        3.536393   -0.016635   -0.119768
     19          6           0        3.745751   -1.105075    0.725665
     20          6           0        2.708472   -2.029377    0.881445
     21          1           0        0.696565   -2.581475    0.330323
     22          1           0        0.377592   -0.620575   -1.165859
     23          1           0        2.228643    1.043923   -1.454207
     24          1           0        4.693787   -1.212990    1.238500
     25          1           0        2.850777   -2.884849    1.535633
     26          7           0        4.627217    0.968562   -0.292656
     27          8           0        5.671008    0.771639    0.325696
     28          8           0        4.417760    1.919026   -1.043243
 ---------------------------------------------------------------------

 SCF Done:  E(RHF) =  -868.340274724     A.U. after   16 cycles
 E2 =    -0.2599725225D+01 EUMP2 =    -0.87093999994949D+03

 The electronic state is 1-A.
 Alpha  occ. eigenvalues --  -20.61839 -20.61763 -20.60771 -20.60762 -15.86835
 Alpha  occ. eigenvalues --  -15.85820 -11.31954 -11.31099 -11.28480 -11.28454
 Alpha  occ. eigenvalues --  -11.28130 -11.27678 -11.27657 -11.27415 -11.27405
 Alpha  occ. eigenvalues --  -11.27180 -11.26576 -11.26564  -1.60861  -1.59848
 Alpha  occ. eigenvalues --   -1.40427  -1.39404  -1.20091  -1.19251  -1.09522
 Alpha  occ. eigenvalues --   -1.08619  -1.05447  -1.04642  -0.96401  -0.95469
 Alpha  occ. eigenvalues --   -0.86858  -0.86012  -0.83243  -0.82311  -0.78332
 Alpha  occ. eigenvalues --   -0.77410  -0.73067  -0.72178  -0.72032  -0.71179
 Alpha  occ. eigenvalues --   -0.71171  -0.70210  -0.65736  -0.65439  -0.64869
 Alpha  occ. eigenvalues --   -0.64598  -0.62795  -0.61976  -0.55930  -0.54963
 Alpha  occ. eigenvalues --   -0.53806  -0.53539  -0.52960  -0.52688  -0.49827
 Alpha  occ. eigenvalues --   -0.49772  -0.48799  -0.48783  -0.45879  -0.44829
 Alpha  occ. eigenvalues --   -0.38049  -0.37220  -0.37024  -0.36259
 Alpha virt. eigenvalues --    0.04155   0.05110   0.10469   0.11371   0.15711
 Alpha virt. eigenvalues --    0.16633   0.20697   0.21846   0.26568   0.27245
 Alpha virt. eigenvalues --    0.27589   0.28828   0.30610   0.31181   0.31954

 Mulliken charges:
               1
     1  C   -0.169925
     2  C   -0.219697
     3  C   -0.177066
     4  C    0.156684
     5  C   -0.170559
     6  C   -0.218237
     7  H    0.229533
     8  H    0.228457
     9  H    0.274437
    10  H    0.276992
    11  H    0.226422
    12  N    0.490927
    13  O   -0.453962
    14  O   -0.473437
    15  C   -0.179754
    16  C   -0.227075
    17  C   -0.173651
    18  C    0.157254
    19  C   -0.171376
    20  C   -0.219982
    21  H    0.247971
    22  H    0.227322
    23  H    0.273581
    24  H    0.274960
    25  H    0.224915
    26  N    0.488127
    27  O   -0.460622
    28  O   -0.462239
 Sum of Mulliken charges =  -0.00000

 Dipole moment (field-independent basis, Debye):
    X=             -4.0585    Y=              1.6458    Z=              1.7021  Tot=              4.6987
 Quadrupole moment (field-independent basis, Debye-Ang):
   XX=           -127.2983   YY=           -104.2718   ZZ=           -102.9217
   XY=            -32.5650   XZ=              3.5924   YZ=             -1.4947

 Normal termination of Gaussian 16 at Fri May  7 03:20:42 2021.
