 Gaussian 16, Revision A.03,
 Gaussian 16:  EM64L-G16RevA.03 25-Dec-2016

 -------------
 #p 6-31g* mp2
 -------------

 ------------------------------------------------------
 Input file generated by CHIRIPA (05-May-2021 14:51:10)
 ------------------------------------------------------
 Symbolic Z-matrix:
 Charge =  0 Multiplicity = 1

                         Standard orientation:
 ---------------------------------------------------------------------
 Center     Atomic      Atomic             Coordinates (Angstroms)
 Number     Number       Type             X           Y           Z
 ---------------------------------------------------------------------
      1          6           0        3.160182   -0.649988    0.501259
      2          6           0        1.643722   -0.522477    0.649833
      3          6           0        0.993098   -1.797520    1.187185
      4          1           0        3.387156   -1.489906   -0.169536
      5          1           0        3.597280   -0.902506    1.477258
      6          1           0        1.209757   -0.268914   -0.325870
      7          1           0        1.420326    0.317355    1.320201
      8          1           0        1.398525   -2.051333    2.171974
      9          1           0        1.186759   -2.640933    0.516551
     10          1           0       -0.091044   -1.684280    1.285540
     11          6           0        3.824995    0.616615   -0.034902
     12          6           0        5.341455    0.489103   -0.183476
     13          6           0        5.992079    1.764146   -0.720829
     14          1           0        3.387897    0.869133   -1.010901
     15          1           0        3.598021    1.456532    0.635893
     16          1           0        5.564851   -0.350729   -0.853844
     17          1           0        5.775420    0.235540    0.792227
     18          1           0        5.798418    2.607559   -0.050194
     19          1           0        5.586652    2.017959   -1.705617
     20          1           0        7.076221    1.650907   -0.819183
     21          6           0       -3.001160   -0.416487   -0.625977
     22          6           0       -2.990897   -1.878878   -0.179551
     23          6           0       -2.002775   -2.732776   -0.974703
     24          1           0       -3.249770   -0.367815   -1.694981
     25          1           0       -1.989225   -0.001276   -0.521184
     26          1           0       -4.002850   -2.290810   -0.283848
     27          1           0       -2.742470   -1.924061    0.888559
     28          1           0       -0.983815   -2.348643   -0.861736
     29          1           0       -2.251355   -2.717474   -2.040805
     30          1           0       -2.011772   -3.774502   -0.639163
     31          6           0       -3.984017    0.449861    0.159620
     32          6           0       -3.994280    1.912251   -0.286806
     33          6           0       -4.982401    2.766150    0.508346
     34          1           0       -4.995951    0.034650    0.054828
     35          1           0       -3.735407    0.401189    1.228624
     36          1           0       -4.242706    1.957435   -1.354916
     37          1           0       -2.982327    2.324183   -0.182508
     38          1           0       -4.733822    2.750849    1.574449
     39          1           0       -6.001363    2.382016    0.395379
     40          1           0       -4.973405    3.807875    0.172806
 ---------------------------------------------------------------------

 SCF Done:  E(RHF) =  -470.732501317     A.U. after   11 cycles
 E2 =    -0.1583566172D+01 EUMP2 =    -0.47231606748970D+03

 The electronic state is 1-A.
 Alpha  occ. eigenvalues --  -11.21679 -11.21624 -11.21591 -11.21582 -11.21445
 Alpha  occ. eigenvalues --  -11.21395 -11.21383 -11.21335 -11.21088 -11.21087
 Alpha  occ. eigenvalues --  -11.21064 -11.20932  -1.08481  -1.08410  -1.03613
 Alpha  occ. eigenvalues --   -1.03472  -0.96079  -0.95896  -0.87091  -0.86915
 Alpha  occ. eigenvalues --   -0.79647  -0.79560  -0.78289  -0.78225  -0.65170
 Alpha  occ. eigenvalues --   -0.65022  -0.61205  -0.60827  -0.59350  -0.59281
 Alpha  occ. eigenvalues --   -0.57626  -0.57549  -0.55535  -0.55033  -0.52697
 Alpha  occ. eigenvalues --   -0.52640  -0.52437  -0.52338  -0.50142  -0.49680
 Alpha  occ. eigenvalues --   -0.47963  -0.47859  -0.46701  -0.46552  -0.45861
 Alpha  occ. eigenvalues --   -0.45771  -0.45749  -0.45641  -0.43816  -0.43753
 Alpha virt. eigenvalues --    0.20328   0.23002   0.23681   0.25049   0.26070
 Alpha virt. eigenvalues --    0.26445   0.26935   0.27468   0.28112   0.29281
 Alpha virt. eigenvalues --    0.30267   0.31084   0.31385   0.31879   0.32385

 Mulliken charges:
               1
     1  C   -0.298355
     2  C   -0.302735
     3  C   -0.482757
     4  H    0.150088
     5  H    0.149893
     6  H    0.153023
     7  H    0.152071
     8  H    0.156202
     9  H    0.156499
    10  H    0.166022
    11  C   -0.298361
    12  C   -0.299703
    13  C   -0.475741
    14  H    0.149678
    15  H    0.149627
    16  H    0.152078
    17  H    0.151973
    18  H    0.155181
    19  H    0.155270
    20  H    0.160352
    21  C   -0.300744
    22  C   -0.301639
    23  C   -0.481606
    24  H    0.149801
    25  H    0.151293
    26  H    0.152500
    27  H    0.151718
    28  H    0.164580
    29  H    0.154020
    30  H    0.159717
    31  C   -0.298100
    32  C   -0.299726
    33  C   -0.475697
    34  H    0.149592
    35  H    0.149431
    36  H    0.151888
    37  H    0.152133
    38  H    0.155145
    39  H    0.155163
    40  H    0.160227
 Sum of Mulliken charges =  -0.00000

 Dipole moment (field-independent basis, Debye):
    X=              0.0365    Y=             -0.0027    Z=              0.0062  Tot=              0.0371
 Quadrupole moment (field-independent basis, Debye-Ang):
   XX=            -85.1018   YY=            -85.9225   ZZ=            -83.8007
   XY=              0.1125   XZ=              1.1525   YZ=              0.4058

 Normal termination of Gaussian 16 at Wed May  5 23:00:47 2021.
