 Gaussian 16, Revision A.03,
 Gaussian 16:  EM64L-G16RevA.03 25-Dec-2016

 -------------
 #p 6-31g* mp2
 -------------

 ------------------------------------------------------
 Input file generated by CHIRIPA (05-May-2021 14:55:19)
 ------------------------------------------------------
 Symbolic Z-matrix:
 Charge =  0 Multiplicity = 1

                         Standard orientation:
 ---------------------------------------------------------------------
 Center     Atomic      Atomic             Coordinates (Angstroms)
 Number     Number       Type             X           Y           Z
 ---------------------------------------------------------------------
      1          6           0        1.424966   -0.691015   -0.020552
      2          6           0        1.887540    0.628867    0.000868
      3          6           0        3.258900    0.900507    0.012230
      4          6           0        4.143657   -0.176704    0.001626
      5          6           0        3.713774   -1.502613   -0.019702
      6          6           0        2.337950   -1.750674   -0.030750
      7          1           0        0.357926   -0.892873   -0.029256
      8          1           0        1.180805    1.453796    0.008830
      9          1           0        3.644354    1.912717    0.028824
     10          1           0        4.442521   -2.304042   -0.027207
     11          1           0        1.981575   -2.776718   -0.047384
     12          7           0        5.597818    0.098389    0.013488
     13          8           0        6.356825   -0.868281    0.003782
     14          8           0        5.951047    1.275467    0.032268
     15          6           0       -4.587465    0.928476   -0.023006
     16          6           0       -3.077800    0.688868    0.015492
     17          6           0       -2.271769    1.987270   -0.032073
     18          1           0       -4.840712    1.485726   -0.935301
     19          1           0       -4.871756    1.568839    0.823462
     20          1           0       -2.796641    0.048012   -0.830008
     21          1           0       -2.828142    0.131957    0.927706
     22          1           0       -2.523491    2.628362    0.818949
     23          1           0       -2.491813    2.543940   -0.948752
     24          1           0       -1.195114    1.792705   -0.003487
     25          6           0       -5.406759   -0.360047    0.023849
     26          6           0       -6.916425   -0.120440   -0.014649
     27          6           0       -7.722454   -1.418842    0.032915
     28          1           0       -5.122467   -1.000410   -0.822620
     29          1           0       -5.153512   -0.917298    0.936144
     30          1           0       -7.166082    0.436472   -0.926865
     31          1           0       -7.197582    0.520416    0.830850
     32          1           0       -7.502411   -1.975511    0.949594
     33          1           0       -7.470733   -2.059933   -0.818108
     34          1           0       -8.799110   -1.224277    0.004328
 ---------------------------------------------------------------------

 SCF Done:  E(RHF) =  -669.535492416     A.U. after   15 cycles
 E2 =    -0.2091041274D+01 EUMP2 =    -0.67162653368954D+03

 The electronic state is 1-A.
 Alpha  occ. eigenvalues --  -20.60728 -20.60723 -15.85781 -11.31140 -11.27713
 Alpha  occ. eigenvalues --  -11.27707 -11.27440 -11.26724 -11.26705 -11.22728
 Alpha  occ. eigenvalues --  -11.22313 -11.22237 -11.22182 -11.22081 -11.21566
 Alpha  occ. eigenvalues --   -1.59803  -1.39357  -1.19313  -1.09253  -1.08709
 Alpha  occ. eigenvalues --   -1.04719  -1.04376  -0.96821  -0.95543  -0.87842
 Alpha  occ. eigenvalues --   -0.86118  -0.82377  -0.80459  -0.79027  -0.77430
 Alpha  occ. eigenvalues --   -0.72000  -0.71126  -0.70418  -0.65871  -0.64968
 Alpha  occ. eigenvalues --   -0.64769  -0.62111  -0.61755  -0.60214  -0.58421
 Alpha  occ. eigenvalues --   -0.56076  -0.55212  -0.53603  -0.53274  -0.53046
 Alpha  occ. eigenvalues --   -0.52720  -0.50740  -0.48810  -0.48755  -0.48713
 Alpha  occ. eigenvalues --   -0.47475  -0.46575  -0.46469  -0.44764  -0.44623
 Alpha  occ. eigenvalues --   -0.37292  -0.36322
 Alpha virt. eigenvalues --    0.05111   0.11330   0.16604   0.18946   0.22369
 Alpha virt. eigenvalues --    0.23876   0.25567   0.25843   0.26004   0.27493
 Alpha virt. eigenvalues --    0.28915   0.29586   0.30632   0.31642   0.32003

 Mulliken charges:
               1
     1  C   -0.174616
     2  C   -0.224599
     3  C   -0.171348
     4  C    0.158805
     5  C   -0.171140
     6  C   -0.218777
     7  H    0.228415
     8  H    0.230640
     9  H    0.275994
    10  H    0.275426
    11  H    0.223350
    12  N    0.487905
    13  O   -0.460574
    14  O   -0.460456
    15  C   -0.299138
    16  C   -0.301898
    17  C   -0.479707
    18  H    0.152236
    19  H    0.152220
    20  H    0.150074
    21  H    0.151166
    22  H    0.161045
    23  H    0.160883
    24  H    0.150507
    25  C   -0.298944
    26  C   -0.300292
    27  C   -0.476144
    28  H    0.149523
    29  H    0.149865
    30  H    0.153131
    31  H    0.153161
    32  H    0.155585
    33  H    0.155517
    34  H    0.162189
 Sum of Mulliken charges =  -0.00000

 Dipole moment (field-independent basis, Debye):
    X=             -5.4006    Y=             -0.9343    Z=             -0.0414  Tot=              5.4809
 Quadrupole moment (field-independent basis, Debye-Ang):
   XX=           -137.1029   YY=            -90.1383   ZZ=            -94.6043
   XY=             -4.9908   XZ=             -0.1969   YZ=              0.1517

 Normal termination of Gaussian 16 at Wed May  5 23:43:25 2021.
