 Gaussian 16, Revision A.03,
 Gaussian 16:  EM64L-G16RevA.03 25-Dec-2016

 -------------
 #p 6-31g* mp2
 -------------

 ------------------------------------------------------
 Input file generated by CHIRIPA (05-May-2021 14:53:18)
 ------------------------------------------------------
 Symbolic Z-matrix:
 Charge =  0 Multiplicity = 1

                         Standard orientation:
 ---------------------------------------------------------------------
 Center     Atomic      Atomic             Coordinates (Angstroms)
 Number     Number       Type             X           Y           Z
 ---------------------------------------------------------------------
      1          6           0        3.431068   -0.266621    0.313571
      2          6           0        4.004558   -1.306890   -0.649203
      3          6           0        4.021520   -2.715838   -0.055594
      4          1           0        4.021717   -0.268687    1.239894
      5          1           0        2.409767   -0.559919    0.593423
      6          1           0        5.023970   -1.010992   -0.928239
      7          1           0        3.412593   -1.302214   -1.573417
      8          1           0        3.007798   -3.035710    0.206416
      9          1           0        4.628330   -2.742834    0.855260
     10          1           0        4.435322   -3.443559   -0.760612
     11          6           0        3.407491    1.146813   -0.265544
     12          6           0        2.834000    2.187082    0.697231
     13          6           0        2.817038    3.596030    0.103621
     14          1           0        4.428792    1.440111   -0.545396
     15          1           0        2.816842    1.148879   -1.191867
     16          1           0        3.425966    2.182406    1.621445
     17          1           0        1.814589    1.891184    0.976267
     18          1           0        2.210229    3.623026   -0.807233
     19          1           0        3.830761    3.915902   -0.158389
     20          1           0        2.403237    4.323751    0.808639
     21          6           0       -0.436945   -1.502467    0.157519
     22          6           0       -1.272797   -1.419851    1.276021
     23          6           0       -2.512966   -0.780231    1.189915
     24          6           0       -2.887323   -0.231811   -0.035803
     25          6           0       -2.076783   -0.297825   -1.168038
     26          6           0       -0.840894   -0.942178   -1.058796
     27          1           0        0.524787   -2.001177    0.233394
     28          1           0       -0.961685   -1.854071    2.221910
     29          1           0       -3.179681   -0.701891    2.040076
     30          1           0       -2.414308    0.144588   -2.097429
     31          1           0       -0.193816   -1.004831   -1.929091
     32          7           0       -4.197969    0.447830   -0.139206
     33          8           0       -4.504650    0.922917   -1.230478
     34          8           0       -4.893756    0.492578    0.872978
 ---------------------------------------------------------------------

 SCF Done:  E(RHF) =  -669.535221720     A.U. after   15 cycles
 E2 =    -0.2092426347D+01 EUMP2 =    -0.67162764806689D+03

 The electronic state is 1-A.
 Alpha  occ. eigenvalues --  -20.60800 -20.60795 -15.85854 -11.31241 -11.27808
 Alpha  occ. eigenvalues --  -11.27802 -11.27536 -11.26838 -11.26822 -11.22617
 Alpha  occ. eigenvalues --  -11.22292 -11.22200 -11.22115 -11.22054 -11.21442
 Alpha  occ. eigenvalues --   -1.59875  -1.39428  -1.19416  -1.09243  -1.08805
 Alpha  occ. eigenvalues --   -1.04818  -1.04295  -0.96746  -0.95641  -0.87761
 Alpha  occ. eigenvalues --   -0.86213  -0.82474  -0.80372  -0.79022  -0.77510
 Alpha  occ. eigenvalues --   -0.72072  -0.71198  -0.70568  -0.65893  -0.65064
 Alpha  occ. eigenvalues --   -0.64802  -0.62162  -0.61701  -0.60133  -0.58341
 Alpha  occ. eigenvalues --   -0.56066  -0.55338  -0.53420  -0.53204  -0.53104
 Alpha  occ. eigenvalues --   -0.52907  -0.50711  -0.48838  -0.48825  -0.48668
 Alpha  occ. eigenvalues --   -0.47413  -0.46548  -0.46454  -0.44829  -0.44541
 Alpha  occ. eigenvalues --   -0.37368  -0.36422
 Alpha virt. eigenvalues --    0.04977   0.11209   0.16332   0.18570   0.22809
 Alpha virt. eigenvalues --    0.23623   0.25223   0.25582   0.27219   0.27956
 Alpha virt. eigenvalues --    0.28983   0.30337   0.30947   0.31408   0.32009

 Mulliken charges:
               1
     1  C   -0.303034
     2  C   -0.301149
     3  C   -0.477197
     4  H    0.152803
     5  H    0.144466
     6  H    0.157665
     7  H    0.147493
     8  H    0.145687
     9  H    0.159983
    10  H    0.165027
    11  C   -0.297095
    12  C   -0.301335
    13  C   -0.476079
    14  H    0.151946
    15  H    0.147440
    16  H    0.152399
    17  H    0.154584
    18  H    0.156005
    19  H    0.155593
    20  H    0.163006
    21  C   -0.173756
    22  C   -0.221395
    23  C   -0.170578
    24  C    0.158714
    25  C   -0.170725
    26  C   -0.221584
    27  H    0.233463
    28  H    0.224459
    29  H    0.275878
    30  H    0.275790
    31  H    0.223979
    32  N    0.487989
    33  O   -0.460259
    34  O   -0.460186
 Sum of Mulliken charges =  -0.00000

 Dipole moment (field-independent basis, Debye):
    X=              4.7370    Y=             -2.3099    Z=              0.3879  Tot=              5.2844
 Quadrupole moment (field-independent basis, Debye-Ang):
   XX=           -120.3387   YY=            -95.1439   ZZ=            -90.1053
   XY=              6.3322   XZ=             -1.8753   YZ=             -0.7227

 Normal termination of Gaussian 16 at Thu May  6 07:36:04 2021.
