 Gaussian 16, Revision A.03,
 Gaussian 16:  EM64L-G16RevA.03 25-Dec-2016

 -------------
 #p 6-31g* mp2
 -------------

 ------------------------------------------------------
 Input file generated by CHIRIPA (05-May-2021 14:51:09)
 ------------------------------------------------------
 Symbolic Z-matrix:
 Charge =  0 Multiplicity = 1

                         Standard orientation:
 ---------------------------------------------------------------------
 Center     Atomic      Atomic             Coordinates (Angstroms)
 Number     Number       Type             X           Y           Z
 ---------------------------------------------------------------------
      1          6           0        2.452348    0.363254   -0.711502
      2          6           0        3.287718   -0.816954   -0.214259
      3          6           0        3.610774   -1.820671   -1.321499
      4          1           0        1.518464   -0.015302   -1.149109
      5          1           0        2.993752    0.871206   -1.521602
      6          1           0        2.745517   -1.321695    0.595600
      7          1           0        4.219636   -0.435532    0.222389
      8          1           0        4.173097   -1.337720   -2.127199
      9          1           0        2.690602   -2.228919   -1.751868
     10          1           0        4.208580   -2.656163   -0.944085
     11          6           0        2.121283    1.375304    0.383889
     12          6           0        1.285913    2.555512   -0.113354
     13          6           0        0.962857    3.559229    0.993886
     14          1           0        1.579879    0.867352    1.193989
     15          1           0        3.055167    1.753860    0.821496
     16          1           0        0.353995    2.174090   -0.550002
     17          1           0        1.828114    3.060253   -0.923213
     18          1           0        1.883029    3.967477    1.424255
     19          1           0        0.400534    3.076278    1.799586
     20          1           0        0.365051    4.394721    0.616472
     21          6           0       -2.615190   -0.183593    0.090064
     22          6           0       -3.897768   -0.211827   -0.741911
     23          6           0       -4.543033    1.167391   -0.880420
     24          1           0       -2.841171    0.218861    1.087013
     25          1           0       -1.901192    0.511441   -0.373109
     26          1           0       -4.608613   -0.907649   -0.278071
     27          1           0       -3.668744   -0.614440   -1.736932
     28          1           0       -3.854471    1.868071   -1.363671
     29          1           0       -4.799681    1.573196    0.103478
     30          1           0       -5.458391    1.124104   -1.478839
     31          6           0       -1.958441   -1.554964    0.237549
     32          6           0       -0.675864   -1.526731    1.069524
     33          6           0       -0.030598   -2.905949    1.208033
     34          1           0       -2.672440   -2.249999    0.700722
     35          1           0       -1.732460   -1.957418   -0.759400
     36          1           0       -0.904888   -1.124118    2.064544
     37          1           0        0.034982   -0.830909    0.605684
     38          1           0        0.226050   -3.311754    0.224135
     39          1           0       -0.719160   -3.606628    1.691284
     40          1           0        0.884760   -2.862662    1.806452
 ---------------------------------------------------------------------

 SCF Done:  E(RHF) =  -470.732314890     A.U. after   11 cycles
 E2 =    -0.1585608043D+01 EUMP2 =    -0.47231792293287D+03

 The electronic state is 1-A.
 Alpha  occ. eigenvalues --  -11.21649 -11.21625 -11.21615 -11.21586 -11.21473
 Alpha  occ. eigenvalues --  -11.21415 -11.21414 -11.21338 -11.21143 -11.21102
 Alpha  occ. eigenvalues --  -11.21076 -11.21059  -1.08552  -1.08399  -1.03608
 Alpha  occ. eigenvalues --   -1.03514  -0.96041  -0.95987  -0.87055  -0.86999
 Alpha  occ. eigenvalues --   -0.79707  -0.79558  -0.78330  -0.78257  -0.65591
 Alpha  occ. eigenvalues --   -0.64732  -0.61161  -0.60744  -0.59427  -0.59315
 Alpha  occ. eigenvalues --   -0.57651  -0.57592  -0.55326  -0.55302  -0.52733
 Alpha  occ. eigenvalues --   -0.52671  -0.52495  -0.52382  -0.50015  -0.49889
 Alpha  occ. eigenvalues --   -0.48014  -0.47909  -0.46798  -0.46487  -0.46133
 Alpha  occ. eigenvalues --   -0.45846  -0.45669  -0.45379  -0.43840  -0.43784
 Alpha virt. eigenvalues --    0.19372   0.21860   0.23502   0.25035   0.25372
 Alpha virt. eigenvalues --    0.26118   0.27058   0.27601   0.28814   0.29631
 Alpha virt. eigenvalues --    0.30739   0.31357   0.31848   0.32099   0.32554

 Mulliken charges:
               1
     1  C   -0.301694
     2  C   -0.304245
     3  C   -0.475481
     4  H    0.148779
     5  H    0.151075
     6  H    0.157596
     7  H    0.152056
     8  H    0.155053
     9  H    0.154791
    10  H    0.160482
    11  C   -0.302895
    12  C   -0.302908
    13  C   -0.475575
    14  H    0.153330
    15  H    0.150537
    16  H    0.154015
    17  H    0.152077
    18  H    0.155086
    19  H    0.155943
    20  H    0.160208
    21  C   -0.302564
    22  C   -0.299558
    23  C   -0.475771
    24  H    0.149918
    25  H    0.152399
    26  H    0.152261
    27  H    0.152044
    28  H    0.155232
    29  H    0.155348
    30  H    0.160462
    31  C   -0.297366
    32  C   -0.312352
    33  C   -0.476896
    34  H    0.149978
    35  H    0.149183
    36  H    0.151420
    37  H    0.165672
    38  H    0.155724
    39  H    0.155804
    40  H    0.160831
 Sum of Mulliken charges =  -0.00000

 Dipole moment (field-independent basis, Debye):
    X=             -0.0053    Y=             -0.0067    Z=              0.0201  Tot=              0.0219
 Quadrupole moment (field-independent basis, Debye-Ang):
   XX=            -84.1440   YY=            -86.0201   ZZ=            -84.5355
   XY=              1.3124   XZ=             -0.5084   YZ=             -0.6408

 Normal termination of Gaussian 16 at Thu May  6 03:45:14 2021.
