 Gaussian 16, Revision A.03,
 Gaussian 16:  EM64L-G16RevA.03 25-Dec-2016

 -------------
 #p 6-31g* mp2
 -------------

 ------------------------------------------------------
 Input file generated by CHIRIPA (05-May-2021 14:53:15)
 ------------------------------------------------------
 Symbolic Z-matrix:
 Charge =  0 Multiplicity = 1

                         Standard orientation:
 ---------------------------------------------------------------------
 Center     Atomic      Atomic             Coordinates (Angstroms)
 Number     Number       Type             X           Y           Z
 ---------------------------------------------------------------------
      1          6           0        3.265236    1.037760   -0.329798
      2          6           0        3.304538    2.096878    0.772341
      3          6           0        2.997200    3.501847    0.253305
      4          1           0        3.986499    1.306524   -1.113692
      5          1           0        2.272980    1.046384   -0.801761
      6          1           0        4.295978    2.085311    1.243010
      7          1           0        2.583234    1.825460    1.553794
      8          1           0        2.000585    3.536145   -0.198562
      9          1           0        3.723061    3.797472   -0.511112
     10          1           0        3.030681    4.243244    1.057711
     11          6           0        3.570439   -0.371939    0.173520
     12          6           0        3.531137   -1.431057   -0.928619
     13          6           0        3.838475   -2.836026   -0.409583
     14          1           0        4.562695   -0.380563    0.645483
     15          1           0        2.849175   -0.640703    0.957414
     16          1           0        4.252441   -1.159639   -1.710072
     17          1           0        2.539697   -1.419490   -1.399288
     18          1           0        3.112614   -3.131651    0.354834
     19          1           0        4.835089   -2.870324    0.042284
     20          1           0        3.804994   -3.577423   -1.213989
     21          6           0       -0.517036   -1.340904    0.810514
     22          6           0       -0.632229   -0.837783   -0.489531
     23          6           0       -1.820479   -0.236903   -0.915622
     24          6           0       -2.878344   -0.155597   -0.011410
     25          6           0       -2.794384   -0.647453    1.290250
     26          6           0       -1.596578   -1.244305    1.694697
     27          1           0        0.409737   -1.806118    1.133106
     28          1           0        0.204520   -0.911421   -1.178353
     29          1           0       -1.936843    0.160906   -1.916435
     30          1           0       -3.645755   -0.559488    1.954213
     31          1           0       -1.509967   -1.634165    2.704921
     32          7           0       -4.141349    0.478395   -0.451037
     33          8           0       -5.058758    0.537734    0.364730
     34          8           0       -4.189969    0.903974   -1.603060
 ---------------------------------------------------------------------

 SCF Done:  E(RHF) =  -669.535251553     A.U. after   15 cycles
 E2 =    -0.2092685867D+01 EUMP2 =    -0.67162793741943D+03

 The electronic state is 1-A.
 Alpha  occ. eigenvalues --  -20.60779 -20.60774 -15.85833 -11.31211 -11.27782
 Alpha  occ. eigenvalues --  -11.27778 -11.27522 -11.26796 -11.26776 -11.22809
 Alpha  occ. eigenvalues --  -11.22453 -11.22245 -11.22185 -11.22185 -11.21518
 Alpha  occ. eigenvalues --   -1.59855  -1.39408  -1.19385  -1.09379  -1.08774
 Alpha  occ. eigenvalues --   -1.04790  -1.04398  -0.96828  -0.95610  -0.87844
 Alpha  occ. eigenvalues --   -0.86190  -0.82445  -0.80493  -0.79156  -0.77488
 Alpha  occ. eigenvalues --   -0.72052  -0.71178  -0.70512  -0.66137  -0.65030
 Alpha  occ. eigenvalues --   -0.64714  -0.62181  -0.61739  -0.60215  -0.58431
 Alpha  occ. eigenvalues --   -0.56130  -0.55303  -0.53510  -0.53250  -0.53099
 Alpha  occ. eigenvalues --   -0.52896  -0.50786  -0.48836  -0.48806  -0.48768
 Alpha  occ. eigenvalues --   -0.47543  -0.46678  -0.46580  -0.44811  -0.44655
 Alpha  occ. eigenvalues --   -0.37359  -0.36387
 Alpha virt. eigenvalues --    0.05032   0.11169   0.16450   0.17812   0.22984
 Alpha virt. eigenvalues --    0.23285   0.24167   0.25319   0.27162   0.28585
 Alpha virt. eigenvalues --    0.29244   0.29971   0.30989   0.31601   0.31823

 Mulliken charges:
               1
     1  C   -0.299415
     2  C   -0.300069
     3  C   -0.476580
     4  H    0.152716
     5  H    0.147143
     6  H    0.153094
     7  H    0.152459
     8  H    0.157452
     9  H    0.156073
    10  H    0.162703
    11  C   -0.300591
    12  C   -0.305215
    13  C   -0.475381
    14  H    0.154785
    15  H    0.143402
    16  H    0.158903
    17  H    0.144618
    18  H    0.148542
    19  H    0.160460
    20  H    0.164613
    21  C   -0.176153
    22  C   -0.224860
    23  C   -0.172481
    24  C    0.158956
    25  C   -0.170755
    26  C   -0.219045
    27  H    0.229298
    28  H    0.232275
    29  H    0.276268
    30  H    0.275717
    31  H    0.223755
    32  N    0.487942
    33  O   -0.460353
    34  O   -0.460276
 Sum of Mulliken charges =  -0.00000

 Dipole moment (field-independent basis, Debye):
    X=              4.6367    Y=             -2.1592    Z=              1.5442  Tot=              5.3428
 Quadrupole moment (field-independent basis, Debye-Ang):
   XX=           -118.2512   YY=            -95.5005   ZZ=            -90.8430
   XY=              6.5208   XZ=             -6.9743   YZ=             -0.8381

 Normal termination of Gaussian 16 at Thu May  6 05:54:41 2021.
