 Gaussian 16, Revision A.03,
 Gaussian 16:  EM64L-G16RevA.03 25-Dec-2016

 -------------
 #p 6-31g* mp2
 -------------

 ------------------------------------------------------
 Input file generated by CHIRIPA (05-May-2021 14:53:15)
 ------------------------------------------------------
 Symbolic Z-matrix:
 Charge =  0 Multiplicity = 1

                         Standard orientation:
 ---------------------------------------------------------------------
 Center     Atomic      Atomic             Coordinates (Angstroms)
 Number     Number       Type             X           Y           Z
 ---------------------------------------------------------------------
      1          6           0       -3.714695   -0.646410    0.165331
      2          6           0       -4.469603    0.653169    0.446743
      3          6           0       -5.719546    0.437736    1.300574
      4          1           0       -4.388256   -1.352275   -0.339659
      5          1           0       -3.432206   -1.112195    1.119605
      6          1           0       -4.749376    1.117068   -0.507794
      7          1           0       -3.794110    1.356091    0.950950
      8          1           0       -5.454603   -0.003053    2.267068
      9          1           0       -6.415296   -0.243435    0.800036
     10          1           0       -6.243865    1.379661    1.489587
     11          6           0       -2.462736   -0.447351   -0.687137
     12          6           0       -1.707827   -1.746930   -0.968549
     13          6           0       -0.457885   -1.531497   -1.822380
     14          1           0       -2.745224    0.018434   -1.641412
     15          1           0       -1.789174    0.258514   -0.182147
     16          1           0       -2.383320   -2.449852   -1.472757
     17          1           0       -1.428054   -2.210828   -0.014012
     18          1           0        0.237866   -0.850326   -1.321842
     19          1           0       -0.722827   -1.090708   -2.788875
     20          1           0        0.066435   -2.473422   -2.011394
     21          6           0        3.509399   -1.484517    1.432288
     22          6           0        3.589625   -1.410752    0.037784
     23          6           0        2.985969   -0.355995   -0.653328
     24          6           0        2.307068    0.612073    0.085068
     25          6           0        2.209562    0.566322    1.474920
     26          6           0        2.820837   -0.497485    2.145149
     27          1           0        3.981292   -2.307393    1.961049
     28          1           0        4.123712   -2.175876   -0.518437
     29          1           0        3.032571   -0.274410   -1.732490
     30          1           0        1.670209    1.343982    2.001951
     31          1           0        2.756906   -0.552205    3.228183
     32          7           0        1.663972    1.733487   -0.635527
     33          8           0        1.071727    2.573738    0.038166
     34          8           0        1.764335    1.750967   -1.860378
 ---------------------------------------------------------------------

 SCF Done:  E(RHF) =  -669.534748188     A.U. after   15 cycles
 E2 =    -0.2093413192D+01 EUMP2 =    -0.67162816138018D+03

 The electronic state is 1-A.
 Alpha  occ. eigenvalues --  -20.60868 -20.60853 -15.85889 -11.31223 -11.27828
 Alpha  occ. eigenvalues --  -11.27795 -11.27562 -11.26822 -11.26805 -11.21337
 Alpha  occ. eigenvalues --  -11.21213 -11.21063 -11.20947 -11.20785 -11.20753
 Alpha  occ. eigenvalues --   -1.59925  -1.39479  -1.19430  -1.08826  -1.08087
 Alpha  occ. eigenvalues --   -1.04822  -1.03218  -0.95691  -0.95637  -0.86704
 Alpha  occ. eigenvalues --   -0.86214  -0.82485  -0.79282  -0.77885  -0.77530
 Alpha  occ. eigenvalues --   -0.72114  -0.71270  -0.70530  -0.65076  -0.64820
 Alpha  occ. eigenvalues --   -0.64721  -0.62167  -0.60634  -0.59042  -0.57280
 Alpha  occ. eigenvalues --   -0.55334  -0.55037  -0.53174  -0.52910  -0.52374
 Alpha  occ. eigenvalues --   -0.52056  -0.49600  -0.48875  -0.48872  -0.47594
 Alpha  occ. eigenvalues --   -0.46315  -0.45426  -0.45352  -0.44831  -0.43471
 Alpha  occ. eigenvalues --   -0.37367  -0.36387
 Alpha virt. eigenvalues --    0.04978   0.11183   0.16463   0.21356   0.23126
 Alpha virt. eigenvalues --    0.24531   0.26878   0.27176   0.27686   0.28172
 Alpha virt. eigenvalues --    0.28491   0.30785   0.31687   0.32037   0.32167

 Mulliken charges:
               1
     1  C   -0.297952
     2  C   -0.300034
     3  C   -0.475517
     4  H    0.148220
     5  H    0.146162
     6  H    0.153736
     7  H    0.155204
     8  H    0.153078
     9  H    0.154104
    10  H    0.160436
    11  C   -0.299428
    12  C   -0.299505
    13  C   -0.476684
    14  H    0.153495
    15  H    0.153094
    16  H    0.150484
    17  H    0.147931
    18  H    0.155166
    19  H    0.161032
    20  H    0.152911
    21  C   -0.170668
    22  C   -0.216863
    23  C   -0.170935
    24  C    0.154615
    25  C   -0.171929
    26  C   -0.218555
    27  H    0.225915
    28  H    0.223887
    29  H    0.276617
    30  H    0.275607
    31  H    0.223574
    32  N    0.491305
    33  O   -0.460293
    34  O   -0.458208
 Sum of Mulliken charges =  -0.00000

 Dipole moment (field-independent basis, Debye):
    X=              2.3519    Y=             -3.8445    Z=              2.4894  Tot=              5.1487
 Quadrupole moment (field-independent basis, Debye-Ang):
   XX=            -85.1007   YY=            -99.7236   ZZ=            -90.2422
   XY=             -8.8275   XZ=              5.7472   YZ=              3.0720

 Normal termination of Gaussian 16 at Thu May  6 02:41:17 2021.
