 Gaussian 16, Revision A.03,
 Gaussian 16:  EM64L-G16RevA.03 25-Dec-2016

 -------------
 #p 6-31g* mp2
 -------------

 ------------------------------------------------------
 Input file generated by CHIRIPA (05-May-2021 14:51:12)
 ------------------------------------------------------
 Symbolic Z-matrix:
 Charge =  0 Multiplicity = 1

                         Standard orientation:
 ---------------------------------------------------------------------
 Center     Atomic      Atomic             Coordinates (Angstroms)
 Number     Number       Type             X           Y           Z
 ---------------------------------------------------------------------
      1          6           0        2.111054    1.233980    0.318582
      2          6           0        2.134588    2.330708   -0.746604
      3          6           0        1.676186    3.686729   -0.209139
      4          1           0        1.092980    1.145055    0.721773
      5          1           0        2.754431    1.533442    1.157499
      6          1           0        1.492447    2.028644   -1.583878
      7          1           0        3.152682    2.416901   -1.147442
      8          1           0        2.321958    4.013875    0.612174
      9          1           0        0.652290    3.623411    0.173258
     10          1           0        1.700790    4.456095   -0.987170
     11          6           0        2.566682   -0.127477   -0.203496
     12          6           0        2.543148   -1.224205    0.861690
     13          6           0        3.001550   -2.580226    0.324226
     14          1           0        1.923305   -0.426939   -1.042413
     15          1           0        3.584756   -0.038552   -0.606687
     16          1           0        1.525054   -1.310398    1.262528
     17          1           0        3.185289   -0.922141    1.698964
     18          1           0        4.025446   -2.516908   -0.058172
     19          1           0        2.355778   -2.907372   -0.497088
     20          1           0        2.976946   -3.349592    1.102256
     21          6           0       -1.834164   -1.024934   -0.383459
     22          6           0       -2.035576   -2.490242    0.004213
     23          6           0       -1.018268   -3.421545   -0.655752
     24          1           0       -1.901439   -0.928675   -1.475775
     25          1           0       -0.817406   -0.715502   -0.104443
     26          1           0       -3.052119   -2.796420   -0.274196
     27          1           0       -1.968004   -2.582994    1.095747
     28          1           0        0.001108   -3.143907   -0.368715
     29          1           0       -1.089166   -3.358547   -1.746442
     30          1           0       -1.180587   -4.464093   -0.364879
     31          6           0       -2.843572   -0.081570    0.268374
     32          6           0       -2.642160    1.383739   -0.119299
     33          6           0       -3.659468    2.315042    0.540665
     34          1           0       -3.860330   -0.391001   -0.010643
     35          1           0       -2.776297   -0.177828    1.360689
     36          1           0       -2.709732    1.476491   -1.210834
     37          1           0       -1.625617    1.689918    0.159111
     38          1           0       -3.588569    2.252043    1.631356
     39          1           0       -4.678844    2.037405    0.253629
     40          1           0       -3.497149    3.357591    0.249793
 ---------------------------------------------------------------------

 SCF Done:  E(RHF) =  -470.732871366     A.U. after   11 cycles
 E2 =    -0.1585199661D+01 EUMP2 =    -0.47231807102731D+03

 The electronic state is 1-A.
 Alpha  occ. eigenvalues --  -11.21675 -11.21661 -11.21643 -11.21607 -11.21467
 Alpha  occ. eigenvalues --  -11.21438 -11.21408 -11.21377 -11.21117 -11.21088
 Alpha  occ. eigenvalues --  -11.21080 -11.21067  -1.08529  -1.08432  -1.03621
 Alpha  occ. eigenvalues --   -1.03523  -0.96077  -0.95962  -0.87091  -0.86979
 Alpha  occ. eigenvalues --   -0.79656  -0.79616  -0.78342  -0.78253  -0.65464
 Alpha  occ. eigenvalues --   -0.64788  -0.61317  -0.60670  -0.59386  -0.59365
 Alpha  occ. eigenvalues --   -0.57667  -0.57614  -0.55642  -0.54999  -0.52719
 Alpha  occ. eigenvalues --   -0.52694  -0.52517  -0.52358  -0.50175  -0.49725
 Alpha  occ. eigenvalues --   -0.48110  -0.47799  -0.46680  -0.46652  -0.46221
 Alpha  occ. eigenvalues --   -0.45854  -0.45692  -0.45336  -0.43839  -0.43808
 Alpha virt. eigenvalues --    0.18709   0.21171   0.23664   0.25294   0.25632
 Alpha virt. eigenvalues --    0.26035   0.26714   0.27542   0.29068   0.29736
 Alpha virt. eigenvalues --    0.30976   0.31316   0.31558   0.31846   0.32468

 Mulliken charges:
               1
     1  C   -0.303075
     2  C   -0.299408
     3  C   -0.477714
     4  H    0.152392
     5  H    0.149760
     6  H    0.153012
     7  H    0.152037
     8  H    0.155104
     9  H    0.156695
    10  H    0.160482
    11  C   -0.299715
    12  C   -0.303242
    13  C   -0.479512
    14  H    0.151432
    15  H    0.150381
    16  H    0.152676
    17  H    0.152695
    18  H    0.155949
    19  H    0.158710
    20  H    0.160537
    21  C   -0.306598
    22  C   -0.298816
    23  C   -0.484357
    24  H    0.149638
    25  H    0.156562
    26  H    0.152249
    27  H    0.151771
    28  H    0.164229
    29  H    0.154740
    30  H    0.160726
    31  C   -0.297727
    32  C   -0.305070
    33  C   -0.475708
    34  H    0.150128
    35  H    0.149636
    36  H    0.152298
    37  H    0.155566
    38  H    0.155384
    39  H    0.155537
    40  H    0.160614
 Sum of Mulliken charges =  -0.00000

 Dipole moment (field-independent basis, Debye):
    X=              0.0089    Y=             -0.0052    Z=             -0.0105  Tot=              0.0147
 Quadrupole moment (field-independent basis, Debye-Ang):
   XX=            -83.8968   YY=            -86.4060   ZZ=            -84.2951
   XY=              1.0946   XZ=              1.0592   YZ=             -0.4282

 Normal termination of Gaussian 16 at Wed May  5 23:09:23 2021.
