 Gaussian 16, Revision A.03,
 Gaussian 16:  EM64L-G16RevA.03 25-Dec-2016

 -------------
 #p 6-31g* mp2
 -------------

 ------------------------------------------------------
 Input file generated by CHIRIPA (05-May-2021 14:53:16)
 ------------------------------------------------------
 Symbolic Z-matrix:
 Charge =  0 Multiplicity = 1

                         Standard orientation:
 ---------------------------------------------------------------------
 Center     Atomic      Atomic             Coordinates (Angstroms)
 Number     Number       Type             X           Y           Z
 ---------------------------------------------------------------------
      1          6           0        4.162861    0.141609   -0.105743
      2          6           0        5.469854   -0.606378    0.159343
      3          6           0        6.626163    0.330216    0.510819
      4          1           0        4.317508    0.858541   -0.923691
      5          1           0        3.900150    0.732706    0.782503
      6          1           0        5.729298   -1.196972   -0.728635
      7          1           0        5.312026   -1.321747    0.976626
      8          1           0        6.392600    0.910213    1.409514
      9          1           0        6.812242    1.035697   -0.305436
     10          1           0        7.550664   -0.225412    0.696386
     11          6           0        2.997568   -0.781132   -0.458404
     12          6           0        1.690576   -0.033145   -0.723490
     13          6           0        0.534267   -0.969738   -1.074967
     14          1           0        3.260280   -1.372229   -1.346651
     15          1           0        2.842922   -1.498063    0.359544
     16          1           0        1.848403    0.682225   -1.540774
     17          1           0        1.431132    0.557449    0.164487
     18          1           0        0.348187   -1.675219   -0.258712
     19          1           0        0.767830   -1.549735   -1.973662
     20          1           0       -0.390235   -0.414110   -1.260533
     21          6           0       -1.752912    2.546277    0.175997
     22          6           0       -2.695945    2.187252   -0.792667
     23          6           0       -3.280957    0.917572   -0.777801
     24          6           0       -2.897985    0.027800    0.224660
     25          6           0       -1.961307    0.355853    1.203590
     26          6           0       -1.389243    1.631045    1.169283
     27          1           0       -1.303490    3.534736    0.156898
     28          1           0       -2.980284    2.895990   -1.565252
     29          1           0       -4.013571    0.613464   -1.515509
     30          1           0       -1.697978   -0.372186    1.961241
     31          1           0       -0.657138    1.907126    1.922839
     32          7           0       -3.510457   -1.319272    0.250689
     33          8           0       -3.156077   -2.084981    1.144412
     34          8           0       -4.333295   -1.583890   -0.623126
 ---------------------------------------------------------------------

 SCF Done:  E(RHF) =  -669.534628510     A.U. after   15 cycles
 E2 =    -0.2093957923D+01 EUMP2 =    -0.67162858643245D+03

 The electronic state is 1-A.
 Alpha  occ. eigenvalues --  -20.60785 -20.60779 -15.85836 -11.31199 -11.27824
 Alpha  occ. eigenvalues --  -11.27790 -11.27577 -11.26854 -11.26830 -11.21789
 Alpha  occ. eigenvalues --  -11.21762 -11.21624 -11.21513 -11.21273 -11.20969
 Alpha  occ. eigenvalues --   -1.59856  -1.39410  -1.19433  -1.08808  -1.08608
 Alpha  occ. eigenvalues --   -1.04840  -1.03667  -0.96111  -0.95632  -0.87128
 Alpha  occ. eigenvalues --   -0.86222  -0.82470  -0.79744  -0.78431  -0.77510
 Alpha  occ. eigenvalues --   -0.72058  -0.71182  -0.70524  -0.65254  -0.65073
 Alpha  occ. eigenvalues --   -0.64833  -0.62185  -0.61085  -0.59551  -0.57789
 Alpha  occ. eigenvalues --   -0.55442  -0.55318  -0.53560  -0.52923  -0.52611
 Alpha  occ. eigenvalues --   -0.52120  -0.50046  -0.48818  -0.48810  -0.48050
 Alpha  occ. eigenvalues --   -0.46795  -0.45968  -0.45910  -0.44807  -0.43934
 Alpha  occ. eigenvalues --   -0.37352  -0.36405
 Alpha virt. eigenvalues --    0.05015   0.11150   0.16457   0.21022   0.22759
 Alpha virt. eigenvalues --    0.24154   0.26091   0.26941   0.27565   0.27850
 Alpha virt. eigenvalues --    0.28331   0.30583   0.31357   0.31382   0.31989

 Mulliken charges:
               1
     1  C   -0.297457
     2  C   -0.299740
     3  C   -0.475659
     4  H    0.148892
     5  H    0.145579
     6  H    0.153198
     7  H    0.152696
     8  H    0.154000
     9  H    0.154879
    10  H    0.161248
    11  C   -0.298583
    12  C   -0.298364
    13  C   -0.481246
    14  H    0.151339
    15  H    0.150469
    16  H    0.149566
    17  H    0.144455
    18  H    0.157314
    19  H    0.156077
    20  H    0.165248
    21  C   -0.171042
    22  C   -0.217952
    23  C   -0.173470
    24  C    0.159674
    25  C   -0.168671
    26  C   -0.215500
    27  H    0.226331
    28  H    0.223997
    29  H    0.276148
    30  H    0.275369
    31  H    0.223553
    32  N    0.488714
    33  O   -0.460677
    34  O   -0.460382
 Sum of Mulliken charges =  -0.00000

 Dipole moment (field-independent basis, Debye):
    X=              2.0773    Y=              4.7320    Z=             -0.0974  Tot=              5.1688
 Quadrupole moment (field-independent basis, Debye-Ang):
   XX=           -107.2389   YY=            -95.0497   ZZ=            -90.9106
   XY=            -15.1841   XZ=              2.7787   YZ=             -0.2334

 Normal termination of Gaussian 16 at Thu May  6 15:34:25 2021.
