 Gaussian 16, Revision A.03,
 Gaussian 16:  EM64L-G16RevA.03 25-Dec-2016

 -------------
 #p 6-31g* mp2
 -------------

 ------------------------------------------------------
 Input file generated by CHIRIPA (05-May-2021 14:55:22)
 ------------------------------------------------------
 Symbolic Z-matrix:
 Charge =  0 Multiplicity = 1

                         Standard orientation:
 ---------------------------------------------------------------------
 Center     Atomic      Atomic             Coordinates (Angstroms)
 Number     Number       Type             X           Y           Z
 ---------------------------------------------------------------------
      1          6           0       -1.262844    2.500330    0.767145
      2          6           0       -1.154478    1.299814    1.476751
      3          6           0       -1.896668    0.178843    1.093181
      4          6           0       -2.741289    0.294240   -0.009809
      5          6           0       -2.870999    1.476405   -0.737099
      6          6           0       -2.119249    2.584645   -0.335571
      7          1           0       -0.682580    3.366182    1.072087
      8          1           0       -0.490181    1.231430    2.333535
      9          1           0       -1.831959   -0.762855    1.624629
     10          1           0       -3.541619    1.513981   -1.586966
     11          1           0       -2.205418    3.515692   -0.888536
     12          7           0       -3.532072   -0.885743   -0.425383
     13          8           0       -4.269079   -0.758249   -1.400680
     14          8           0       -3.399908   -1.915764    0.232055
     15          6           0        3.807354   -0.240073   -0.542344
     16          6           0        5.033948    0.337607    0.164577
     17          6           0        5.955279    1.106006   -0.783319
     18          1           0        4.137953   -0.903911   -1.352879
     19          1           0        3.247284    0.577605   -1.016813
     20          1           0        5.590786   -0.480755    0.638739
     21          1           0        4.700389    0.999999    0.973647
     22          1           0        5.420775    1.941382   -1.247055
     23          1           0        6.316230    0.452216   -1.583866
     24          1           0        6.825630    1.510355   -0.257155
     25          6           0        2.876698   -1.011039    0.392118
     26          6           0        1.650104   -1.588718   -0.314804
     27          6           0        0.728774   -2.357116    0.633093
     28          1           0        3.436768   -1.828717    0.866587
     29          1           0        2.546099   -0.347199    1.202654
     30          1           0        1.983663   -2.251109   -1.123873
     31          1           0        1.093267   -0.770356   -0.788965
     32          1           0        0.367822   -1.703327    1.433639
     33          1           0        1.263277   -3.192494    1.096829
     34          1           0       -0.141578   -2.761466    0.106928
 ---------------------------------------------------------------------

 SCF Done:  E(RHF) =  -669.535161966     A.U. after   15 cycles
 E2 =    -0.2092701713D+01 EUMP2 =    -0.67162786367910D+03

 The electronic state is 1-A.
 Alpha  occ. eigenvalues --  -20.60827 -20.60820 -15.85868 -11.31214 -11.27807
 Alpha  occ. eigenvalues --  -11.27772 -11.27558 -11.26816 -11.26802 -11.21913
 Alpha  occ. eigenvalues --  -11.21730 -11.21676 -11.21621 -11.21361 -11.21148
 Alpha  occ. eigenvalues --   -1.59892  -1.39446  -1.19406  -1.08801  -1.08682
 Alpha  occ. eigenvalues --   -1.04817  -1.03746  -0.96212  -0.95631  -0.87230
 Alpha  occ. eigenvalues --   -0.86198  -0.82472  -0.79820  -0.78502  -0.77511
 Alpha  occ. eigenvalues --   -0.72088  -0.71212  -0.70525  -0.65335  -0.65058
 Alpha  occ. eigenvalues --   -0.64818  -0.62228  -0.61113  -0.59548  -0.57800
 Alpha  occ. eigenvalues --   -0.55597  -0.55264  -0.53113  -0.52983  -0.52786
 Alpha  occ. eigenvalues --   -0.52598  -0.50143  -0.48846  -0.48843  -0.48123
 Alpha  occ. eigenvalues --   -0.46856  -0.46046  -0.45965  -0.44857  -0.43980
 Alpha  occ. eigenvalues --   -0.37388  -0.36372
 Alpha virt. eigenvalues --    0.04994   0.11213   0.16390   0.20590   0.22724
 Alpha virt. eigenvalues --    0.24074   0.25707   0.26677   0.27108   0.28079
 Alpha virt. eigenvalues --    0.28972   0.30398   0.31413   0.31623   0.32164

 Mulliken charges:
               1
     1  C   -0.170734
     2  C   -0.220163
     3  C   -0.167436
     4  C    0.156138
     5  C   -0.170789
     6  C   -0.219022
     7  H    0.225735
     8  H    0.223479
     9  H    0.278950
    10  H    0.275735
    11  H    0.223549
    12  N    0.488295
    13  O   -0.459993
    14  O   -0.460340
    15  C   -0.298299
    16  C   -0.299258
    17  C   -0.475622
    18  H    0.151718
    19  H    0.148312
    20  H    0.153112
    21  H    0.148767
    22  H    0.154005
    23  H    0.156673
    24  H    0.160476
    25  C   -0.296711
    26  C   -0.301137
    27  C   -0.478490
    28  H    0.150774
    29  H    0.142498
    30  H    0.154672
    31  H    0.153069
    32  H    0.140841
    33  H    0.156378
    34  H    0.174818
 Sum of Mulliken charges =  -0.00000

 Dipole moment (field-independent basis, Debye):
    X=              2.7442    Y=              4.0798    Z=              1.3736  Tot=              5.1051
 Quadrupole moment (field-independent basis, Debye-Ang):
   XX=           -110.2082   YY=            -90.6762   ZZ=            -92.7355
   XY=            -12.8212   XZ=             -2.1668   YZ=             -1.2805

 Normal termination of Gaussian 16 at Thu May  6 01:30:26 2021.
