 Gaussian 16, Revision A.03,
 Gaussian 16:  EM64L-G16RevA.03 25-Dec-2016

 -------------
 #p 6-31g* mp2
 -------------

 ------------------------------------------------------
 Input file generated by CHIRIPA (05-May-2021 14:55:24)
 ------------------------------------------------------
 Symbolic Z-matrix:
 Charge =  0 Multiplicity = 1

                         Standard orientation:
 ---------------------------------------------------------------------
 Center     Atomic      Atomic             Coordinates (Angstroms)
 Number     Number       Type             X           Y           Z
 ---------------------------------------------------------------------
      1          6           0       -0.994291   -2.107593    0.437098
      2          6           0       -0.721288   -0.774238    0.759828
      3          6           0       -1.692209    0.214366    0.574023
      4          6           0       -2.930954   -0.167416    0.061148
      5          6           0       -3.233215   -1.487384   -0.269934
      6          6           0       -2.247174   -2.459290   -0.075849
      7          1           0       -0.234184   -2.869079    0.584651
      8          1           0        0.250835   -0.498203    1.158356
      9          1           0       -1.507560    1.254094    0.815453
     10          1           0       -4.211566   -1.731969   -0.665440
     11          1           0       -2.461991   -3.494006   -0.327368
     12          7           0       -3.966828    0.870336   -0.139938
     13          8           0       -5.050321    0.508168   -0.593274
     14          8           0       -3.675638    2.026245    0.159594
     15          6           0        4.038527   -0.118235    0.033813
     16          6           0        3.580753   -1.504810   -0.419878
     17          6           0        4.602540   -2.597452   -0.103841
     18          1           0        4.995324    0.121516   -0.449926
     19          1           0        4.231670   -0.139187    1.115318
     20          1           0        3.387201   -1.480889   -1.499962
     21          1           0        2.624839   -1.741207    0.064850
     22          1           0        4.789129   -2.650387    0.973648
     23          1           0        5.555824   -2.388589   -0.600055
     24          1           0        4.255043   -3.580472   -0.436672
     25          6           0        3.027662    0.984668   -0.275194
     26          6           0        3.485436    2.371244    0.178497
     27          6           0        2.463649    3.463885   -0.137539
     28          1           0        2.834518    1.005621   -1.356699
     29          1           0        2.070865    0.744918    0.208545
     30          1           0        4.441351    2.607641   -0.306230
     31          1           0        3.678987    2.347322    1.258582
     32          1           0        1.510365    3.255023    0.358674
     33          1           0        2.277059    3.516821   -1.215029
     34          1           0        2.811146    4.446906    0.195291
 ---------------------------------------------------------------------

 SCF Done:  E(RHF) =  -669.535255288     A.U. after   15 cycles
 E2 =    -0.2092007157D+01 EUMP2 =    -0.67162726244437D+03

 The electronic state is 1-A.
 Alpha  occ. eigenvalues --  -20.60745 -20.60740 -15.85799 -11.31170 -11.27744
 Alpha  occ. eigenvalues --  -11.27740 -11.27482 -11.26755 -11.26735 -11.22546
 Alpha  occ. eigenvalues --  -11.22225 -11.22183 -11.22140 -11.21872 -11.21523
 Alpha  occ. eigenvalues --   -1.59821  -1.39374  -1.19344  -1.09214  -1.08736
 Alpha  occ. eigenvalues --   -1.04750  -1.04248  -0.96679  -0.95571  -0.87690
 Alpha  occ. eigenvalues --   -0.86150  -0.82407  -0.80317  -0.79034  -0.77447
 Alpha  occ. eigenvalues --   -0.72017  -0.71143  -0.70452  -0.65925  -0.64998
 Alpha  occ. eigenvalues --   -0.64717  -0.62103  -0.61650  -0.60056  -0.58291
 Alpha  occ. eigenvalues --   -0.55977  -0.55243  -0.53358  -0.53137  -0.53062
 Alpha  occ. eigenvalues --   -0.52821  -0.50621  -0.48781  -0.48772  -0.48626
 Alpha  occ. eigenvalues --   -0.47374  -0.46545  -0.46463  -0.44778  -0.44513
 Alpha  occ. eigenvalues --   -0.37315  -0.36338
 Alpha virt. eigenvalues --    0.05075   0.11226   0.16501   0.18744   0.22795
 Alpha virt. eigenvalues --    0.22979   0.25016   0.26364   0.26632   0.27002
 Alpha virt. eigenvalues --    0.29809   0.30797   0.31023   0.31357   0.31782

 Mulliken charges:
               1
     1  C   -0.172115
     2  C   -0.219889
     3  C   -0.172330
     4  C    0.158492
     5  C   -0.170795
     6  C   -0.218686
     7  H    0.226419
     8  H    0.227892
     9  H    0.275404
    10  H    0.275593
    11  H    0.223411
    12  N    0.488095
    13  O   -0.460537
    14  O   -0.460332
    15  C   -0.299273
    16  C   -0.299335
    17  C   -0.476236
    18  H    0.153965
    19  H    0.149292
    20  H    0.156208
    21  H    0.140274
    22  H    0.155699
    23  H    0.159135
    24  H    0.159892
    25  C   -0.301073
    26  C   -0.300634
    27  C   -0.474902
    28  H    0.154311
    29  H    0.141404
    30  H    0.154770
    31  H    0.151770
    32  H    0.151822
    33  H    0.158490
    34  H    0.163803
 Sum of Mulliken charges =  -0.00000

 Dipole moment (field-independent basis, Debye):
    X=              3.8201    Y=             -3.5832    Z=              0.6104  Tot=              5.2731
 Quadrupole moment (field-independent basis, Debye-Ang):
   XX=           -113.9942   YY=            -91.8540   ZZ=            -94.0113
   XY=             13.5544   XZ=             -1.3827   YZ=              1.0176

 Normal termination of Gaussian 16 at Thu May  6 03:11:27 2021.
