 Gaussian 16, Revision A.03,
 Gaussian 16:  EM64L-G16RevA.03 25-Dec-2016

 -------------
 #p 6-31g* mp2
 -------------

 ------------------------------------------------------
 Input file generated by CHIRIPA (05-May-2021 14:51:08)
 ------------------------------------------------------
 Symbolic Z-matrix:
 Charge =  0 Multiplicity = 1

                         Standard orientation:
 ---------------------------------------------------------------------
 Center     Atomic      Atomic             Coordinates (Angstroms)
 Number     Number       Type             X           Y           Z
 ---------------------------------------------------------------------
      1          6           0        2.710359   -0.681508   -0.457853
      2          6           0        3.443626    0.630206   -0.175521
      3          6           0        4.371295    1.046504   -1.317414
      4          1           0        3.448217   -1.474706   -0.640463
      5          1           0        2.128776   -0.576335   -1.384187
      6          1           0        4.022557    0.523043    0.750746
      7          1           0        2.703938    1.420333    0.006627
      8          1           0        3.804718    1.180938   -2.244517
      9          1           0        5.130830    0.278549   -1.496170
     10          1           0        4.885339    1.986702   -1.094599
     11          6           0        1.779170   -1.110877    0.674514
     12          6           0        1.045903   -2.422591    0.392182
     13          6           0        0.118234   -2.838889    1.534075
     14          1           0        2.360753   -1.216050    1.600848
     15          1           0        1.041312   -0.317679    0.857124
     16          1           0        1.785591   -3.212718    0.210034
     17          1           0        0.466972   -2.315428   -0.534084
     18          1           0       -0.641301   -2.070934    1.712831
     19          1           0        0.684811   -2.973323    2.461178
     20          1           0       -0.395810   -3.779086    1.311260
     21          6           0       -2.241613    1.632396    0.095204
     22          6           0       -0.870615    2.128189    0.556224
     23          6           0       -0.880401    3.602835    0.960103
     24          1           0       -2.579582    2.243989   -0.752543
     25          1           0       -2.970452    1.787524    0.902746
     26          1           0       -0.144290    1.970900   -0.251444
     27          1           0       -0.535785    1.515221    1.402850
     28          1           0       -1.583461    3.772496    1.782004
     29          1           0       -1.189741    4.230764    0.118312
     30          1           0        0.109678    3.936331    1.286272
     31          6           0       -2.247916    0.159989   -0.311865
     32          6           0       -3.618914   -0.335804   -0.772885
     33          6           0       -3.609129   -1.810449   -1.176764
     34          1           0       -1.519076    0.004861   -1.119406
     35          1           0       -1.909947   -0.451605    0.535883
     36          1           0       -3.953743    0.277164   -1.619511
     37          1           0       -4.345239   -0.178515    0.034783
     38          1           0       -3.299788   -2.438380   -0.334973
     39          1           0       -2.906069   -1.980112   -1.998666
     40          1           0       -4.599206   -2.143947   -1.502933
 ---------------------------------------------------------------------

 SCF Done:  E(RHF) =  -470.732555233     A.U. after   11 cycles
 E2 =    -0.1585464142D+01 EUMP2 =    -0.47231801937489D+03

 The electronic state is 1-A.
 Alpha  occ. eigenvalues --  -11.21715 -11.21664 -11.21554 -11.21509 -11.21496
 Alpha  occ. eigenvalues --  -11.21435 -11.21324 -11.21209 -11.21152 -11.21107
 Alpha  occ. eigenvalues --  -11.21047 -11.21036  -1.08549  -1.08336  -1.03617
 Alpha  occ. eigenvalues --   -1.03473  -0.96057  -0.95928  -0.87076  -0.86946
 Alpha  occ. eigenvalues --   -0.79699  -0.79541  -0.78462  -0.78069  -0.65193
 Alpha  occ. eigenvalues --   -0.64972  -0.61014  -0.60893  -0.59431  -0.59298
 Alpha  occ. eigenvalues --   -0.57694  -0.57513  -0.55409  -0.55172  -0.52753
 Alpha  occ. eigenvalues --   -0.52629  -0.52526  -0.52308  -0.50083  -0.49811
 Alpha  occ. eigenvalues --   -0.48038  -0.47896  -0.46720  -0.46690  -0.46279
 Alpha  occ. eigenvalues --   -0.45780  -0.45608  -0.45040  -0.43861  -0.43715
 Alpha virt. eigenvalues --    0.20057   0.21851   0.23559   0.23921   0.25486
 Alpha virt. eigenvalues --    0.26013   0.26875   0.27615   0.28878   0.29823
 Alpha virt. eigenvalues --    0.30762   0.31404   0.31702   0.31918   0.32215

 Mulliken charges:
               1
     1  C   -0.297435
     2  C   -0.302534
     3  C   -0.475500
     4  H    0.149364
     5  H    0.148323
     6  H    0.151805
     7  H    0.154443
     8  H    0.154670
     9  H    0.155194
    10  H    0.160037
    11  C   -0.307969
    12  C   -0.299652
    13  C   -0.479816
    14  H    0.148225
    15  H    0.161163
    16  H    0.151458
    17  H    0.153434
    18  H    0.157292
    19  H    0.154963
    20  H    0.160154
    21  C   -0.297616
    22  C   -0.305785
    23  C   -0.475427
    24  H    0.150002
    25  H    0.149846
    26  H    0.153924
    27  H    0.154951
    28  H    0.155611
    29  H    0.155475
    30  H    0.160814
    31  C   -0.307087
    32  C   -0.299255
    33  C   -0.476933
    34  H    0.149787
    35  H    0.157497
    36  H    0.152123
    37  H    0.152096
    38  H    0.156856
    39  H    0.154956
    40  H    0.160548
 Sum of Mulliken charges =  -0.00000

 Dipole moment (field-independent basis, Debye):
    X=             -0.0643    Y=              0.0414    Z=              0.0109  Tot=              0.0773
 Quadrupole moment (field-independent basis, Debye-Ang):
   XX=            -84.7145   YY=            -85.7636   ZZ=            -84.3461
   XY=             -0.7865   XZ=              0.5883   YZ=             -0.4416

 Normal termination of Gaussian 16 at Thu May  6 08:27:05 2021.
