 Gaussian 16, Revision A.03,
 Gaussian 16:  EM64L-G16RevA.03 25-Dec-2016

 -------------
 #p 6-31g* mp2
 -------------

 ------------------------------------------------------
 Input file generated by CHIRIPA (05-May-2021 14:55:25)
 ------------------------------------------------------
 Symbolic Z-matrix:
 Charge =  0 Multiplicity = 1

                         Standard orientation:
 ---------------------------------------------------------------------
 Center     Atomic      Atomic             Coordinates (Angstroms)
 Number     Number       Type             X           Y           Z
 ---------------------------------------------------------------------
      1          6           0       -5.440691   -0.719324   -0.741325
      2          6           0       -5.297076   -0.219457    0.557147
      3          6           0       -4.035828    0.132403    1.047041
      4          6           0       -2.934742   -0.029282    0.207543
      5          6           0       -3.045424   -0.524641   -1.090786
      6          6           0       -4.316389   -0.870055   -1.559704
      7          1           0       -6.424234   -0.990153   -1.113739
      8          1           0       -6.168459   -0.101333    1.194943
      9          1           0       -3.896051    0.521739    2.048190
     10          1           0       -2.158187   -0.631178   -1.703060
     11          1           0       -4.424926   -1.258011   -2.568543
     12          7           0       -1.594372    0.339804    0.715069
     13          8           0       -0.640016    0.187890   -0.044381
     14          8           0       -1.523525    0.774019    1.862708
     15          6           0        3.996403   -0.640806   -0.257762
     16          6           0        5.130675   -1.406958    0.423725
     17          6           0        5.031206   -2.918535    0.216275
     18          1           0        3.033879   -1.002846    0.128785
     19          1           0        4.005805   -0.865643   -1.333288
     20          1           0        5.119995   -1.179662    1.497428
     21          1           0        6.090617   -1.042919    0.035650
     22          1           0        5.064510   -3.164046   -0.850128
     23          1           0        4.088374   -3.301566    0.619956
     24          1           0        5.851846   -3.446629    0.711780
     25          6           0        4.082064    0.871493   -0.059413
     26          6           0        2.947793    1.637645   -0.740900
     27          6           0        3.047262    3.149222   -0.533451
     28          1           0        4.072663    1.096329    1.016112
     29          1           0        5.044589    1.233532   -0.445961
     30          1           0        1.987851    1.273605   -0.352825
     31          1           0        2.958472    1.410349   -1.814603
     32          1           0        3.990094    3.532252   -0.937131
     33          1           0        3.013958    3.394732    0.532953
     34          1           0        2.226622    3.677316   -1.028956
 ---------------------------------------------------------------------

 SCF Done:  E(RHF) =  -669.536465978     A.U. after   15 cycles
 E2 =    -0.2090975520D+01 EUMP2 =    -0.67162744149749D+03

 The electronic state is 1-A.
 Alpha  occ. eigenvalues --  -20.61042 -20.61023 -15.86057 -11.31342 -11.27900
 Alpha  occ. eigenvalues --  -11.27895 -11.27632 -11.26899 -11.26889 -11.20713
 Alpha  occ. eigenvalues --  -11.20351 -11.20242 -11.20137 -11.19983 -11.19832
 Alpha  occ. eigenvalues --   -1.60090  -1.39646  -1.19506  -1.08918  -1.07254
 Alpha  occ. eigenvalues --   -1.04897  -1.02396  -0.95766  -0.94898  -0.86299
 Alpha  occ. eigenvalues --   -0.85921  -0.82601  -0.78470  -0.77658  -0.77022
 Alpha  occ. eigenvalues --   -0.72278  -0.71399  -0.70614  -0.65163  -0.64900
 Alpha  occ. eigenvalues --   -0.63876  -0.62243  -0.59784  -0.58280  -0.56490
 Alpha  occ. eigenvalues --   -0.55403  -0.54193  -0.53231  -0.52988  -0.51623
 Alpha  occ. eigenvalues --   -0.51322  -0.49115  -0.49032  -0.48814  -0.46783
 Alpha  occ. eigenvalues --   -0.45480  -0.45056  -0.44595  -0.44378  -0.42650
 Alpha  occ. eigenvalues --   -0.37484  -0.36496
 Alpha virt. eigenvalues --    0.04867   0.11160   0.16371   0.21294   0.24009
 Alpha virt. eigenvalues --    0.25408   0.27220   0.27783   0.28155   0.28755
 Alpha virt. eigenvalues --    0.29056   0.30873   0.32352   0.32490   0.32904

 Mulliken charges:
               1
     1  C   -0.170456
     2  C   -0.218632
     3  C   -0.170405
     4  C    0.157450
     5  C   -0.170799
     6  C   -0.218572
     7  H    0.226183
     8  H    0.223969
     9  H    0.275924
    10  H    0.276207
    11  H    0.224063
    12  N    0.491153
    13  O   -0.462216
    14  O   -0.458879
    15  C   -0.299588
    16  C   -0.298839
    17  C   -0.475012
    18  H    0.159234
    19  H    0.145076
    20  H    0.151687
    21  H    0.148912
    22  H    0.152798
    23  H    0.155383
    24  H    0.157124
    25  C   -0.296745
    26  C   -0.313302
    27  C   -0.474080
    28  H    0.149486
    29  H    0.143249
    30  H    0.185213
    31  H    0.143681
    32  H    0.148398
    33  H    0.155343
    34  H    0.156992
 Sum of Mulliken charges =  -0.00000

 Dipole moment (field-independent basis, Debye):
    X=             -5.1459    Y=             -1.3495    Z=             -1.6965  Tot=              5.5839
 Quadrupole moment (field-independent basis, Debye-Ang):
   XX=            -67.8636   YY=            -97.0698   ZZ=            -91.2408
   XY=              3.4191   XZ=              2.1970   YZ=              1.2823

 Normal termination of Gaussian 16 at Thu May  6 09:32:02 2021.
