 Gaussian 16, Revision A.03,
 Gaussian 16:  EM64L-G16RevA.03 25-Dec-2016

 -------------
 #p 6-31g* mp2
 -------------

 ------------------------------------------------------
 Input file generated by CHIRIPA (05-May-2021 14:55:21)
 ------------------------------------------------------
 Symbolic Z-matrix:
 Charge =  0 Multiplicity = 1

                         Standard orientation:
 ---------------------------------------------------------------------
 Center     Atomic      Atomic             Coordinates (Angstroms)
 Number     Number       Type             X           Y           Z
 ---------------------------------------------------------------------
      1          6           0        1.869466    2.549408   -0.972062
      2          6           0        1.662363    2.485146    0.409785
      3          6           0        1.844627    1.283034    1.099897
      4          6           0        2.236095    0.159524    0.373420
      5          6           0        2.450277    0.191657   -1.003672
      6          6           0        2.262070    1.404477   -1.673144
      7          1           0        1.725570    3.487397   -1.500141
      8          1           0        1.357433    3.372722    0.956841
      9          1           0        1.691213    1.205142    2.169389
     10          1           0        2.753947   -0.709899   -1.521746
     11          1           0        2.423634    1.451435   -2.746334
     12          7           0        2.432196   -1.118767    1.093086
     13          8           0        2.777331   -2.094418    0.430045
     14          8           0        2.237051   -1.120835    2.306573
     15          6           0       -3.156512    0.142398   -0.024530
     16          6           0       -4.616355   -0.091989    0.365223
     17          6           0       -5.274228    1.150032    0.967203
     18          1           0       -2.593800    0.463580    0.862681
     19          1           0       -3.104946    0.971075   -0.744273
     20          1           0       -4.665287   -0.920886    1.082965
     21          1           0       -5.175617   -0.412835   -0.522976
     22          1           0       -5.254898    1.980276    0.253815
     23          1           0       -4.741667    1.469338    1.868881
     24          1           0       -6.317369    0.960172    1.238624
     25          6           0       -2.485151   -1.090113   -0.627786
     26          6           0       -1.025310   -0.855726   -1.017540
     27          6           0       -0.367437   -2.097748   -1.619518
     28          1           0       -2.536718   -1.918790    0.091957
     29          1           0       -3.047865   -1.411295   -1.514996
     30          1           0       -0.466047   -0.534880   -0.129338
     31          1           0       -0.976378   -0.026829   -1.735280
     32          1           0       -0.899997   -2.417054   -2.521196
     33          1           0       -0.386767   -2.927992   -0.906130
     34          1           0        0.675704   -1.907888   -1.890940
 ---------------------------------------------------------------------

 SCF Done:  E(RHF) =  -669.533542109     A.U. after   15 cycles
 E2 =    -0.2095569031D+01 EUMP2 =    -0.67162911113949D+03

 The electronic state is 1-A.
 Alpha  occ. eigenvalues --  -20.60855 -20.60826 -15.85875 -11.31185 -11.27794
 Alpha  occ. eigenvalues --  -11.27776 -11.27546 -11.26820 -11.26809 -11.21590
 Alpha  occ. eigenvalues --  -11.21413 -11.21373 -11.21232 -11.21130 -11.20767
 Alpha  occ. eigenvalues --   -1.59910  -1.39464  -1.19414  -1.08809  -1.08353
 Alpha  occ. eigenvalues --   -1.04819  -1.03445  -0.95911  -0.95628  -0.86914
 Alpha  occ. eigenvalues --   -0.86206  -0.82477  -0.79522  -0.78184  -0.77525
 Alpha  occ. eigenvalues --   -0.72103  -0.71255  -0.70535  -0.65068  -0.64982
 Alpha  occ. eigenvalues --   -0.64830  -0.62205  -0.60847  -0.59303  -0.57585
 Alpha  occ. eigenvalues --   -0.55315  -0.55168  -0.53159  -0.52983  -0.52462
 Alpha  occ. eigenvalues --   -0.52272  -0.49819  -0.48865  -0.48858  -0.47801
 Alpha  occ. eigenvalues --   -0.46566  -0.45685  -0.45653  -0.44844  -0.43685
 Alpha  occ. eigenvalues --   -0.37299  -0.36373
 Alpha virt. eigenvalues --    0.04974   0.11154   0.16481   0.21130   0.22914
 Alpha virt. eigenvalues --    0.24259   0.26626   0.26674   0.27501   0.27831
 Alpha virt. eigenvalues --    0.28611   0.30450   0.31357   0.31598   0.31859

 Mulliken charges:
               1
     1  C   -0.170766
     2  C   -0.216006
     3  C   -0.173621
     4  C    0.159614
     5  C   -0.168895
     6  C   -0.217205
     7  H    0.225817
     8  H    0.223741
     9  H    0.275445
    10  H    0.275647
    11  H    0.223692
    12  N    0.490019
    13  O   -0.459991
    14  O   -0.460832
    15  C   -0.297261
    16  C   -0.299703
    17  C   -0.475501
    18  H    0.148860
    19  H    0.146100
    20  H    0.154016
    21  H    0.151759
    22  H    0.153230
    23  H    0.154524
    24  H    0.160740
    25  C   -0.298315
    26  C   -0.302005
    27  C   -0.477269
    28  H    0.153119
    29  H    0.148366
    30  H    0.152746
    31  H    0.147039
    32  H    0.151823
    33  H    0.165386
    34  H    0.155686
 Sum of Mulliken charges =  -0.00000

 Dipole moment (field-independent basis, Debye):
    X=             -0.6073    Y=              4.4674    Z=             -2.4885  Tot=              5.1497
 Quadrupole moment (field-independent basis, Debye-Ang):
   XX=            -98.8071   YY=            -93.1670   ZZ=            -92.6427
   XY=              9.9750   XZ=             -6.8195   YZ=              2.6924

 Normal termination of Gaussian 16 at Wed May  5 18:59:06 2021.
