 Gaussian 16, Revision A.03,
 Gaussian 16:  EM64L-G16RevA.03 25-Dec-2016

 -------------
 #p 6-31g* mp2
 -------------

 ------------------------------------------------------
 Input file generated by CHIRIPA (05-May-2021 14:53:12)
 ------------------------------------------------------
 Symbolic Z-matrix:
 Charge =  0 Multiplicity = 1

                         Standard orientation:
 ---------------------------------------------------------------------
 Center     Atomic      Atomic             Coordinates (Angstroms)
 Number     Number       Type             X           Y           Z
 ---------------------------------------------------------------------
      1          6           0        3.391842   -0.385051   -0.667186
      2          6           0        3.249083   -1.801238   -0.108601
      3          6           0        3.589378   -2.879689   -1.137648
      4          1           0        2.739121   -0.276101   -1.544130
      5          1           0        4.421145   -0.241097   -1.023848
      6          1           0        2.220728   -1.942016    0.248166
      7          1           0        3.902076   -1.906769    0.767230
      8          1           0        4.621085   -2.767567   -1.486374
      9          1           0        2.930184   -2.803013   -2.008387
     10          1           0        3.480650   -3.884327   -0.717241
     11          6           0        3.055072    0.704085    0.349720
     12          6           0        3.197830    2.120273   -0.208865
     13          6           0        2.857536    3.198724    0.820182
     14          1           0        2.025769    0.560131    0.706381
     15          1           0        3.707792    0.595135    1.226664
     16          1           0        2.544838    2.225804   -1.084697
     17          1           0        4.226185    2.261050   -0.565633
     18          1           0        3.516729    3.122048    1.690920
     19          1           0        1.825828    3.086601    1.168907
     20          1           0        2.966263    4.203361    0.399774
     21          6           0       -3.765467    0.626031   -1.936834
     22          6           0       -4.470846    0.270380   -0.782505
     23          6           0       -3.790242   -0.147006    0.365151
     24          6           0       -2.397756   -0.197193    0.323245
     25          6           0       -1.666636    0.150695   -0.811535
     26          6           0       -2.368077    0.565161   -1.947645
     27          1           0       -4.302270    0.949133   -2.823876
     28          1           0       -5.556099    0.316686   -0.771230
     29          1           0       -4.311322   -0.428035    1.272298
     30          1           0       -0.585028    0.094342   -0.792434
     31          1           0       -1.817650    0.840768   -2.842697
     32          7           0       -1.666202   -0.637516    1.532106
     33          8           0       -0.439231   -0.673124    1.469571
     34          8           0       -2.333633   -0.938695    2.519255
 ---------------------------------------------------------------------

 SCF Done:  E(RHF) =  -669.536233373     A.U. after   15 cycles
 E2 =    -0.2091982403D+01 EUMP2 =    -0.67162821577600D+03

 The electronic state is 1-A.
 Alpha  occ. eigenvalues --  -20.61025 -20.61002 -15.86047 -11.31337 -11.27901
 Alpha  occ. eigenvalues --  -11.27892 -11.27626 -11.26898 -11.26888 -11.21251
 Alpha  occ. eigenvalues --  -11.20944 -11.20858 -11.20706 -11.20637 -11.20611
 Alpha  occ. eigenvalues --   -1.60073  -1.39632  -1.19503  -1.08912  -1.07893
 Alpha  occ. eigenvalues --   -1.04896  -1.03043  -0.95761  -0.95501  -0.86521
 Alpha  occ. eigenvalues --   -0.86298  -0.82598  -0.79087  -0.77776  -0.77548
 Alpha  occ. eigenvalues --   -0.72274  -0.71382  -0.70612  -0.65169  -0.64913
 Alpha  occ. eigenvalues --   -0.64514  -0.62240  -0.60453  -0.58866  -0.57097
 Alpha  occ. eigenvalues --   -0.55400  -0.54804  -0.53228  -0.52986  -0.52217
 Alpha  occ. eigenvalues --   -0.51918  -0.49465  -0.49039  -0.49016  -0.47411
 Alpha  occ. eigenvalues --   -0.46138  -0.45266  -0.45106  -0.44946  -0.43277
 Alpha  occ. eigenvalues --   -0.37479  -0.36495
 Alpha virt. eigenvalues --    0.04844   0.11154   0.16338   0.19800   0.22687
 Alpha virt. eigenvalues --    0.24756   0.26122   0.27432   0.27931   0.28162
 Alpha virt. eigenvalues --    0.29378   0.31310   0.31837   0.32303   0.32355

 Mulliken charges:
               1
     1  C   -0.295825
     2  C   -0.305822
     3  C   -0.474916
     4  H    0.138083
     5  H    0.146985
     6  H    0.168714
     7  H    0.152773
     8  H    0.152736
     9  H    0.149802
    10  H    0.160732
    11  C   -0.312386
    12  C   -0.297820
    13  C   -0.475132
    14  H    0.173939
    15  H    0.150871
    16  H    0.142391
    17  H    0.150230
    18  H    0.156966
    19  H    0.156956
    20  H    0.156666
    21  C   -0.170344
    22  C   -0.218614
    23  C   -0.170616
    24  C    0.157494
    25  C   -0.172043
    26  C   -0.219135
    27  H    0.226265
    28  H    0.224023
    29  H    0.275917
    30  H    0.278076
    31  H    0.224350
    32  N    0.494348
    33  O   -0.467628
    34  O   -0.458035
 Sum of Mulliken charges =  -0.00000

 Dipole moment (field-independent basis, Debye):
    X=             -2.8045    Y=              1.4792    Z=             -4.0363  Tot=              5.1328
 Quadrupole moment (field-independent basis, Debye-Ang):
   XX=            -78.1228   YY=            -97.3456   ZZ=            -97.2165
   XY=             -2.5978   XZ=              8.2337   YZ=              0.2742

 Normal termination of Gaussian 16 at Wed May  5 20:08:19 2021.
