 Gaussian 16, Revision A.03,
 Gaussian 16:  EM64L-G16RevA.03 25-Dec-2016

 -------------
 #p 6-31g* mp2
 -------------

 ------------------------------------------------------
 Input file generated by CHIRIPA (05-May-2021 14:57:25)
 ------------------------------------------------------
 Symbolic Z-matrix:
 Charge =  0 Multiplicity = 1

                         Standard orientation:
 ---------------------------------------------------------------------
 Center     Atomic      Atomic             Coordinates (Angstroms)
 Number     Number       Type             X           Y           Z
 ---------------------------------------------------------------------
      1          6           0       -0.657388   -2.110477   -0.052791
      2          6           0       -1.646447   -2.094781    0.936167
      3          6           0       -2.724540   -1.209054    0.848128
      4          6           0       -2.782356   -0.348964   -0.247405
      5          6           0       -1.812631   -0.340665   -1.248831
      6          6           0       -0.743485   -1.234913   -1.140217
      7          1           0        0.176625   -2.801840    0.023592
      8          1           0       -1.582169   -2.773622    1.781796
      9          1           0       -3.504087   -1.175781    1.599538
     10          1           0       -1.903959    0.347983   -2.080000
     11          1           0        0.023179   -1.244888   -1.909744
     12          7           0       -3.918949    0.593225   -0.351500
     13          8           0       -3.946876    1.340880   -1.326625
     14          8           0       -4.760361    0.566218    0.544007
     15          6           0        0.936992    2.190543    1.109590
     16          6           0        1.819400    2.545607    0.084013
     17          6           0        2.742280    1.619411   -0.410961
     18          6           0        2.755325    0.341224    0.145238
     19          6           0        1.889103   -0.042713    1.167756
     20          6           0        0.974594    0.899791    1.647240
     21          1           0        0.223329    2.916369    1.488081
     22          1           0        1.792457    3.547298   -0.335432
     23          1           0        3.436831    1.867661   -1.204302
     24          1           0        1.939760   -1.048870    1.565875
     25          1           0        0.290502    0.621253    2.443782
     26          7           0        3.727906   -0.647931   -0.370570
     27          8           0        3.719306   -1.767581    0.136330
     28          8           0        4.480399   -0.284852   -1.271993
 ---------------------------------------------------------------------

 SCF Done:  E(RHF) =  -868.337920564     A.U. after   16 cycles
 E2 =    -0.2603062778D+01 EUMP2 =    -0.87094098334180D+03

 The electronic state is 1-A.
 Alpha  occ. eigenvalues --  -20.61507 -20.61472 -20.61219 -20.61212 -15.86532
 Alpha  occ. eigenvalues --  -15.86269 -11.31692 -11.31587 -11.28274 -11.28220
 Alpha  occ. eigenvalues --  -11.28190 -11.28103 -11.27863 -11.27778 -11.27156
 Alpha  occ. eigenvalues --  -11.27156 -11.27140 -11.27031  -1.60573  -1.60299
 Alpha  occ. eigenvalues --   -1.40132  -1.39852  -1.19868  -1.19722  -1.09258
 Alpha  occ. eigenvalues --   -1.09141  -1.05211  -1.05132  -0.96148  -0.95968
 Alpha  occ. eigenvalues --   -0.86624  -0.86522  -0.82970  -0.82810  -0.78063
 Alpha  occ. eigenvalues --   -0.77880  -0.72745  -0.72482  -0.71914  -0.71631
 Alpha  occ. eigenvalues --   -0.71004  -0.70734  -0.65486  -0.65382  -0.65196
 Alpha  occ. eigenvalues --   -0.65113  -0.62582  -0.62477  -0.55709  -0.55543
 Alpha  occ. eigenvalues --   -0.54186  -0.53288  -0.53211  -0.52860  -0.49522
 Alpha  occ. eigenvalues --   -0.49479  -0.49244  -0.49237  -0.45577  -0.45269
 Alpha  occ. eigenvalues --   -0.38231  -0.37652  -0.36816  -0.36269
 Alpha virt. eigenvalues --    0.04214   0.04838   0.10541   0.11171   0.15861
 Alpha virt. eigenvalues --    0.16288   0.20471   0.21496   0.26335   0.26962
 Alpha virt. eigenvalues --    0.27422   0.28687   0.30258   0.31093   0.32072

 Mulliken charges:
               1
     1  C   -0.176551
     2  C   -0.224741
     3  C   -0.174523
     4  C    0.156826
     5  C   -0.170434
     6  C   -0.214140
     7  H    0.236341
     8  H    0.223631
     9  H    0.275003
    10  H    0.275741
    11  H    0.228151
    12  N    0.487446
    13  O   -0.460279
    14  O   -0.461028
    15  C   -0.170898
    16  C   -0.219068
    17  C   -0.173634
    18  C    0.154381
    19  C   -0.169298
    20  C   -0.211909
    21  H    0.230823
    22  H    0.226554
    23  H    0.275939
    24  H    0.268139
    25  H    0.224376
    26  N    0.487139
    27  O   -0.466288
    28  O   -0.457698
 Sum of Mulliken charges =  -0.00000

 Dipole moment (field-independent basis, Debye):
    X=              0.5734    Y=              0.2799    Z=              2.1167  Tot=              2.2108
 Quadrupole moment (field-independent basis, Debye-Ang):
   XX=           -146.7146   YY=            -97.7418   ZZ=            -99.2981
   XY=             18.6455   XZ=             -0.6197   YZ=             -2.2099

 Normal termination of Gaussian 16 at Thu May  6 06:42:42 2021.
