 Gaussian 16, Revision A.03,
 Gaussian 16:  EM64L-G16RevA.03 25-Dec-2016

 -------------
 #p 6-31g* mp2
 -------------

 ------------------------------------------------------
 Input file generated by CHIRIPA (05-May-2021 14:57:24)
 ------------------------------------------------------
 Symbolic Z-matrix:
 Charge =  0 Multiplicity = 1

                         Standard orientation:
 ---------------------------------------------------------------------
 Center     Atomic      Atomic             Coordinates (Angstroms)
 Number     Number       Type             X           Y           Z
 ---------------------------------------------------------------------
      1          6           0       -2.180442    1.425057   -0.235594
      2          6           0       -2.320956    0.291739   -1.043287
      3          6           0       -3.484816   -0.480756   -0.986472
      4          6           0       -4.492737   -0.089195   -0.106662
      5          6           0       -4.382533    1.034592    0.710803
      6          6           0       -3.209864    1.792219    0.637334
      7          1           0       -1.272906    2.019375   -0.286198
      8          1           0       -1.523132    0.004215   -1.722147
      9          1           0       -3.619886   -1.362867   -1.600520
     10          1           0       -5.195111    1.296116    1.377691
     11          1           0       -3.103495    2.671872    1.265777
     12          7           0       -5.729526   -0.899131   -0.037699
     13          8           0       -6.602927   -0.532980    0.745717
     14          8           0       -5.802102   -1.884774   -0.768368
     15          6           0        1.925688    0.735489    0.534075
     16          6           0        2.446687   -0.339071    1.262359
     17          6           0        3.754773   -0.779641    1.040194
     18          6           0        4.517366   -0.119678    0.077806
     19          6           0        4.026736    0.953807   -0.663951
     20          6           0        2.715982    1.377368   -0.425065
     21          1           0        0.908499    1.071129    0.713153
     22          1           0        1.835228   -0.839453    2.007866
     23          1           0        4.183222   -1.608996    1.589758
     24          1           0        4.660436    1.432688   -1.400509
     25          1           0        2.313998    2.212152   -0.992154
     26          7           0        5.903590   -0.577087   -0.166242
     27          8           0        6.555032    0.021162   -1.019680
     28          8           0        6.312423   -1.525192    0.500534
 ---------------------------------------------------------------------

 SCF Done:  E(RHF) =  -868.336652338     A.U. after   16 cycles
 E2 =    -0.2599947544D+01 EUMP2 =    -0.87093659988251D+03

 The electronic state is 1-A.
 Alpha  occ. eigenvalues --  -20.61397 -20.61391 -20.61274 -20.61267 -15.86453
 Alpha  occ. eigenvalues --  -15.86331 -11.32007 -11.31838 -11.28554 -11.28548
 Alpha  occ. eigenvalues --  -11.28476 -11.28434 -11.28387 -11.28273 -11.27681
 Alpha  occ. eigenvalues --  -11.27671 -11.27550 -11.27452  -1.60467  -1.60345
 Alpha  occ. eigenvalues --   -1.40015  -1.39894  -1.20196  -1.20033  -1.09595
 Alpha  occ. eigenvalues --   -1.09422  -1.05605  -1.05450  -0.96401  -0.96222
 Alpha  occ. eigenvalues --   -0.87010  -0.86855  -0.83211  -0.83042  -0.78188
 Alpha  occ. eigenvalues --   -0.78055  -0.72669  -0.72547  -0.71792  -0.71670
 Alpha  occ. eigenvalues --   -0.71584  -0.71010  -0.65854  -0.65695  -0.65613
 Alpha  occ. eigenvalues --   -0.65459  -0.62929  -0.62786  -0.56455  -0.55794
 Alpha  occ. eigenvalues --   -0.53937  -0.53781  -0.53695  -0.53549  -0.49443
 Alpha  occ. eigenvalues --   -0.49412  -0.49318  -0.49292  -0.45378  -0.45268
 Alpha  occ. eigenvalues --   -0.38261  -0.38042  -0.37193  -0.37047
 Alpha virt. eigenvalues --    0.04262   0.04475   0.10433   0.10589   0.15518
 Alpha virt. eigenvalues --    0.15907   0.18467   0.21815   0.25222   0.26552
 Alpha virt. eigenvalues --    0.26776   0.29262   0.30059   0.31252   0.31770

 Mulliken charges:
               1
     1  C   -0.176902
     2  C   -0.218476
     3  C   -0.170538
     4  C    0.160073
     5  C   -0.170609
     6  C   -0.218118
     7  H    0.217342
     8  H    0.226003
     9  H    0.278662
    10  H    0.278182
    11  H    0.224961
    12  N    0.487790
    13  O   -0.458258
    14  O   -0.457935
    15  C   -0.175742
    16  C   -0.218879
    17  C   -0.170102
    18  C    0.159148
    19  C   -0.170087
    20  C   -0.220027
    21  H    0.221174
    22  H    0.226953
    23  H    0.278159
    24  H    0.277277
    25  H    0.219411
    26  N    0.487907
    27  O   -0.459111
    28  O   -0.458259
 Sum of Mulliken charges =  -0.00000

 Dipole moment (field-independent basis, Debye):
    X=             -0.6101    Y=              4.2904    Z=              0.6360  Tot=              4.3800
 Quadrupole moment (field-independent basis, Debye-Ang):
   XX=           -186.6549   YY=           -102.1906   ZZ=           -100.4996
   XY=             -6.2986   XZ=              2.3043   YZ=             -0.6203

 Normal termination of Gaussian 16 at Thu May  6 21:17:02 2021.
