 Gaussian 16, Revision A.03,
 Gaussian 16:  EM64L-G16RevA.03 25-Dec-2016

 -------------
 #p 6-31g* mp2
 -------------

 ------------------------------------------------------
 Input file generated by CHIRIPA (05-May-2021 14:51:12)
 ------------------------------------------------------
 Symbolic Z-matrix:
 Charge =  0 Multiplicity = 1

                         Standard orientation:
 ---------------------------------------------------------------------
 Center     Atomic      Atomic             Coordinates (Angstroms)
 Number     Number       Type             X           Y           Z
 ---------------------------------------------------------------------
      1          6           0       -3.300189   -0.740490   -0.290679
      2          6           0       -2.064518   -1.310235   -0.988169
      3          6           0       -2.030164   -2.838774   -0.974654
      4          1           0       -3.326094   -1.100093    0.747088
      5          1           0       -4.202423   -1.132792   -0.780034
      6          1           0       -1.164878   -0.915887   -0.498522
      7          1           0       -2.041449   -0.949079   -2.024340
      8          1           0       -2.910181   -3.248377   -1.481009
      9          1           0       -2.028629   -3.214997    0.053478
     10          1           0       -1.138531   -3.224772   -1.478494
     11          6           0       -3.348807    0.786381   -0.295963
     12          6           0       -4.584478    1.356125    0.401527
     13          6           0       -4.618832    2.884664    0.388011
     14          1           0       -2.446573    1.178683    0.193391
     15          1           0       -3.322902    1.145984   -1.333730
     16          1           0       -4.607547    0.994970    1.437698
     17          1           0       -5.484118    0.961778   -0.088120
     18          1           0       -4.620367    3.260887   -0.640121
     19          1           0       -3.738815    3.294268    0.894367
     20          1           0       -5.510466    3.270662    0.891851
     21          6           0        2.992316   -0.408620    0.862831
     22          6           0        1.617069   -0.967113    0.495725
     23          6           0        0.965237   -1.736123    1.645303
     24          1           0        3.646791   -1.235743    1.170200
     25          1           0        2.891351    0.251050    1.735778
     26          1           0        1.720384   -1.624445   -0.377120
     27          1           0        0.965851   -0.138586    0.189010
     28          1           0        0.833153   -1.087038    2.516994
     29          1           0        1.591974   -2.581339    1.947648
     30          1           0       -0.016924   -2.126608    1.361150
     31          6           0        3.656680    0.362729   -0.276189
     32          6           0        5.031927    0.921222    0.090917
     33          6           0        5.683759    1.690232   -1.058661
     34          1           0        3.757645   -0.296941   -1.149135
     35          1           0        3.002205    1.189852   -0.583558
     36          1           0        5.683146    0.092696    0.397632
     37          1           0        4.928612    1.578554    0.963762
     38          1           0        5.057022    2.535448   -1.361006
     39          1           0        5.815843    1.041147   -1.930352
     40          1           0        6.665920    2.080717   -0.774508
 ---------------------------------------------------------------------

 SCF Done:  E(RHF) =  -470.732435070     A.U. after   11 cycles
 E2 =    -0.1584005787D+01 EUMP2 =    -0.47231644085626D+03

 The electronic state is 1-A.
 Alpha  occ. eigenvalues --  -11.21642 -11.21615 -11.21598 -11.21493 -11.21428
 Alpha  occ. eigenvalues --  -11.21391 -11.21368 -11.21326 -11.21082 -11.21080
 Alpha  occ. eigenvalues --  -11.21074 -11.21067  -1.08477  -1.08395  -1.03623
 Alpha  occ. eigenvalues --   -1.03458  -0.96054  -0.95926  -0.87034  -0.86974
 Alpha  occ. eigenvalues --   -0.79718  -0.79503  -0.78345  -0.78147  -0.65160
 Alpha  occ. eigenvalues --   -0.65018  -0.61150  -0.60913  -0.59440  -0.59190
 Alpha  occ. eigenvalues --   -0.57711  -0.57445  -0.55292  -0.55246  -0.52688
 Alpha  occ. eigenvalues --   -0.52654  -0.52424  -0.52373  -0.49949  -0.49925
 Alpha  occ. eigenvalues --   -0.48017  -0.47847  -0.46802  -0.46509  -0.45952
 Alpha  occ. eigenvalues --   -0.45756  -0.45741  -0.45417  -0.43802  -0.43764
 Alpha virt. eigenvalues --    0.20774   0.23107   0.23566   0.24889   0.25875
 Alpha virt. eigenvalues --    0.26584   0.26716   0.27632   0.27978   0.29219
 Alpha virt. eigenvalues --    0.30065   0.31097   0.31472   0.31785   0.32562

 Mulliken charges:
               1
     1  C   -0.297662
     2  C   -0.311530
     3  C   -0.477088
     4  H    0.149198
     5  H    0.149362
     6  H    0.165433
     7  H    0.151780
     8  H    0.155583
     9  H    0.154893
    10  H    0.160547
    11  C   -0.298244
    12  C   -0.299635
    13  C   -0.475688
    14  H    0.148739
    15  H    0.149674
    16  H    0.152025
    17  H    0.152041
    18  H    0.155158
    19  H    0.154973
    20  H    0.160274
    21  C   -0.297512
    22  C   -0.302445
    23  C   -0.482673
    24  H    0.149802
    25  H    0.149469
    26  H    0.152984
    27  H    0.152549
    28  H    0.154669
    29  H    0.155934
    30  H    0.167110
    31  C   -0.298410
    32  C   -0.299681
    33  C   -0.475721
    34  H    0.149616
    35  H    0.149815
    36  H    0.151982
    37  H    0.151916
    38  H    0.155245
    39  H    0.155221
    40  H    0.160299
 Sum of Mulliken charges =  -0.00000

 Dipole moment (field-independent basis, Debye):
    X=              0.0271    Y=             -0.0042    Z=             -0.0051  Tot=              0.0279
 Quadrupole moment (field-independent basis, Debye-Ang):
   XX=            -84.7959   YY=            -85.6001   ZZ=            -84.4670
   XY=             -0.5761   XZ=              0.7279   YZ=              0.6492

 Normal termination of Gaussian 16 at Thu May  6 07:06:33 2021.
