 Gaussian 16, Revision A.03,
 Gaussian 16:  EM64L-G16RevA.03 25-Dec-2016

 -------------
 #p 6-31g* mp2
 -------------

 ------------------------------------------------------
 Input file generated by CHIRIPA (05-May-2021 14:51:09)
 ------------------------------------------------------
 Symbolic Z-matrix:
 Charge =  0 Multiplicity = 1

                         Standard orientation:
 ---------------------------------------------------------------------
 Center     Atomic      Atomic             Coordinates (Angstroms)
 Number     Number       Type             X           Y           Z
 ---------------------------------------------------------------------
      1          6           0       -2.792546   -0.692070   -0.257432
      2          6           0       -3.313473    0.353171    0.729529
      3          6           0       -4.526163    1.116804    0.196575
      4          1           0       -2.529399   -0.196288   -1.201837
      5          1           0       -3.599594   -1.400395   -0.490549
      6          1           0       -2.505278    1.058505    0.961781
      7          1           0       -3.575230   -0.145129    1.671758
      8          1           0       -5.350653    0.429167   -0.017837
      9          1           0       -4.274622    1.639640   -0.731849
     10          1           0       -4.882157    1.858830    0.918050
     11          6           0       -1.580372   -1.463766    0.261074
     12          6           0       -1.059445   -2.509006   -0.725887
     13          6           0        0.153245   -3.272639   -0.192934
     14          1           0       -0.773323   -0.755441    0.494190
     15          1           0       -1.843519   -1.959547    1.205478
     16          1           0       -0.797688   -2.010707   -1.668117
     17          1           0       -1.867639   -3.214341   -0.958139
     18          1           0       -0.098296   -3.795475    0.735490
     19          1           0        0.977735   -2.585002    0.021479
     20          1           0        0.509240   -4.014665   -0.914408
     21          6           0        2.264572    0.318422   -0.024094
     22          6           0        3.663391   -0.159019    0.367493
     23          6           0        3.804024   -1.680721    0.318097
     24          1           0        1.525960   -0.141463    0.646655
     25          1           0        2.032691   -0.039486   -1.036778
     26          1           0        3.893112    0.200851    1.378599
     27          1           0        4.398775    0.302205   -0.304146
     28          1           0        3.601105   -2.053799   -0.690980
     29          1           0        3.092569   -2.155730    1.001326
     30          1           0        4.811692   -2.000186    0.601658
     31          6           0        2.108346    1.837414    0.020453
     32          6           0        0.709527    2.314855   -0.371134
     33          6           0        0.568895    3.836556   -0.321739
     34          1           0        2.340227    2.195321    1.033137
     35          1           0        2.846957    2.297298   -0.650297
     36          1           0       -0.025857    1.853630    0.300504
     37          1           0        0.479805    1.954984   -1.382241
     38          1           0        1.280348    4.311565   -1.004967
     39          1           0        0.771812    4.209634    0.687339
     40          1           0       -0.438774    4.156021   -0.605301
 ---------------------------------------------------------------------

 SCF Done:  E(RHF) =  -470.731571556     A.U. after   11 cycles
 E2 =    -0.1586076535D+01 EUMP2 =    -0.47231764809060D+03

 The electronic state is 1-A.
 Alpha  occ. eigenvalues --  -11.21709 -11.21669 -11.21573 -11.21501 -11.21492
 Alpha  occ. eigenvalues --  -11.21442 -11.21324 -11.21247 -11.21150 -11.21088
 Alpha  occ. eigenvalues --  -11.21049 -11.20857  -1.08557  -1.08337  -1.03636
 Alpha  occ. eigenvalues --   -1.03437  -0.96076  -0.95887  -0.87104  -0.86896
 Alpha  occ. eigenvalues --   -0.79760  -0.79469  -0.78527  -0.78033  -0.65298
 Alpha  occ. eigenvalues --   -0.64866  -0.61099  -0.60819  -0.59456  -0.59249
 Alpha  occ. eigenvalues --   -0.57774  -0.57458  -0.55401  -0.55132  -0.52750
 Alpha  occ. eigenvalues --   -0.52675  -0.52530  -0.52227  -0.50052  -0.49789
 Alpha  occ. eigenvalues --   -0.48233  -0.47674  -0.46862  -0.46734  -0.46266
 Alpha  occ. eigenvalues --   -0.45828  -0.45663  -0.44754  -0.43860  -0.43701
 Alpha virt. eigenvalues --    0.20399   0.22223   0.23662   0.24531   0.24951
 Alpha virt. eigenvalues --    0.26295   0.26705   0.27866   0.28769   0.29709
 Alpha virt. eigenvalues --    0.30863   0.31317   0.31815   0.31991   0.32134

 Mulliken charges:
               1
     1  C   -0.297159
     2  C   -0.303654
     3  C   -0.475483
     4  H    0.149939
     5  H    0.149325
     6  H    0.154753
     7  H    0.151710
     8  H    0.155226
     9  H    0.155157
    10  H    0.159988
    11  C   -0.307684
    12  C   -0.298155
    13  C   -0.486282
    14  H    0.158468
    15  H    0.148527
    16  H    0.151017
    17  H    0.151194
    18  H    0.153311
    19  H    0.168692
    20  H    0.159118
    21  C   -0.306639
    22  C   -0.298759
    23  C   -0.479936
    24  H    0.155849
    25  H    0.150015
    26  H    0.152049
    27  H    0.152155
    28  H    0.156482
    29  H    0.158492
    30  H    0.161077
    31  C   -0.297632
    32  C   -0.306657
    33  C   -0.475639
    34  H    0.149758
    35  H    0.150202
    36  H    0.157673
    37  H    0.151777
    38  H    0.155626
    39  H    0.155490
    40  H    0.160606
 Sum of Mulliken charges =  -0.00000

 Dipole moment (field-independent basis, Debye):
    X=              0.0859    Y=              0.0456    Z=              0.0108  Tot=              0.0978
 Quadrupole moment (field-independent basis, Debye-Ang):
   XX=            -85.1386   YY=            -86.0017   ZZ=            -83.7097
   XY=              1.1806   XZ=             -0.7384   YZ=             -0.2044

 Normal termination of Gaussian 16 at Thu May  6 03:43:47 2021.
