 Gaussian 16, Revision A.03,
 Gaussian 16:  EM64L-G16RevA.03 25-Dec-2016

 -------------
 #p 6-31g* mp2
 -------------

 ------------------------------------------------------
 Input file generated by CHIRIPA (05-May-2021 14:57:26)
 ------------------------------------------------------
 Symbolic Z-matrix:
 Charge =  0 Multiplicity = 1

                         Standard orientation:
 ---------------------------------------------------------------------
 Center     Atomic      Atomic             Coordinates (Angstroms)
 Number     Number       Type             X           Y           Z
 ---------------------------------------------------------------------
      1          6           0        4.414565   -2.157787    0.702118
      2          6           0        3.425112   -1.516438    1.454564
      3          6           0        2.886361   -0.298861    1.028183
      4          6           0        3.362424    0.251485   -0.160839
      5          6           0        4.347256   -0.363187   -0.932573
      6          6           0        4.871674   -1.580133   -0.486952
      7          1           0        4.827513   -3.103385    1.040814
      8          1           0        3.068208   -1.962722    2.378412
      9          1           0        2.119491    0.219109    1.591243
     10          1           0        4.682927    0.106236   -1.849298
     11          1           0        5.640005   -2.075963   -1.073352
     12          7           0        2.799659    1.540146   -0.622413
     13          8           0        3.236050    2.004279   -1.673499
     14          8           0        1.932830    2.061663    0.075630
     15          6           0       -1.685886    1.487194    1.036592
     16          6           0       -1.339102    0.209439    0.585366
     17          6           0       -2.311137   -0.644722    0.056118
     18          6           0       -3.626223   -0.186655   -0.007253
     19          6           0       -4.003046    1.080812    0.434133
     20          6           0       -3.014409    1.918043    0.959671
     21          1           0       -0.924337    2.144150    1.446284
     22          1           0       -0.308144   -0.127827    0.643876
     23          1           0       -2.070299   -1.638850   -0.300425
     24          1           0       -5.039092    1.388947    0.362878
     25          1           0       -3.286622    2.909846    1.309343
     26          7           0       -4.664061   -1.081955   -0.565580
     27          8           0       -5.815613   -0.654699   -0.610495
     28          8           0       -4.306314   -2.193995   -0.947710
 ---------------------------------------------------------------------

 SCF Done:  E(RHF) =  -868.339045759     A.U. after   16 cycles
 E2 =    -0.2600129511D+01 EUMP2 =    -0.87093917527011D+03

 The electronic state is 1-A.
 Alpha  occ. eigenvalues --  -20.61885 -20.61818 -20.60393 -20.60386 -15.86888
 Alpha  occ. eigenvalues --  -15.85444 -11.32152 -11.30663 -11.28757 -11.28606
 Alpha  occ. eigenvalues --  -11.28318 -11.27679 -11.27600 -11.27264 -11.27236
 Alpha  occ. eigenvalues --  -11.26800 -11.26180 -11.26148  -1.60904  -1.59472
 Alpha  occ. eigenvalues --   -1.40470  -1.39030  -1.20282  -1.18820  -1.09679
 Alpha  occ. eigenvalues --   -1.08204  -1.05668  -1.04223  -0.96546  -0.95066
 Alpha  occ. eigenvalues --   -0.87068  -0.85608  -0.83386  -0.81925  -0.78474
 Alpha  occ. eigenvalues --   -0.77024  -0.73122  -0.72215  -0.71663  -0.71372
 Alpha  occ. eigenvalues --   -0.70795  -0.69827  -0.65931  -0.65665  -0.64459
 Alpha  occ. eigenvalues --   -0.64239  -0.63013  -0.61580  -0.56125  -0.54596
 Alpha  occ. eigenvalues --   -0.53990  -0.53749  -0.52535  -0.52301  -0.49885
 Alpha  occ. eigenvalues --   -0.49830  -0.48428  -0.48408  -0.45884  -0.44470
 Alpha  occ. eigenvalues --   -0.38218  -0.37262  -0.36719  -0.35842
 Alpha virt. eigenvalues --    0.04024   0.05540   0.10247   0.11817   0.15609
 Alpha virt. eigenvalues --    0.17082   0.19871   0.22095   0.25749   0.27022
 Alpha virt. eigenvalues --    0.28245   0.28941   0.30719   0.31157   0.31895

 Mulliken charges:
               1
     1  C   -0.170097
     2  C   -0.218268
     3  C   -0.177708
     4  C    0.160318
     5  C   -0.170145
     6  C   -0.217054
     7  H    0.229674
     8  H    0.226404
     9  H    0.268843
    10  H    0.278466
    11  H    0.227590
    12  N    0.491538
    13  O   -0.452512
    14  O   -0.472214
    15  C   -0.168318
    16  C   -0.219970
    17  C   -0.173069
    18  C    0.157729
    19  C   -0.171111
    20  C   -0.219881
    21  H    0.238414
    22  H    0.218631
    23  H    0.272042
    24  H    0.273941
    25  H    0.223189
    26  N    0.488313
    27  O   -0.461604
    28  O   -0.463142
 Sum of Mulliken charges =  -0.00000

 Dipole moment (field-independent basis, Debye):
    X=              6.1400    Y=             -1.3263    Z=              3.5081  Tot=              7.1949
 Quadrupole moment (field-independent basis, Debye-Ang):
   XX=           -113.7459   YY=           -106.3685   ZZ=           -102.9585
   XY=            -30.8529   XZ=             -5.7836   YZ=              1.3662

 Normal termination of Gaussian 16 at Wed May  5 19:36:42 2021.
