 Gaussian 16, Revision A.03,
 Gaussian 16:  EM64L-G16RevA.03 25-Dec-2016

 -------------
 #p 6-31g* mp2
 -------------

 ------------------------------------------------------
 Input file generated by CHIRIPA (05-May-2021 14:55:21)
 ------------------------------------------------------
 Symbolic Z-matrix:
 Charge =  0 Multiplicity = 1

                         Standard orientation:
 ---------------------------------------------------------------------
 Center     Atomic      Atomic             Coordinates (Angstroms)
 Number     Number       Type             X           Y           Z
 ---------------------------------------------------------------------
      1          6           0       -0.299795   -1.149636    1.590571
      2          6           0       -0.920482   -2.065494    0.734725
      3          6           0       -2.029000   -1.685922   -0.027941
      4          6           0       -2.492544   -0.376566    0.090402
      5          6           0       -1.895770    0.558967    0.934160
      6          6           0       -0.788559    0.157368    1.687386
      7          1           0        0.560821   -1.453052    2.179361
      8          1           0       -0.543068   -3.081192    0.657513
      9          1           0       -2.528602   -2.374619   -0.698398
     10          1           0       -2.294823    1.564491    0.989803
     11          1           0       -0.308526    0.870767    2.351220
     12          7           0       -3.665391    0.036929   -0.712002
     13          8           0       -4.054500    1.196361   -0.589737
     14          8           0       -4.173351   -0.806234   -1.447997
     15          6           0        3.455931    0.135463   -0.648595
     16          6           0        3.604605   -1.261833   -0.045729
     17          6           0        4.634274   -2.117701   -0.784015
     18          1           0        3.168588    0.043424   -1.704960
     19          1           0        4.432094    0.639703   -0.632987
     20          1           0        2.628163   -1.762770   -0.061203
     21          1           0        3.891441   -1.166454    1.009374
     22          1           0        5.620332   -1.642757   -0.757190
     23          1           0        4.349876   -2.242460   -1.833850
     24          1           0        4.724526   -3.112392   -0.336464
     25          6           0        2.430135    1.003008    0.078616
     26          6           0        2.281461    2.400304   -0.524247
     27          6           0        1.251791    3.256172    0.214037
     28          1           0        1.453972    0.498769    0.063009
     29          1           0        2.717478    1.095047    1.134981
     30          1           0        1.994625    2.304925   -1.579352
     31          1           0        3.257903    2.901241   -0.508774
     32          1           0        1.536189    3.380931    1.263872
     33          1           0        0.265733    2.781228    0.187212
     34          1           0        1.161540    4.250864   -0.233514
 ---------------------------------------------------------------------

 SCF Done:  E(RHF) =  -669.533962587     A.U. after   15 cycles
 E2 =    -0.2095025818D+01 EUMP2 =    -0.67162898840480D+03

 The electronic state is 1-A.
 Alpha  occ. eigenvalues --  -20.60830 -20.60823 -15.85884 -11.31282 -11.27848
 Alpha  occ. eigenvalues --  -11.27818 -11.27532 -11.26872 -11.26797 -11.22314
 Alpha  occ. eigenvalues --  -11.22021 -11.21893 -11.21754 -11.21655 -11.21585
 Alpha  occ. eigenvalues --   -1.59904  -1.39457  -1.19463  -1.09005  -1.08802
 Alpha  occ. eigenvalues --   -1.04867  -1.04077  -0.96522  -0.95666  -0.87545
 Alpha  occ. eigenvalues --   -0.86248  -0.82496  -0.80164  -0.78825  -0.77531
 Alpha  occ. eigenvalues --   -0.72099  -0.71230  -0.70532  -0.65604  -0.65100
 Alpha  occ. eigenvalues --   -0.64838  -0.62214  -0.61473  -0.59889  -0.58149
 Alpha  occ. eigenvalues --   -0.55811  -0.55324  -0.53387  -0.53166  -0.52941
 Alpha  occ. eigenvalues --   -0.52912  -0.50470  -0.48863  -0.48855  -0.48480
 Alpha  occ. eigenvalues --   -0.47201  -0.46339  -0.46214  -0.44855  -0.44305
 Alpha  occ. eigenvalues --   -0.37301  -0.36380
 Alpha virt. eigenvalues --    0.04916   0.11065   0.16261   0.20377   0.22770
 Alpha virt. eigenvalues --    0.23322   0.25524   0.26271   0.26895   0.28256
 Alpha virt. eigenvalues --    0.28867   0.30076   0.31331   0.31565   0.31838

 Mulliken charges:
               1
     1  C   -0.170970
     2  C   -0.219293
     3  C   -0.171411
     4  C    0.158193
     5  C   -0.172915
     6  C   -0.217549
     7  H    0.229015
     8  H    0.224302
     9  H    0.275993
    10  H    0.276533
    11  H    0.227552
    12  N    0.488092
    13  O   -0.459948
    14  O   -0.460244
    15  C   -0.296844
    16  C   -0.301907
    17  C   -0.475699
    18  H    0.152574
    19  H    0.150569
    20  H    0.147433
    21  H    0.147881
    22  H    0.157565
    23  H    0.157617
    24  H    0.159061
    25  C   -0.309852
    26  C   -0.298196
    27  C   -0.480153
    28  H    0.164852
    29  H    0.140118
    30  H    0.155659
    31  H    0.152539
    32  H    0.149731
    33  H    0.154723
    34  H    0.164979
 Sum of Mulliken charges =  -0.00000

 Dipole moment (field-independent basis, Debye):
    X=              4.0903    Y=             -1.4692    Z=              2.7541  Tot=              5.1453
 Quadrupole moment (field-independent basis, Debye-Ang):
   XX=           -116.2257   YY=            -90.0088   ZZ=            -93.8023
   XY=              3.1365   XZ=             -6.1629   YZ=              0.6109

 Normal termination of Gaussian 16 at Thu May  6 09:21:11 2021.
