 Gaussian 16, Revision A.03,
 Gaussian 16:  EM64L-G16RevA.03 25-Dec-2016

 -------------
 #p 6-31g* mp2
 -------------

 ------------------------------------------------------
 Input file generated by CHIRIPA (05-May-2021 14:53:13)
 ------------------------------------------------------
 Symbolic Z-matrix:
 Charge =  0 Multiplicity = 1

                         Standard orientation:
 ---------------------------------------------------------------------
 Center     Atomic      Atomic             Coordinates (Angstroms)
 Number     Number       Type             X           Y           Z
 ---------------------------------------------------------------------
      1          6           0       -4.647192    0.411011   -0.036141
      2          6           0       -6.088831    0.285062   -0.529901
      3          6           0       -6.764298    1.641430   -0.734358
      4          1           0       -4.637401    0.973100    0.907737
      5          1           0       -4.069873    1.003920   -0.759021
      6          1           0       -6.662921   -0.308603    0.193009
      7          1           0       -6.095210   -0.276958   -1.472615
      8          1           0       -6.216480    2.237394   -1.471463
      9          1           0       -6.787417    2.205570    0.203625
     10          1           0       -7.794003    1.527968   -1.087478
     11          6           0       -3.958546   -0.936492    0.172977
     12          6           0       -2.516907   -0.810542    0.666737
     13          6           0       -1.841439   -2.166910    0.871194
     14          1           0       -4.535865   -1.529401    0.895857
     15          1           0       -3.968337   -1.498580   -0.770901
     16          1           0       -2.510527   -0.248523    1.609451
     17          1           0       -1.942817   -0.216878   -0.056173
     18          1           0       -1.818321   -2.731050   -0.066789
     19          1           0       -2.389257   -2.762875    1.608298
     20          1           0       -0.811734   -2.053448    1.224314
     21          6           0        3.377404   -2.273167   -0.525727
     22          6           0        4.466482   -1.481419   -0.904630
     23          6           0        4.468568   -0.107124   -0.648002
     24          6           0        3.360090    0.444871   -0.007793
     25          6           0        2.259984   -0.317457    0.381964
     26          6           0        2.279567   -1.689688    0.115230
     27          1           0        3.384199   -3.339951   -0.729008
     28          1           0        5.320434   -1.931843   -1.402554
     29          1           0        5.298432    0.529213   -0.930527
     30          1           0        1.423024    0.160141    0.876755
     31          1           0        1.432384   -2.302119    0.410622
     32          7           0        3.350829    1.898683    0.269236
     33          8           0        2.362183    2.360852    0.834582
     34          8           0        4.332392    2.548484   -0.084218
 ---------------------------------------------------------------------

 SCF Done:  E(RHF) =  -669.535504129     A.U. after   15 cycles
 E2 =    -0.2091007515D+01 EUMP2 =    -0.67162651164447D+03

 The electronic state is 1-A.
 Alpha  occ. eigenvalues --  -20.60731 -20.60726 -15.85784 -11.31143 -11.27711
 Alpha  occ. eigenvalues --  -11.27697 -11.27445 -11.26728 -11.26679 -11.22156
 Alpha  occ. eigenvalues --  -11.21988 -11.21765 -11.21746 -11.21564 -11.21134
 Alpha  occ. eigenvalues --   -1.59807  -1.39360  -1.19311  -1.08768  -1.08707
 Alpha  occ. eigenvalues --   -1.04715  -1.03924  -0.96395  -0.95545  -0.87418
 Alpha  occ. eigenvalues --   -0.86110  -0.82379  -0.79989  -0.78530  -0.77429
 Alpha  occ. eigenvalues --   -0.72002  -0.71130  -0.70422  -0.65390  -0.64965
 Alpha  occ. eigenvalues --   -0.64735  -0.62130  -0.61302  -0.59780  -0.57980
 Alpha  occ. eigenvalues --   -0.55665  -0.55214  -0.53249  -0.53043  -0.52857
 Alpha  occ. eigenvalues --   -0.52627  -0.50308  -0.48760  -0.48757  -0.48300
 Alpha  occ. eigenvalues --   -0.46996  -0.46085  -0.45977  -0.44768  -0.44166
 Alpha  occ. eigenvalues --   -0.37294  -0.36315
 Alpha virt. eigenvalues --    0.05103   0.11334   0.16592   0.19666   0.22757
 Alpha virt. eigenvalues --    0.23792   0.25980   0.26395   0.26909   0.28203
 Alpha virt. eigenvalues --    0.29010   0.29936   0.31035   0.31526   0.32558

 Mulliken charges:
               1
     1  C   -0.299193
     2  C   -0.300017
     3  C   -0.476034
     4  H    0.151746
     5  H    0.151922
     6  H    0.151793
     7  H    0.151665
     8  H    0.156426
     9  H    0.156255
    10  H    0.160541
    11  C   -0.298999
    12  C   -0.301419
    13  C   -0.480074
    14  H    0.150271
    15  H    0.149723
    16  H    0.156119
    17  H    0.154185
    18  H    0.155852
    19  H    0.160322
    20  H    0.150573
    21  C   -0.171434
    22  C   -0.218493
    23  C   -0.171176
    24  C    0.158676
    25  C   -0.173775
    26  C   -0.223710
    27  H    0.225862
    28  H    0.223172
    29  H    0.275397
    30  H    0.276179
    31  H    0.230693
    32  N    0.488080
    33  O   -0.460433
    34  O   -0.460692
 Sum of Mulliken charges =  -0.00000

 Dipole moment (field-independent basis, Debye):
    X=             -0.1587    Y=             -5.0864    Z=             -0.9885  Tot=              5.1840
 Quadrupole moment (field-independent basis, Debye-Ang):
   XX=            -90.2715   YY=           -100.7890   ZZ=            -93.6767
   XY=            -16.4553   XZ=             -6.0772   YZ=             -0.3865

 Normal termination of Gaussian 16 at Wed May  5 20:11:42 2021.
