 Gaussian 16, Revision A.03,
 Gaussian 16:  EM64L-G16RevA.03 25-Dec-2016

 -------------
 #p 6-31g* mp2
 -------------

 ------------------------------------------------------
 Input file generated by CHIRIPA (05-May-2021 14:57:23)
 ------------------------------------------------------
 Symbolic Z-matrix:
 Charge =  0 Multiplicity = 1

                         Standard orientation:
 ---------------------------------------------------------------------
 Center     Atomic      Atomic             Coordinates (Angstroms)
 Number     Number       Type             X           Y           Z
 ---------------------------------------------------------------------
      1          6           0       -6.048973   -1.106967    0.299372
      2          6           0       -5.960361    0.172436    0.857761
      3          6           0       -4.796073    0.932260    0.710624
      4          6           0       -3.734806    0.379201   -0.004307
      5          6           0       -3.792568   -0.892504   -0.572392
      6          6           0       -4.966702   -1.634424   -0.412666
      7          1           0       -6.957245   -1.690263    0.418561
      8          1           0       -6.799293    0.584612    1.411249
      9          1           0       -4.700539    1.925374    1.132543
     10          1           0       -2.939687   -1.276542   -1.118767
     11          1           0       -5.032696   -2.627747   -0.847405
     12          7           0       -2.497014    1.174115   -0.166737
     13          8           0       -1.576045    0.664209   -0.801125
     14          8           0       -2.471241    2.292024    0.343414
     15          6           0        6.256728    0.607706    0.488042
     16          6           0        5.376823    1.382284   -0.275056
     17          6           0        4.090153    0.918074   -0.564077
     18          6           0        3.714721   -0.330934   -0.071818
     19          6           0        4.568492   -1.126057    0.691166
     20          6           0        5.850470   -0.641790    0.967872
     21          1           0        7.254423    0.976106    0.707778
     22          1           0        5.689617    2.353038   -0.649010
     23          1           0        3.388756    1.497088   -1.152468
     24          1           0        4.228098   -2.089753    1.050109
     25          1           0        6.531698   -1.245501    1.560752
     26          7           0        2.355064   -0.832989   -0.371274
     27          8           0        2.048442   -1.936744    0.074088
     28          8           0        1.621731   -0.113239   -1.045676
 ---------------------------------------------------------------------

 SCF Done:  E(RHF) =  -868.335902427     A.U. after   16 cycles
 E2 =    -0.2599926799D+01 EUMP2 =    -0.87093582922584D+03

 The electronic state is 1-A.
 Alpha  occ. eigenvalues --  -20.59875 -20.59737 -20.59713 -20.59579 -15.84853
 Alpha  occ. eigenvalues --  -15.84689 -11.30469 -11.30317 -11.27103 -11.27031
 Alpha  occ. eigenvalues --  -11.26967 -11.26883 -11.26863 -11.26750 -11.26172
 Alpha  occ. eigenvalues --  -11.26128 -11.26038 -11.25980  -1.58882  -1.58733
 Alpha  occ. eigenvalues --   -1.38426  -1.38268  -1.18672  -1.18527  -1.08027
 Alpha  occ. eigenvalues --   -1.07883  -1.04111  -1.03965  -0.94821  -0.94659
 Alpha  occ. eigenvalues --   -0.85499  -0.85353  -0.81654  -0.81471  -0.76649
 Alpha  occ. eigenvalues --   -0.76486  -0.71175  -0.70771  -0.70218  -0.70065
 Alpha  occ. eigenvalues --   -0.69785  -0.69637  -0.64321  -0.64171  -0.64119
 Alpha  occ. eigenvalues --   -0.63977  -0.61453  -0.61301  -0.54619  -0.54480
 Alpha  occ. eigenvalues --   -0.52431  -0.52289  -0.52209  -0.52061  -0.47925
 Alpha  occ. eigenvalues --   -0.47837  -0.47658  -0.47601  -0.43821  -0.43552
 Alpha  occ. eigenvalues --   -0.36676  -0.36538  -0.35727  -0.35581
 Alpha virt. eigenvalues --    0.05867   0.06071   0.11923   0.12068   0.17310
 Alpha virt. eigenvalues --    0.17500   0.22014   0.22158   0.27909   0.28056
 Alpha virt. eigenvalues --    0.28941   0.29102   0.31541   0.31682   0.33229

 Mulliken charges:
               1
     1  C   -0.171793
     2  C   -0.218932
     3  C   -0.171913
     4  C    0.157991
     5  C   -0.170835
     6  C   -0.219033
     7  H    0.222601
     8  H    0.220183
     9  H    0.273235
    10  H    0.282738
    11  H    0.222271
    12  N    0.486633
    13  O   -0.443847
    14  O   -0.469573
    15  C   -0.171706
    16  C   -0.218772
    17  C   -0.170603
    18  C    0.158754
    19  C   -0.171750
    20  C   -0.218729
    21  H    0.223151
    22  H    0.222352
    23  H    0.279825
    24  H    0.273417
    25  H    0.220690
    26  N    0.486934
    27  O   -0.469105
    28  O   -0.444183
 Sum of Mulliken charges =  -0.00000

 Dipole moment (field-independent basis, Debye):
    X=              0.4987    Y=             -1.0042    Z=              1.4028  Tot=              1.7958
 Quadrupole moment (field-independent basis, Debye-Ang):
   XX=            -39.6991   YY=           -102.9134   ZZ=           -103.5395
   XY=             11.9303   XZ=              0.8720   YZ=             -0.5284

 Normal termination of Gaussian 16 at Thu May  6 01:49:13 2021.
