 Gaussian 16, Revision A.03,
 Gaussian 16:  EM64L-G16RevA.03 25-Dec-2016

 -------------
 #p 6-31g* mp2
 -------------

 ------------------------------------------------------
 Input file generated by CHIRIPA (05-May-2021 14:57:26)
 ------------------------------------------------------
 Symbolic Z-matrix:
 Charge =  0 Multiplicity = 1

                         Standard orientation:
 ---------------------------------------------------------------------
 Center     Atomic      Atomic             Coordinates (Angstroms)
 Number     Number       Type             X           Y           Z
 ---------------------------------------------------------------------
      1          6           0        5.054263   -1.924339    0.360455
      2          6           0        5.386330   -0.793718    1.114078
      3          6           0        4.696733    0.408692    0.931830
      4          6           0        3.676023    0.445120   -0.016914
      5          6           0        3.321770   -0.664219   -0.783178
      6          6           0        4.024858   -1.856102   -0.584103
      7          1           0        5.595199   -2.854311    0.508566
      8          1           0        6.185325   -0.843793    1.848342
      9          1           0        4.933154    1.299094    1.501661
     10          1           0        2.520504   -0.583545   -1.507667
     11          1           0        3.764805   -2.732573   -1.170802
     12          7           0        2.938836    1.712485   -0.218759
     13          8           0        2.043632    1.718611   -1.060904
     14          8           0        3.270193    2.675722    0.469001
     15          6           0       -1.491601   -1.056113   -0.629927
     16          6           0       -2.463508   -1.962300   -0.193186
     17          6           0       -3.744475   -1.519256    0.149427
     18          6           0       -4.020448   -0.156980    0.042966
     19          6           0       -3.073582    0.770514   -0.388878
     20          6           0       -1.799198    0.305003   -0.726210
     21          1           0       -0.499072   -1.409007   -0.894026
     22          1           0       -2.227444   -3.019930   -0.117437
     23          1           0       -4.515835   -2.199057    0.490444
     24          1           0       -3.338619    1.818806   -0.454123
     25          1           0       -1.046389    1.011038   -1.065085
     26          7           0       -5.373066    0.323943    0.402879
     27          8           0       -5.591110    1.529180    0.300419
     28          8           0       -6.189592   -0.513452    0.780625
 ---------------------------------------------------------------------

 SCF Done:  E(RHF) =  -868.339034509     A.U. after   16 cycles
 E2 =    -0.2599108329D+01 EUMP2 =    -0.87093814283833D+03

 The electronic state is 1-A.
 Alpha  occ. eigenvalues --  -20.61839 -20.61763 -20.60394 -20.60380 -15.86840
 Alpha  occ. eigenvalues --  -15.85436 -11.32094 -11.30751 -11.28715 -11.28584
 Alpha  occ. eigenvalues --  -11.28319 -11.27657 -11.27571 -11.27337 -11.27202
 Alpha  occ. eigenvalues --  -11.27072 -11.26410 -11.26111  -1.60857  -1.59465
 Alpha  occ. eigenvalues --   -1.40420  -1.39020  -1.20242  -1.18902  -1.09647
 Alpha  occ. eigenvalues --   -1.08321  -1.05634  -1.04272  -0.96508  -0.95171
 Alpha  occ. eigenvalues --   -0.87032  -0.85676  -0.83351  -0.81985  -0.78423
 Alpha  occ. eigenvalues --   -0.77026  -0.73065  -0.72165  -0.71657  -0.71344
 Alpha  occ. eigenvalues --   -0.70786  -0.70061  -0.65898  -0.65628  -0.64550
 Alpha  occ. eigenvalues --   -0.64236  -0.62992  -0.61593  -0.56111  -0.54849
 Alpha  occ. eigenvalues --   -0.53953  -0.53719  -0.52637  -0.52334  -0.49833
 Alpha  occ. eigenvalues --   -0.49791  -0.48416  -0.48408  -0.45843  -0.44436
 Alpha  occ. eigenvalues --   -0.38191  -0.37233  -0.36915  -0.35868
 Alpha virt. eigenvalues --    0.04075   0.05466   0.10393   0.11776   0.15593
 Alpha virt. eigenvalues --    0.16977   0.19648   0.21916   0.25455   0.26978
 Alpha virt. eigenvalues --    0.28095   0.28962   0.30634   0.31073   0.32544

 Mulliken charges:
               1
     1  C   -0.170021
     2  C   -0.217816
     3  C   -0.169823
     4  C    0.159892
     5  C   -0.174647
     6  C   -0.218236
     7  H    0.228518
     8  H    0.226888
     9  H    0.278220
    10  H    0.269810
    11  H    0.223621
    12  N    0.490499
    13  O   -0.470584
    14  O   -0.453338
    15  C   -0.172130
    16  C   -0.218298
    17  C   -0.172615
    18  C    0.158909
    19  C   -0.172216
    20  C   -0.225136
    21  H    0.217043
    22  H    0.218915
    23  H    0.273460
    24  H    0.277541
    25  H    0.245702
    26  N    0.487962
    27  O   -0.459667
    28  O   -0.462451
 Sum of Mulliken charges =  -0.00000

 Dipole moment (field-independent basis, Debye):
    X=              7.7756    Y=             -5.9728    Z=             -0.4550  Tot=              9.8154
 Quadrupole moment (field-independent basis, Debye-Ang):
   XX=           -122.2690   YY=           -103.3715   ZZ=           -103.5064
   XY=             -6.9083   XZ=             10.4787   YZ=              1.0875

 Normal termination of Gaussian 16 at Wed May  5 19:35:21 2021.
