 Gaussian 16, Revision A.03,
 Gaussian 16:  EM64L-G16RevA.03 25-Dec-2016

 -------------
 #p 6-31g* mp2
 -------------

 ------------------------------------------------------
 Input file generated by CHIRIPA (05-May-2021 14:55:21)
 ------------------------------------------------------
 Symbolic Z-matrix:
 Charge =  0 Multiplicity = 1

                         Standard orientation:
 ---------------------------------------------------------------------
 Center     Atomic      Atomic             Coordinates (Angstroms)
 Number     Number       Type             X           Y           Z
 ---------------------------------------------------------------------
      1          6           0       -4.220803    2.324542    0.396594
      2          6           0       -2.823154    2.274222    0.372825
      3          6           0       -2.160431    1.073647    0.100855
      4          6           0       -2.930113   -0.062559   -0.143921
      5          6           0       -4.323916   -0.044467   -0.127327
      6          6           0       -4.965411    1.167078    0.146882
      7          1           0       -4.727377    3.261439    0.608737
      8          1           0       -2.242309    3.171551    0.566383
      9          1           0       -1.079556    1.006416    0.076200
     10          1           0       -4.875827   -0.955542   -0.324192
     11          1           0       -6.050963    1.203194    0.164685
     12          7           0       -2.239755   -1.339360   -0.433029
     13          8           0       -2.940728   -2.326368   -0.645370
     14          8           0       -1.010751   -1.328933   -0.441816
     15          6           0        4.244278    0.275954   -0.372574
     16          6           0        5.203282    1.263425    0.293155
     17          6           0        5.892012    2.187377   -0.711713
     18          1           0        4.798395   -0.325660   -1.106032
     19          1           0        3.485754    0.836005   -0.936825
     20          1           0        5.958954    0.701709    0.857116
     21          1           0        4.646857    1.862627    1.025251
     22          1           0        5.151948    2.773006   -1.266641
     23          1           0        6.471500    1.605491   -1.435731
     24          1           0        6.573015    2.885029   -0.214344
     25          6           0        3.548087   -0.654510    0.619031
     26          6           0        2.589082   -1.641981   -0.046698
     27          6           0        1.900354   -2.565933    0.958170
     28          1           0        4.306611   -1.214561    1.183283
     29          1           0        2.993970   -0.052897    1.352489
     30          1           0        3.145507   -2.241184   -0.778794
     31          1           0        1.833411   -1.080264   -0.610658
     32          1           0        1.320865   -1.984047    1.682189
     33          1           0        2.640416   -3.151563    1.513098
     34          1           0        1.219349   -3.263585    0.460801
 ---------------------------------------------------------------------

 SCF Done:  E(RHF) =  -669.535814491     A.U. after   15 cycles
 E2 =    -0.2091621684D+01 EUMP2 =    -0.67162743617473D+03

 The electronic state is 1-A.
 Alpha  occ. eigenvalues --  -20.60958 -20.60950 -15.85989 -11.31314 -11.27883
 Alpha  occ. eigenvalues --  -11.27872 -11.27612 -11.26885 -11.26875 -11.21265
 Alpha  occ. eigenvalues --  -11.20866 -11.20836 -11.20607 -11.20307 -11.19579
 Alpha  occ. eigenvalues --   -1.60017  -1.39575  -1.19482  -1.08886  -1.07737
 Alpha  occ. eigenvalues --   -1.04880  -1.02709  -0.95736  -0.95166  -0.86282
 Alpha  occ. eigenvalues --   -0.86202  -0.82565  -0.78848  -0.77638  -0.77453
 Alpha  occ. eigenvalues --   -0.72231  -0.71330  -0.70592  -0.65147  -0.64883
 Alpha  occ. eigenvalues --   -0.64375  -0.62229  -0.60095  -0.58612  -0.56731
 Alpha  occ. eigenvalues --   -0.55382  -0.54481  -0.53210  -0.52972  -0.51834
 Alpha  occ. eigenvalues --   -0.51611  -0.49196  -0.48976  -0.48926  -0.47129
 Alpha  occ. eigenvalues --   -0.45930  -0.45052  -0.45027  -0.44796  -0.42971
 Alpha  occ. eigenvalues --   -0.37459  -0.36481
 Alpha virt. eigenvalues --    0.04906   0.11174   0.16397   0.21078   0.23303
 Alpha virt. eigenvalues --    0.24845   0.26793   0.27426   0.27941   0.28652
 Alpha virt. eigenvalues --    0.28844   0.30773   0.31767   0.32297   0.33180

 Mulliken charges:
               1
     1  C   -0.170604
     2  C   -0.218497
     3  C   -0.170568
     4  C    0.157630
     5  C   -0.170675
     6  C   -0.218522
     7  H    0.226095
     8  H    0.223888
     9  H    0.275063
    10  H    0.275950
    11  H    0.223915
    12  N    0.495848
    13  O   -0.459061
    14  O   -0.466307
    15  C   -0.296853
    16  C   -0.298604
    17  C   -0.475018
    18  H    0.149926
    19  H    0.146022
    20  H    0.151956
    21  H    0.148600
    22  H    0.153030
    23  H    0.155631
    24  H    0.158467
    25  C   -0.297416
    26  C   -0.303313
    27  C   -0.468769
    28  H    0.147061
    29  H    0.143691
    30  H    0.147371
    31  H    0.165839
    32  H    0.150264
    33  H    0.143707
    34  H    0.174253
 Sum of Mulliken charges =  -0.00000

 Dipole moment (field-independent basis, Debye):
    X=             -2.7631    Y=              4.4099    Z=              0.9244  Tot=              5.2855
 Quadrupole moment (field-independent basis, Debye-Ang):
   XX=            -77.3418   YY=            -94.8423   ZZ=            -96.5059
   XY=            -11.9439   XZ=             -2.2156   YZ=              0.3179

 Normal termination of Gaussian 16 at Thu May  6 20:44:46 2021.
