 Gaussian 16, Revision A.03,
 Gaussian 16:  EM64L-G16RevA.03 25-Dec-2016

 -------------
 #p 6-31g* mp2
 -------------

 ------------------------------------------------------
 Input file generated by CHIRIPA (05-May-2021 14:57:23)
 ------------------------------------------------------
 Symbolic Z-matrix:
 Charge =  0 Multiplicity = 1

                         Standard orientation:
 ---------------------------------------------------------------------
 Center     Atomic      Atomic             Coordinates (Angstroms)
 Number     Number       Type             X           Y           Z
 ---------------------------------------------------------------------
      1          6           0        4.016189    0.917928    0.042203
      2          6           0        3.692146    0.065902    1.103131
      3          6           0        2.611656   -0.815429    1.001419
      4          6           0        1.873346   -0.818356   -0.181028
      5          6           0        2.171221    0.018308   -1.255530
      6          6           0        3.256032    0.891458   -1.131672
      7          1           0        4.857218    1.599389    0.129817
      8          1           0        4.280731    0.084290    2.015970
      9          1           0        2.338754   -1.485831    1.807336
     10          1           0        1.565922   -0.022871   -2.152934
     11          1           0        3.505378    1.552022   -1.957219
     12          7           0        0.727192   -1.747051   -0.300429
     13          8           0        0.092416   -1.730339   -1.352768
     14          8           0        0.485315   -2.474089    0.660585
     15          6           0       -0.996274    2.949495    0.271177
     16          6           0       -1.061865    2.151745    1.418266
     17          6           0       -1.650222    0.884479    1.369081
     18          6           0       -2.165300    0.444468    0.150731
     19          6           0       -2.115088    1.215777   -1.009376
     20          6           0       -1.522168    2.479793   -0.936854
     21          1           0       -0.537451    3.932674    0.318449
     22          1           0       -0.654270    2.513935    2.357803
     23          1           0       -1.714357    0.246145    2.241913
     24          1           0       -2.530056    0.827476   -1.931570
     25          1           0       -1.472630    3.097161   -1.829292
     26          7           0       -2.790583   -0.895410    0.086309
     27          8           0       -3.237057   -1.260052   -0.999203
     28          8           0       -2.822366   -1.555593    1.122544
 ---------------------------------------------------------------------

 SCF Done:  E(RHF) =  -868.335766058     A.U. after   16 cycles
 E2 =    -0.2605224229D+01 EUMP2 =    -0.87094099028657D+03

 The electronic state is 1-A.
 Alpha  occ. eigenvalues --  -20.60733 -20.60670 -20.59519 -20.59493 -15.85725
 Alpha  occ. eigenvalues --  -15.84581 -11.31280 -11.30521 -11.27885 -11.27872
 Alpha  occ. eigenvalues --  -11.27672 -11.27184 -11.27149 -11.27071 -11.26947
 Alpha  occ. eigenvalues --  -11.26932 -11.26351 -11.26340  -1.59781  -1.58540
 Alpha  occ. eigenvalues --   -1.39322  -1.38089  -1.19476  -1.18777  -1.08842
 Alpha  occ. eigenvalues --   -1.08060  -1.04911  -1.04266  -0.95641  -0.94795
 Alpha  occ. eigenvalues --   -0.86301  -0.85627  -0.82473  -0.81643  -0.77498
 Alpha  occ. eigenvalues --   -0.76560  -0.71939  -0.71383  -0.70828  -0.70595
 Alpha  occ. eigenvalues --   -0.69875  -0.69585  -0.65128  -0.64921  -0.64411
 Alpha  occ. eigenvalues --   -0.64280  -0.62259  -0.61595  -0.55415  -0.54767
 Alpha  occ. eigenvalues --   -0.53287  -0.53013  -0.52514  -0.52362  -0.48702
 Alpha  occ. eigenvalues --   -0.48684  -0.47619  -0.47529  -0.44841  -0.43195
 Alpha  occ. eigenvalues --   -0.37480  -0.36826  -0.36504  -0.35850
 Alpha virt. eigenvalues --    0.05019   0.06011   0.11117   0.11747   0.16491
 Alpha virt. eigenvalues --    0.17372   0.21210   0.21799   0.27085   0.27676
 Alpha virt. eigenvalues --    0.28108   0.28782   0.30710   0.31321   0.32308

 Mulliken charges:
               1
     1  C   -0.172088
     2  C   -0.219575
     3  C   -0.172536
     4  C    0.161081
     5  C   -0.168385
     6  C   -0.219581
     7  H    0.224331
     8  H    0.222734
     9  H    0.276519
    10  H    0.274602
    11  H    0.221372
    12  N    0.481989
    13  O   -0.459082
    14  O   -0.450024
    15  C   -0.172217
    16  C   -0.218092
    17  C   -0.176273
    18  C    0.157566
    19  C   -0.166302
    20  C   -0.222726
    21  H    0.220383
    22  H    0.219209
    23  H    0.277501
    24  H    0.277794
    25  H    0.218924
    26  N    0.494732
    27  O   -0.455567
    28  O   -0.456287
 Sum of Mulliken charges =  -0.00000

 Dipole moment (field-independent basis, Debye):
    X=              6.1024    Y=              7.5433    Z=              0.6016  Tot=              9.7213
 Quadrupole moment (field-independent basis, Debye-Ang):
   XX=           -100.4315   YY=           -106.9300   ZZ=            -96.0971
   XY=             -6.4503   XZ=              2.1227   YZ=             -2.8161

 Normal termination of Gaussian 16 at Thu May  6 22:46:42 2021.
