 Gaussian 16, Revision A.03,
 Gaussian 16:  EM64L-G16RevA.03 25-Dec-2016

 -------------
 #p 6-31g* mp2
 -------------

 ------------------------------------------------------
 Input file generated by CHIRIPA (05-May-2021 14:51:09)
 ------------------------------------------------------
 Symbolic Z-matrix:
 Charge =  0 Multiplicity = 1

                         Standard orientation:
 ---------------------------------------------------------------------
 Center     Atomic      Atomic             Coordinates (Angstroms)
 Number     Number       Type             X           Y           Z
 ---------------------------------------------------------------------
      1          6           0        3.222003    0.063232   -0.165179
      2          6           0        4.501378   -0.557004   -0.727754
      3          6           0        5.132394    0.290009   -1.833278
      4          1           0        2.499381    0.201060   -0.981124
      5          1           0        3.449043    1.065465    0.223894
      6          1           0        4.272274   -1.558320   -1.114397
      7          1           0        5.220967   -0.693548    0.089659
      8          1           0        5.389043    1.285519   -1.456859
      9          1           0        4.434960    0.415834   -2.667757
     10          1           0        6.045677   -0.171890   -2.221123
     11          6           0        2.579464   -0.771910    0.940900
     12          6           0        1.300088   -0.151674    1.503475
     13          6           0        0.669072   -0.998687    2.608999
     14          1           0        2.352423   -1.774142    0.551827
     15          1           0        3.302085   -0.909738    1.756845
     16          1           0        0.580499   -0.015130    0.686062
     17          1           0        1.529192    0.849642    1.890118
     18          1           0        1.366506   -1.124512    3.443478
     19          1           0        0.412423   -1.994197    2.232580
     20          1           0       -0.244210   -0.536788    2.996844
     21          6           0       -3.371829   -0.222763   -0.219175
     22          6           0       -3.190989   -1.438715   -1.128428
     23          6           0       -4.140469   -2.584945   -0.778516
     24          1           0       -3.213160   -0.526562    0.824604
     25          1           0       -4.411262    0.126777   -0.288420
     26          1           0       -2.151850   -1.785014   -1.058545
     27          1           0       -3.349917   -1.131945   -2.170181
     28          1           0       -5.182909   -2.262205   -0.866597
     29          1           0       -3.978034   -2.918984    0.251355
     30          1           0       -3.994130   -3.443879   -1.440843
     31          6           0       -2.429638    0.931441   -0.556547
     32          6           0       -2.610477    2.147393    0.352707
     33          6           0       -1.660997    3.293624    0.002795
     34          1           0       -1.390204    0.581902   -0.487302
     35          1           0       -2.588306    1.235240   -1.600325
     36          1           0       -2.451549    1.840623    1.394460
     37          1           0       -3.649617    2.493691    0.282824
     38          1           0       -1.823433    3.627662   -1.027076
     39          1           0       -0.618557    2.970882    0.090876
     40          1           0       -1.807337    4.152557    0.665122
 ---------------------------------------------------------------------

 SCF Done:  E(RHF) =  -470.733397108     A.U. after   11 cycles
 E2 =    -0.1583322793D+01 EUMP2 =    -0.47231671990175D+03

 The electronic state is 1-A.
 Alpha  occ. eigenvalues --  -11.21679 -11.21630 -11.21619 -11.21589 -11.21458
 Alpha  occ. eigenvalues --  -11.21399 -11.21396 -11.21338 -11.21163 -11.21087
 Alpha  occ. eigenvalues --  -11.21080 -11.21037  -1.08493  -1.08423  -1.03590
 Alpha  occ. eigenvalues --   -1.03520  -0.96033  -0.95971  -0.87049  -0.86987
 Alpha  occ. eigenvalues --   -0.79672  -0.79575  -0.78349  -0.78197  -0.65240
 Alpha  occ. eigenvalues --   -0.64960  -0.61016  -0.60895  -0.59401  -0.59334
 Alpha  occ. eigenvalues --   -0.57643  -0.57582  -0.55351  -0.55224  -0.52728
 Alpha  occ. eigenvalues --   -0.52667  -0.52458  -0.52398  -0.50029  -0.49871
 Alpha  occ. eigenvalues --   -0.48047  -0.47872  -0.46822  -0.46581  -0.46057
 Alpha  occ. eigenvalues --   -0.45790  -0.45761  -0.45311  -0.43835  -0.43780
 Alpha virt. eigenvalues --    0.19852   0.23206   0.23913   0.24835   0.25238
 Alpha virt. eigenvalues --    0.26367   0.26700   0.27898   0.28604   0.29245
 Alpha virt. eigenvalues --    0.30683   0.31432   0.31552   0.31846   0.32254

 Mulliken charges:
               1
     1  C   -0.298612
     2  C   -0.299683
     3  C   -0.475791
     4  H    0.149596
     5  H    0.149702
     6  H    0.152013
     7  H    0.152044
     8  H    0.155293
     9  H    0.155393
    10  H    0.160349
    11  C   -0.297578
    12  C   -0.309044
    13  C   -0.475723
    14  H    0.149509
    15  H    0.150004
    16  H    0.159386
    17  H    0.152511
    18  H    0.155895
    19  H    0.155136
    20  H    0.160013
    21  C   -0.298223
    22  C   -0.299512
    23  C   -0.475774
    24  H    0.150121
    25  H    0.149616
    26  H    0.151009
    27  H    0.151952
    28  H    0.155295
    29  H    0.155445
    30  H    0.160144
    31  C   -0.305881
    32  C   -0.299177
    33  C   -0.476997
    34  H    0.156289
    35  H    0.149682
    36  H    0.151900
    37  H    0.151895
    38  H    0.154907
    39  H    0.156883
    40  H    0.160011
 Sum of Mulliken charges =  -0.00000

 Dipole moment (field-independent basis, Debye):
    X=              0.0231    Y=             -0.0039    Z=              0.0058  Tot=              0.0241
 Quadrupole moment (field-independent basis, Debye-Ang):
   XX=            -84.6610   YY=            -85.5053   ZZ=            -84.5325
   XY=             -0.8271   XZ=              1.3994   YZ=              0.6239

 Normal termination of Gaussian 16 at Wed May  5 15:07:48 2021.
