 Gaussian 16, Revision A.03,
 Gaussian 16:  EM64L-G16RevA.03 25-Dec-2016

 -------------
 #p 6-31g* mp2
 -------------

 ------------------------------------------------------
 Input file generated by CHIRIPA (05-May-2021 14:57:26)
 ------------------------------------------------------
 Symbolic Z-matrix:
 Charge =  0 Multiplicity = 1

                         Standard orientation:
 ---------------------------------------------------------------------
 Center     Atomic      Atomic             Coordinates (Angstroms)
 Number     Number       Type             X           Y           Z
 ---------------------------------------------------------------------
      1          6           0        2.505801    2.701340    0.611864
      2          6           0        3.221922    2.297823   -0.519889
      3          6           0        3.397893    0.939862   -0.801890
      4          6           0        2.841714    0.008139    0.073236
      5          6           0        2.123102    0.378729    1.208820
      6          6           0        1.959640    1.742196    1.471092
      7          1           0        2.373961    3.758375    0.823267
      8          1           0        3.647190    3.040496   -1.188939
      9          1           0        3.947770    0.599728   -1.671006
     10          1           0        1.710892   -0.384892    1.857190
     11          1           0        1.403017    2.052664    2.350766
     12          7           0        3.021385   -1.432388   -0.214863
     13          8           0        2.521497   -2.233577    0.571805
     14          8           0        3.658698   -1.733008   -1.221887
     15          6           0       -4.488999    1.626727   -0.340940
     16          6           0       -4.887082    0.386967    0.169986
     17          6           0       -3.966492   -0.657575    0.296464
     18          6           0       -2.649986   -0.426560   -0.099428
     19          6           0       -2.222745    0.797334   -0.612106
     20          6           0       -3.160443    1.827599   -0.729670
     21          1           0       -5.210780    2.432607   -0.435730
     22          1           0       -5.918192    0.228111    0.472674
     23          1           0       -4.247655   -1.627335    0.688805
     24          1           0       -1.187899    0.925596   -0.905467
     25          1           0       -2.848456    2.789368   -1.126799
     26          7           0       -1.666343   -1.524813    0.029751
     27          8           0       -0.512394   -1.295881   -0.326101
     28          8           0       -2.067937   -2.593759    0.484407
 ---------------------------------------------------------------------

 SCF Done:  E(RHF) =  -868.336515403     A.U. after   16 cycles
 E2 =    -0.2601897060D+01 EUMP2 =    -0.87093841246391D+03

 The electronic state is 1-A.
 Alpha  occ. eigenvalues --  -20.60727 -20.60706 -20.59635 -20.59502 -15.85780
 Alpha  occ. eigenvalues --  -15.84630 -11.31283 -11.30393 -11.27871 -11.27857
 Alpha  occ. eigenvalues --  -11.27644 -11.27091 -11.27003 -11.26971 -11.26931
 Alpha  occ. eigenvalues --  -11.26898 -11.26216 -11.26185  -1.59782  -1.58613
 Alpha  occ. eigenvalues --   -1.39340  -1.38161  -1.19472  -1.18649  -1.08839
 Alpha  occ. eigenvalues --   -1.07977  -1.04894  -1.04129  -0.95649  -0.94739
 Alpha  occ. eigenvalues --   -0.86285  -0.85500  -0.82488  -0.81585  -0.77514
 Alpha  occ. eigenvalues --   -0.76529  -0.72045  -0.71136  -0.70875  -0.70577
 Alpha  occ. eigenvalues --   -0.69843  -0.69786  -0.65122  -0.64895  -0.64305
 Alpha  occ. eigenvalues --   -0.64154  -0.62235  -0.61460  -0.55387  -0.54666
 Alpha  occ. eigenvalues --   -0.53223  -0.52993  -0.52434  -0.52233  -0.48745
 Alpha  occ. eigenvalues --   -0.48724  -0.47667  -0.47576  -0.44732  -0.43426
 Alpha  occ. eigenvalues --   -0.37469  -0.36672  -0.36506  -0.35734
 Alpha virt. eigenvalues --    0.04981   0.06075   0.11140   0.11911   0.16495
 Alpha virt. eigenvalues --    0.17421   0.21262   0.21905   0.27151   0.27791
 Alpha virt. eigenvalues --    0.28141   0.28855   0.30757   0.31413   0.32334

 Mulliken charges:
               1
     1  C   -0.175101
     2  C   -0.221300
     3  C   -0.172587
     4  C    0.164729
     5  C   -0.160295
     6  C   -0.224953
     7  H    0.220192
     8  H    0.219312
     9  H    0.274364
    10  H    0.279478
    11  H    0.219312
    12  N    0.491315
    13  O   -0.447172
    14  O   -0.467846
    15  C   -0.171274
    16  C   -0.218670
    17  C   -0.171027
    18  C    0.157450
    19  C   -0.172936
    20  C   -0.219267
    21  H    0.225139
    22  H    0.223823
    23  H    0.276799
    24  H    0.276475
    25  H    0.221580
    26  N    0.488639
    27  O   -0.460883
    28  O   -0.455294
 Sum of Mulliken charges =  -0.00000

 Dipole moment (field-independent basis, Debye):
    X=             -4.2490    Y=              8.4708    Z=              0.6196  Tot=              9.4969
 Quadrupole moment (field-independent basis, Debye-Ang):
   XX=            -87.6869   YY=           -107.4273   ZZ=           -101.6875
   XY=              8.1675   XZ=              0.5468   YZ=             -2.4563

 Normal termination of Gaussian 16 at Wed May  5 16:31:53 2021.
