 Gaussian 16, Revision A.03,
 Gaussian 16:  EM64L-G16RevA.03 25-Dec-2016

 -------------
 #p 6-31g* mp2
 -------------

 ------------------------------------------------------
 Input file generated by CHIRIPA (05-May-2021 14:57:21)
 ------------------------------------------------------
 Symbolic Z-matrix:
 Charge =  0 Multiplicity = 1

                         Standard orientation:
 ---------------------------------------------------------------------
 Center     Atomic      Atomic             Coordinates (Angstroms)
 Number     Number       Type             X           Y           Z
 ---------------------------------------------------------------------
      1          6           0       -1.300941   -2.296223   -0.142423
      2          6           0       -1.165761   -1.407233    0.928998
      3          6           0       -2.073465   -0.357705    1.099627
      4          6           0       -3.109142   -0.226104    0.175861
      5          6           0       -3.270452   -1.095522   -0.901814
      6          6           0       -2.351003   -2.137810   -1.052804
      7          1           0       -0.591252   -3.108709   -0.267344
      8          1           0       -0.351242   -1.527832    1.637560
      9          1           0       -1.992309    0.344909    1.920093
     10          1           0       -4.092664   -0.949739   -1.591837
     11          1           0       -2.458448   -2.826703   -1.885827
     12          7           0       -4.076305    0.881151    0.346103
     13          8           0       -4.980076    0.975510   -0.481502
     14          8           0       -3.912281    1.633693    1.303921
     15          6           0        1.270287    2.185620   -0.770320
     16          6           0        0.900747    0.836663   -0.786950
     17          6           0        1.823029   -0.156442   -0.443899
     18          6           0        3.112106    0.236797   -0.087620
     19          6           0        3.510559    1.572402   -0.061466
     20          6           0        2.571719    2.548545   -0.408270
     21          1           0        0.547404    2.950499   -1.038269
     22          1           0       -0.109262    0.551884   -1.067713
     23          1           0        1.563655   -1.208167   -0.448314
     24          1           0        4.524766    1.825439    0.222740
     25          1           0        2.861508    3.595385   -0.394469
     26          7           0        4.097249   -0.805581    0.277539
     27          8           0        5.226697   -0.433095    0.587767
     28          8           0        3.721303   -1.975343    0.246610
 ---------------------------------------------------------------------

 SCF Done:  E(RHF) =  -868.337046162     A.U. after   16 cycles
 E2 =    -0.2603657919D+01 EUMP2 =    -0.87094070408073D+03

 The electronic state is 1-A.
 Alpha  occ. eigenvalues --  -20.61561 -20.61554 -20.61273 -20.61235 -15.86614
 Alpha  occ. eigenvalues --  -15.86301 -11.32094 -11.31547 -11.28616 -11.28555
 Alpha  occ. eigenvalues --  -11.28284 -11.28076 -11.28029 -11.27683 -11.27653
 Alpha  occ. eigenvalues --  -11.27550 -11.27028 -11.26934  -1.60638  -1.60331
 Alpha  occ. eigenvalues --   -1.40185  -1.39891  -1.20274  -1.19672  -1.09629
 Alpha  occ. eigenvalues --   -1.09077  -1.05656  -1.05024  -0.96437  -0.95942
 Alpha  occ. eigenvalues --   -0.87016  -0.86443  -0.83231  -0.82776  -0.78285
 Alpha  occ. eigenvalues --   -0.77868  -0.72816  -0.72520  -0.71979  -0.71654
 Alpha  occ. eigenvalues --   -0.71301  -0.70746  -0.65868  -0.65606  -0.65304
 Alpha  occ. eigenvalues --   -0.65002  -0.62937  -0.62454  -0.56070  -0.55552
 Alpha  occ. eigenvalues --   -0.54133  -0.53685  -0.53319  -0.52918  -0.49587
 Alpha  occ. eigenvalues --   -0.49572  -0.49293  -0.49252  -0.45562  -0.45322
 Alpha  occ. eigenvalues --   -0.38299  -0.37782  -0.37506  -0.36171
 Alpha virt. eigenvalues --    0.04124   0.04659   0.10157   0.11167   0.15388
 Alpha virt. eigenvalues --    0.16388   0.20146   0.21678   0.25880   0.26875
 Alpha virt. eigenvalues --    0.27426   0.28937   0.30293   0.30988   0.31606

 Mulliken charges:
               1
     1  C   -0.184122
     2  C   -0.221639
     3  C   -0.174477
     4  C    0.154997
     5  C   -0.174805
     6  C   -0.218622
     7  H    0.234634
     8  H    0.233719
     9  H    0.278960
    10  H    0.278313
    11  H    0.228521
    12  N    0.487556
    13  O   -0.458120
    14  O   -0.458614
    15  C   -0.173219
    16  C   -0.219478
    17  C   -0.177205
    18  C    0.159015
    19  C   -0.172008
    20  C   -0.217829
    21  H    0.230285
    22  H    0.232087
    23  H    0.265873
    24  H    0.276025
    25  H    0.225596
    26  N    0.488417
    27  O   -0.457550
    28  O   -0.466310
 Sum of Mulliken charges =  -0.00000

 Dipole moment (field-independent basis, Debye):
    X=             -0.2610    Y=             -0.1649    Z=             -1.8429  Tot=              1.8686
 Quadrupole moment (field-independent basis, Debye-Ang):
   XX=           -144.7315   YY=            -98.7584   ZZ=           -102.2307
   XY=             26.1783   XZ=              1.6802   YZ=              0.8220

 Normal termination of Gaussian 16 at Thu May  6 16:10:57 2021.
