 Gaussian 16, Revision A.03,
 Gaussian 16:  EM64L-G16RevA.03 25-Dec-2016

 -------------
 #p 6-31g* mp2
 -------------

 ------------------------------------------------------
 Input file generated by CHIRIPA (05-May-2021 14:51:12)
 ------------------------------------------------------
 Symbolic Z-matrix:
 Charge =  0 Multiplicity = 1

                         Standard orientation:
 ---------------------------------------------------------------------
 Center     Atomic      Atomic             Coordinates (Angstroms)
 Number     Number       Type             X           Y           Z
 ---------------------------------------------------------------------
      1          6           0        2.173350    1.066525   -0.351895
      2          6           0        2.862878    1.974626    0.666873
      3          6           0        2.281636    3.388678    0.687074
      4          1           0        2.260540    1.514647   -1.351160
      5          1           0        1.099658    1.019385   -0.123075
      6          1           0        3.935176    2.018936    0.437027
      7          1           0        2.774203    1.524195    1.663801
      8          1           0        1.216408    3.363773    0.938610
      9          1           0        2.383977    3.861324   -0.295134
     10          1           0        2.789153    4.020884    1.422330
     11          6           0        2.743361   -0.350441   -0.383901
     12          6           0        2.053833   -1.258542   -1.402669
     13          6           0        2.635075   -2.672594   -1.422870
     14          1           0        3.817052   -0.303301   -0.612721
     15          1           0        2.656171   -0.798562    0.615364
     16          1           0        2.142508   -0.808111   -2.399597
     17          1           0        0.981534   -1.302852   -1.172824
     18          1           0        2.532733   -3.145240   -0.440662
     19          1           0        3.700303   -2.647689   -1.674406
     20          1           0        2.127557   -3.304800   -2.158126
     21          6           0       -1.735301   -0.519303    0.553960
     22          6           0       -1.611584   -1.617714    1.610451
     23          6           0       -0.159005   -1.929087    1.972191
     24          1           0       -1.188440   -0.824344   -0.348723
     25          1           0       -1.245031    0.392031    0.923420
     26          1           0       -2.103147   -2.526290    1.239679
     27          1           0       -2.158963   -1.310106    2.510656
     28          1           0        0.339371   -1.037635    2.366572
     29          1           0        0.395504   -2.260728    1.088374
     30          1           0       -0.093796   -2.717013    2.729013
     31          6           0       -3.181409   -0.196781    0.181836
     32          6           0       -3.305127    0.901630   -0.874654
     33          6           0       -4.757706    1.213003   -1.236395
     34          1           0       -3.671679   -1.108115   -0.187625
     35          1           0       -3.728271    0.108260    1.084519
     36          1           0       -2.757747    0.594022   -1.774860
     37          1           0       -2.813564    1.810206   -0.503883
     38          1           0       -5.312215    1.544644   -0.352577
     39          1           0       -5.256081    0.321551   -1.630775
     40          1           0       -4.822915    2.000929   -1.993217
 ---------------------------------------------------------------------

 SCF Done:  E(RHF) =  -470.732203452     A.U. after   11 cycles
 E2 =    -0.1585589924D+01 EUMP2 =    -0.47231779337592D+03

 The electronic state is 1-A.
 Alpha  occ. eigenvalues --  -11.21697 -11.21642 -11.21554 -11.21536 -11.21490
 Alpha  occ. eigenvalues --  -11.21423 -11.21288 -11.21227 -11.21155 -11.21100
 Alpha  occ. eigenvalues --  -11.21066 -11.21054  -1.08538  -1.08343  -1.03620
 Alpha  occ. eigenvalues --   -1.03482  -0.96058  -0.95937  -0.87082  -0.86951
 Alpha  occ. eigenvalues --   -0.79678  -0.79558  -0.78453  -0.78070  -0.65231
 Alpha  occ. eigenvalues --   -0.64964  -0.61233  -0.60708  -0.59412  -0.59301
 Alpha  occ. eigenvalues --   -0.57674  -0.57536  -0.55399  -0.55177  -0.52749
 Alpha  occ. eigenvalues --   -0.52652  -0.52489  -0.52367  -0.50027  -0.49869
 Alpha  occ. eigenvalues --   -0.48094  -0.47842  -0.46852  -0.46533  -0.46328
 Alpha  occ. eigenvalues --   -0.45664  -0.45643  -0.45069  -0.43858  -0.43723
 Alpha virt. eigenvalues --    0.20146   0.22608   0.23111   0.24624   0.25468
 Alpha virt. eigenvalues --    0.25910   0.26857   0.27374   0.29034   0.30256
 Alpha virt. eigenvalues --    0.30706   0.30886   0.31584   0.31832   0.32321

 Mulliken charges:
               1
     1  C   -0.304788
     2  C   -0.299691
     3  C   -0.475352
     4  H    0.148899
     5  H    0.156900
     6  H    0.151865
     7  H    0.151276
     8  H    0.154063
     9  H    0.155333
    10  H    0.160059
    11  C   -0.299712
    12  C   -0.309130
    13  C   -0.477586
    14  H    0.148940
    15  H    0.153338
    16  H    0.152374
    17  H    0.158614
    18  H    0.156295
    19  H    0.155766
    20  H    0.159674
    21  C   -0.308015
    22  C   -0.299470
    23  C   -0.483553
    24  H    0.156732
    25  H    0.151245
    26  H    0.152250
    27  H    0.152295
    28  H    0.155531
    29  H    0.163029
    30  H    0.160830
    31  C   -0.297335
    32  C   -0.299936
    33  C   -0.475751
    34  H    0.149764
    35  H    0.149845
    36  H    0.152425
    37  H    0.151923
    38  H    0.155225
    39  H    0.155257
    40  H    0.160571
 Sum of Mulliken charges =  -0.00000

 Dipole moment (field-independent basis, Debye):
    X=             -0.0541    Y=             -0.0218    Z=              0.0091  Tot=              0.0591
 Quadrupole moment (field-independent basis, Debye-Ang):
   XX=            -85.4541   YY=            -85.4815   ZZ=            -83.9150
   XY=              0.8212   XZ=             -0.7860   YZ=              0.2496

 Normal termination of Gaussian 16 at Thu May  6 03:54:46 2021.
