 Gaussian 16, Revision A.03,
 Gaussian 16:  EM64L-G16RevA.03 25-Dec-2016

 -------------
 #p 6-31g* mp2
 -------------

 ------------------------------------------------------
 Input file generated by CHIRIPA (05-May-2021 14:55:19)
 ------------------------------------------------------
 Symbolic Z-matrix:
 Charge =  0 Multiplicity = 1

                         Standard orientation:
 ---------------------------------------------------------------------
 Center     Atomic      Atomic             Coordinates (Angstroms)
 Number     Number       Type             X           Y           Z
 ---------------------------------------------------------------------
      1          6           0        0.351953   -1.004692    0.919481
      2          6           0        0.874494    0.253713    1.235531
      3          6           0        2.161844    0.611648    0.824240
      4          6           0        2.902354   -0.317519    0.095142
      5          6           0        2.409602   -1.578973   -0.235342
      6          6           0        1.119821   -1.915413    0.186346
      7          1           0       -0.649035   -1.274396    1.243020
      8          1           0        0.280427    0.963007    1.804769
      9          1           0        2.590969    1.579093    1.055154
     10          1           0        3.025709   -2.264793   -0.804096
     11          1           0        0.716586   -2.893417   -0.060545
     12          7           0        4.266501    0.050033   -0.345777
     13          8           0        4.898703   -0.786495   -0.987009
     14          8           0        4.677687    1.167689   -0.041789
     15          6           0       -4.075785    0.094463   -0.109422
     16          6           0       -3.916674   -1.413276   -0.307902
     17          6           0       -5.222753   -2.178816   -0.093663
     18          1           0       -4.453036    0.286621    0.904333
     19          1           0       -4.840131    0.470013   -0.803778
     20          1           0       -3.151866   -1.785639    0.385661
     21          1           0       -3.539574   -1.601857   -1.321238
     22          1           0       -5.990117   -1.835287   -0.794906
     23          1           0       -5.600205   -2.020114    0.921692
     24          1           0       -5.086182   -3.254752   -0.240531
     25          6           0       -2.778683    0.873463   -0.320172
     26          6           0       -2.937794    2.381201   -0.121692
     27          6           0       -1.631715    3.146741   -0.335931
     28          1           0       -2.014337    0.497912    0.374183
     29          1           0       -2.401432    0.681305   -1.333928
     30          1           0       -3.314894    2.569782    0.891643
     31          1           0       -3.702602    2.753565   -0.815256
     32          1           0       -1.254263    2.988040   -1.351285
     33          1           0       -0.864351    2.803212    0.365312
     34          1           0       -1.768286    4.222676   -0.189063
 ---------------------------------------------------------------------

 SCF Done:  E(RHF) =  -669.533915113     A.U. after   15 cycles
 E2 =    -0.2093819886D+01 EUMP2 =    -0.67162773499953D+03

 The electronic state is 1-A.
 Alpha  occ. eigenvalues --  -20.60744 -20.60738 -15.85799 -11.31166 -11.27750
 Alpha  occ. eigenvalues --  -11.27746 -11.27469 -11.26756 -11.26741 -11.22622
 Alpha  occ. eigenvalues --  -11.22349 -11.22257 -11.22192 -11.21877 -11.21752
 Alpha  occ. eigenvalues --   -1.59820  -1.39373  -1.19351  -1.09313  -1.08739
 Alpha  occ. eigenvalues --   -1.04760  -1.04356  -0.96786  -0.95580  -0.87798
 Alpha  occ. eigenvalues --   -0.86163  -0.82417  -0.80433  -0.79140  -0.77452
 Alpha  occ. eigenvalues --   -0.72018  -0.71143  -0.70498  -0.65995  -0.65003
 Alpha  occ. eigenvalues --   -0.64738  -0.62171  -0.61706  -0.60148  -0.58406
 Alpha  occ. eigenvalues --   -0.56123  -0.55250  -0.53468  -0.53235  -0.53082
 Alpha  occ. eigenvalues --   -0.52833  -0.50736  -0.48801  -0.48772  -0.48712
 Alpha  occ. eigenvalues --   -0.47482  -0.46631  -0.46569  -0.44779  -0.44609
 Alpha  occ. eigenvalues --   -0.37254  -0.36334
 Alpha virt. eigenvalues --    0.05051   0.11167   0.16399   0.19057   0.22335
 Alpha virt. eigenvalues --    0.22991   0.25307   0.25896   0.26506   0.27901
 Alpha virt. eigenvalues --    0.29717   0.30690   0.31033   0.31259   0.32118

 Mulliken charges:
               1
     1  C   -0.170644
     2  C   -0.216929
     3  C   -0.171400
     4  C    0.157970
     5  C   -0.170599
     6  C   -0.221309
     7  H    0.229746
     8  H    0.223590
     9  H    0.275763
    10  H    0.275597
    11  H    0.223591
    12  N    0.488111
    13  O   -0.460600
    14  O   -0.460364
    15  C   -0.299059
    16  C   -0.300670
    17  C   -0.475854
    18  H    0.149501
    19  H    0.153742
    20  H    0.141127
    21  H    0.155224
    22  H    0.158865
    23  H    0.156302
    24  H    0.161266
    25  C   -0.300722
    26  C   -0.301080
    27  C   -0.475652
    28  H    0.142546
    29  H    0.154327
    30  H    0.150644
    31  H    0.155531
    32  H    0.160309
    33  H    0.147790
    34  H    0.163340
 Sum of Mulliken charges =  -0.00000

 Dipole moment (field-independent basis, Debye):
    X=             -4.9410    Y=             -1.2601    Z=              1.4180  Tot=              5.2927
 Quadrupole moment (field-independent basis, Debye-Ang):
   XX=           -123.3993   YY=            -90.3415   ZZ=            -93.1820
   XY=             -3.4276   XZ=              4.4988   YZ=              1.5089

 Normal termination of Gaussian 16 at Wed May  5 20:29:58 2021.
