 Gaussian 16, Revision A.03,
 Gaussian 16:  EM64L-G16RevA.03 25-Dec-2016

 -------------
 #p 6-31g* mp2
 -------------

 ------------------------------------------------------
 Input file generated by CHIRIPA (05-May-2021 14:55:23)
 ------------------------------------------------------
 Symbolic Z-matrix:
 Charge =  0 Multiplicity = 1

                         Standard orientation:
 ---------------------------------------------------------------------
 Center     Atomic      Atomic             Coordinates (Angstroms)
 Number     Number       Type             X           Y           Z
 ---------------------------------------------------------------------
      1          6           0       -4.458374   -2.053868    0.409853
      2          6           0       -4.982552   -0.758649    0.474381
      3          6           0       -4.174714    0.348752    0.199410
      4          6           0       -2.841150    0.123361   -0.138371
      5          6           0       -2.289605   -1.154843   -0.211055
      6          6           0       -3.115940   -2.247491    0.067943
      7          1           0       -5.093106   -2.908393    0.625021
      8          1           0       -6.024740   -0.605275    0.739647
      9          1           0       -4.554667    1.362282    0.241961
     10          1           0       -1.246864   -1.276079   -0.478284
     11          1           0       -2.706146   -3.252242    0.017053
     12          7           0       -1.976137    1.287907   -0.431603
     13          8           0       -0.804504    1.062612   -0.726826
     14          8           0       -2.486151    2.403922   -0.360662
     15          6           0        3.335600    0.631468   -0.117123
     16          6           0        3.384595    1.894598    0.743160
     17          6           0        2.411610    2.973099    0.265740
     18          1           0        3.561838    0.896162   -1.159092
     19          1           0        2.312073    0.231773   -0.111334
     20          1           0        4.408035    2.291015    0.736869
     21          1           0        3.158400    1.626835    1.783235
     22          1           0        1.382298    2.600825    0.288753
     23          1           0        2.639032    3.268779   -0.763558
     24          1           0        2.463141    3.867222    0.894827
     25          6           0        4.302709   -0.455927    0.347634
     26          6           0        4.253714   -1.719057   -0.512650
     27          6           0        5.226699   -2.797558   -0.035230
     28          1           0        5.326234   -0.056233    0.341844
     29          1           0        4.076470   -0.720622    1.389602
     30          1           0        4.479907   -1.451295   -1.552725
     31          1           0        3.230274   -2.115474   -0.506359
     32          1           0        4.999277   -3.093238    0.994068
     33          1           0        6.256011   -2.425284   -0.058243
     34          1           0        5.175167   -3.691680   -0.664316
 ---------------------------------------------------------------------

 SCF Done:  E(RHF) =  -669.536357374     A.U. after   15 cycles
 E2 =    -0.2091365258D+01 EUMP2 =    -0.67162772263198D+03

 The electronic state is 1-A.
 Alpha  occ. eigenvalues --  -20.61036 -20.61028 -15.86053 -11.31348 -11.27909
 Alpha  occ. eigenvalues --  -11.27902 -11.27638 -11.26907 -11.26897 -11.21193
 Alpha  occ. eigenvalues --  -11.20789 -11.20740 -11.20495 -11.20355 -11.19435
 Alpha  occ. eigenvalues --   -1.60086  -1.39643  -1.19512  -1.08922  -1.07638
 Alpha  occ. eigenvalues --   -1.04904  -1.02682  -0.95768  -0.95103  -0.86306
 Alpha  occ. eigenvalues --   -0.86114  -0.82602  -0.78807  -0.77666  -0.77360
 Alpha  occ. eigenvalues --   -0.72270  -0.71396  -0.70620  -0.65169  -0.64906
 Alpha  occ. eigenvalues --   -0.64281  -0.62252  -0.60085  -0.58561  -0.56702
 Alpha  occ. eigenvalues --   -0.55410  -0.54386  -0.53237  -0.52995  -0.51827
 Alpha  occ. eigenvalues --   -0.51511  -0.49247  -0.49028  -0.48818  -0.47067
 Alpha  occ. eigenvalues --   -0.45868  -0.45150  -0.44913  -0.44659  -0.42941
 Alpha  occ. eigenvalues --   -0.37489  -0.36504
 Alpha virt. eigenvalues --    0.04840   0.11152   0.16327   0.21162   0.23477
 Alpha virt. eigenvalues --    0.25209   0.26526   0.27407   0.27834   0.28829
 Alpha virt. eigenvalues --    0.28991   0.30936   0.32110   0.32294   0.32632

 Mulliken charges:
               1
     1  C   -0.170472
     2  C   -0.218577
     3  C   -0.170596
     4  C    0.157830
     5  C   -0.170796
     6  C   -0.218541
     7  H    0.226234
     8  H    0.224035
     9  H    0.276043
    10  H    0.275623
    11  H    0.224099
    12  N    0.490067
    13  O   -0.461449
    14  O   -0.457787
    15  C   -0.299818
    16  C   -0.298739
    17  C   -0.484085
    18  H    0.149005
    19  H    0.158243
    20  H    0.146239
    21  H    0.146706
    22  H    0.182032
    23  H    0.152355
    24  H    0.152626
    25  C   -0.297783
    26  C   -0.297556
    27  C   -0.475100
    28  H    0.147904
    29  H    0.146552
    30  H    0.152375
    31  H    0.146983
    32  H    0.153404
    33  H    0.155424
    34  H    0.157517
 Sum of Mulliken charges =  -0.00000

 Dipole moment (field-independent basis, Debye):
    X=             -3.4279    Y=             -4.0626    Z=              0.9632  Tot=              5.4022
 Quadrupole moment (field-independent basis, Debye-Ang):
   XX=            -75.5335   YY=            -95.2548   ZZ=            -95.6098
   XY=              9.5407   XZ=             -4.2265   YZ=              1.0553

 Normal termination of Gaussian 16 at Wed May  5 19:03:54 2021.
