 Gaussian 16, Revision A.03,
 Gaussian 16:  EM64L-G16RevA.03 25-Dec-2016

 -------------
 #p 6-31g* mp2
 -------------

 ------------------------------------------------------
 Input file generated by CHIRIPA (05-May-2021 14:57:22)
 ------------------------------------------------------
 Symbolic Z-matrix:
 Charge =  0 Multiplicity = 1

                         Standard orientation:
 ---------------------------------------------------------------------
 Center     Atomic      Atomic             Coordinates (Angstroms)
 Number     Number       Type             X           Y           Z
 ---------------------------------------------------------------------
      1          6           0        4.223073    2.029873    0.384785
      2          6           0        3.315717    2.129072   -0.675114
      3          6           0        2.570312    1.017072   -1.078071
      4          6           0        2.758253   -0.183991   -0.395856
      5          6           0        3.654518   -0.314526    0.663843
      6          6           0        4.389285    0.810540    1.049708
      7          1           0        4.797990    2.898776    0.691173
      8          1           0        3.184569    3.074746   -1.193327
      9          1           0        1.861022    1.065897   -1.895348
     10          1           0        3.763480   -1.270659    1.161190
     11          1           0        5.093232    0.730569    1.873181
     12          7           0        1.974757   -1.368132   -0.813401
     13          8           0        2.158716   -2.414924   -0.196131
     14          8           0        1.191530   -1.227047   -1.750037
     15          6           0       -4.684810    1.066321   -1.078020
     16          6           0       -3.836135    0.107901   -1.641672
     17          6           0       -2.836740   -0.495655   -0.872598
     18          6           0       -2.713614   -0.115338    0.462876
     19          6           0       -3.543673    0.836377    1.053239
     20          6           0       -4.536133    1.426865    0.265269
     21          1           0       -5.458471    1.530102   -1.682795
     22          1           0       -3.949287   -0.174053   -2.684622
     23          1           0       -2.166050   -1.240439   -1.283561
     24          1           0       -3.406508    1.096881    2.095708
     25          1           0       -5.193791    2.170891    0.705670
     26          7           0       -1.659270   -0.747378    1.287062
     27          8           0       -1.571372   -0.394958    2.461247
     28          8           0       -0.940738   -1.583223    0.743268
 ---------------------------------------------------------------------

 SCF Done:  E(RHF) =  -868.337759914     A.U. after   16 cycles
 E2 =    -0.2600863042D+01 EUMP2 =    -0.87093862295626D+03

 The electronic state is 1-A.
 Alpha  occ. eigenvalues --  -20.60145 -20.60099 -20.59881 -20.59770 -15.85168
 Alpha  occ. eigenvalues --  -15.84885 -11.30596 -11.30478 -11.27263 -11.27130
 Alpha  occ. eigenvalues --  -11.27063 -11.27032 -11.27013 -11.26887 -11.26290
 Alpha  occ. eigenvalues --  -11.26198 -11.26188 -11.26128  -1.59219  -1.58844
 Alpha  occ. eigenvalues --   -1.38756  -1.38419  -1.18803  -1.18672  -1.08202
 Alpha  occ. eigenvalues --   -1.08025  -1.04205  -1.04123  -0.95013  -0.94827
 Alpha  occ. eigenvalues --   -0.85601  -0.85511  -0.81832  -0.81678  -0.76853
 Alpha  occ. eigenvalues --   -0.76678  -0.71498  -0.71147  -0.70646  -0.69962
 Alpha  occ. eigenvalues --   -0.69844  -0.69801  -0.64445  -0.64341  -0.64210
 Alpha  occ. eigenvalues --   -0.64143  -0.61522  -0.61477  -0.54738  -0.54632
 Alpha  occ. eigenvalues --   -0.52558  -0.52423  -0.52288  -0.52231  -0.48203
 Alpha  occ. eigenvalues --   -0.48148  -0.47867  -0.47841  -0.44188  -0.43712
 Alpha  occ. eigenvalues --   -0.36827  -0.36662  -0.35818  -0.35732
 Alpha virt. eigenvalues --    0.05641   0.05888   0.11830   0.11921   0.17093
 Alpha virt. eigenvalues --    0.17319   0.21909   0.22022   0.27845   0.27875
 Alpha virt. eigenvalues --    0.28775   0.29024   0.31379   0.31563   0.33060

 Mulliken charges:
               1
     1  C   -0.171566
     2  C   -0.218504
     3  C   -0.172560
     4  C    0.162261
     5  C   -0.167438
     6  C   -0.218215
     7  H    0.222852
     8  H    0.219528
     9  H    0.270654
    10  H    0.277750
    11  H    0.222239
    12  N    0.496454
    13  O   -0.450711
    14  O   -0.472044
    15  C   -0.171410
    16  C   -0.220698
    17  C   -0.172288
    18  C    0.154531
    19  C   -0.172055
    20  C   -0.219785
    21  H    0.223127
    22  H    0.223777
    23  H    0.291836
    24  H    0.273015
    25  H    0.220440
    26  N    0.486412
    27  O   -0.466672
    28  O   -0.450929
 Sum of Mulliken charges =  -0.00000

 Dipole moment (field-independent basis, Debye):
    X=             -0.8497    Y=              6.0143    Z=             -1.4079  Tot=              6.2351
 Quadrupole moment (field-independent basis, Debye-Ang):
   XX=            -70.3071   YY=           -104.8221   ZZ=           -104.1775
   XY=              2.9850   XZ=             10.4767   YZ=             -0.3423

 Normal termination of Gaussian 16 at Thu May  6 11:15:58 2021.
