 Gaussian 16, Revision A.03,
 Gaussian 16:  EM64L-G16RevA.03 25-Dec-2016

 -------------
 #p 6-31g* mp2
 -------------

 ------------------------------------------------------
 Input file generated by CHIRIPA (05-May-2021 14:53:14)
 ------------------------------------------------------
 Symbolic Z-matrix:
 Charge =  0 Multiplicity = 1

                         Standard orientation:
 ---------------------------------------------------------------------
 Center     Atomic      Atomic             Coordinates (Angstroms)
 Number     Number       Type             X           Y           Z
 ---------------------------------------------------------------------
      1          6           0        3.679740   -0.880699   -0.234760
      2          6           0        2.855979   -1.595834    0.836680
      3          6           0        1.925247   -2.660032    0.254430
      4          1           0        2.999647   -0.416750   -0.962200
      5          1           0        4.271043   -1.622827   -0.788838
      6          1           0        2.267455   -0.852420    1.389484
      7          1           0        3.538110   -2.057973    1.561761
      8          1           0        2.499659   -3.423097   -0.280719
      9          1           0        1.221785   -2.210695   -0.453975
     10          1           0        1.345913   -3.158718    1.037720
     11          6           0        4.615033    0.186062    0.331787
     12          6           0        5.438795    0.901197   -0.739653
     13          6           0        6.369526    1.965395   -0.157403
     14          1           0        4.023731    0.928190    0.885866
     15          1           0        5.295126   -0.277887    1.059227
     16          1           0        4.756664    1.363336   -1.464733
     17          1           0        6.027319    0.157783   -1.292456
     18          1           0        7.072989    1.516058    0.551002
     19          1           0        5.795114    2.728460    0.377746
     20          1           0        6.948861    2.464081   -0.940693
     21          6           0       -3.316590   -2.234755   -0.319951
     22          6           0       -2.086803   -1.583389   -0.178996
     23          6           0       -2.032471   -0.195233   -0.022095
     24          6           0       -3.232755    0.513623   -0.010634
     25          6           0       -4.473578   -0.106517   -0.148745
     26          6           0       -4.503959   -1.495544   -0.304403
     27          1           0       -3.349493   -3.313447   -0.441353
     28          1           0       -1.163079   -2.154914   -0.190697
     29          1           0       -1.094139    0.334475    0.089081
     30          1           0       -5.377553    0.490144   -0.133153
     31          1           0       -5.460466   -1.998737   -0.413656
     32          7           0       -3.187915    1.983663    0.154812
     33          8           0       -4.259584    2.585423    0.161594
     34          8           0       -2.081948    2.506284    0.274575
 ---------------------------------------------------------------------

 SCF Done:  E(RHF) =  -669.535587963     A.U. after   15 cycles
 E2 =    -0.2091007248D+01 EUMP2 =    -0.67162659521098D+03

 The electronic state is 1-A.
 Alpha  occ. eigenvalues --  -20.60744 -20.60739 -15.85796 -11.31144 -11.27708
 Alpha  occ. eigenvalues --  -11.27699 -11.27434 -11.26723 -11.26650 -11.22261
 Alpha  occ. eigenvalues --  -11.22091 -11.21829 -11.21740 -11.21611 -11.21119
 Alpha  occ. eigenvalues --   -1.59820  -1.39374  -1.19308  -1.08826  -1.08706
 Alpha  occ. eigenvalues --   -1.04708  -1.03972  -0.96446  -0.95547  -0.87474
 Alpha  occ. eigenvalues --   -0.86103  -0.82380  -0.80050  -0.78580  -0.77431
 Alpha  occ. eigenvalues --   -0.72015  -0.71142  -0.70420  -0.65475  -0.64958
 Alpha  occ. eigenvalues --   -0.64717  -0.62127  -0.61315  -0.59842  -0.58019
 Alpha  occ. eigenvalues --   -0.55769  -0.55191  -0.53214  -0.53043  -0.52899
 Alpha  occ. eigenvalues --   -0.52702  -0.50362  -0.48772  -0.48770  -0.48352
 Alpha  occ. eigenvalues --   -0.47061  -0.46137  -0.46021  -0.44784  -0.44202
 Alpha  occ. eigenvalues --   -0.37289  -0.36310
 Alpha virt. eigenvalues --    0.05098   0.11333   0.16584   0.19816   0.22771
 Alpha virt. eigenvalues --    0.23847   0.25823   0.26395   0.27241   0.28331
 Alpha virt. eigenvalues --    0.28951   0.30463   0.31031   0.31413   0.32324

 Mulliken charges:
               1
     1  C   -0.299101
     2  C   -0.300152
     3  C   -0.482765
     4  H    0.149882
     5  H    0.150324
     6  H    0.153290
     7  H    0.155792
     8  H    0.160794
     9  H    0.148644
    10  H    0.159779
    11  C   -0.299310
    12  C   -0.300212
    13  C   -0.476242
    14  H    0.152713
    15  H    0.150084
    16  H    0.153686
    17  H    0.151405
    18  H    0.154897
    19  H    0.157466
    20  H    0.161193
    21  C   -0.172062
    22  C   -0.225811
    23  C   -0.173467
    24  C    0.158786
    25  C   -0.171344
    26  C   -0.218342
    27  H    0.226005
    28  H    0.234487
    29  H    0.274407
    30  H    0.275366
    31  H    0.223140
    32  N    0.488144
    33  O   -0.460537
    34  O   -0.460938
 Sum of Mulliken charges =  -0.00000

 Dipole moment (field-independent basis, Debye):
    X=              0.0424    Y=             -5.1732    Z=             -0.5573  Tot=              5.2033
 Quadrupole moment (field-independent basis, Debye-Ang):
   XX=            -87.9990   YY=           -100.7947   ZZ=            -95.7006
   XY=             15.5798   XZ=              2.1782   YZ=             -0.5559

 Normal termination of Gaussian 16 at Thu May  6 12:05:10 2021.
