 Gaussian 16, Revision A.03,
 Gaussian 16:  EM64L-G16RevA.03 25-Dec-2016

 -------------
 #p 6-31g* mp2
 -------------

 ------------------------------------------------------
 Input file generated by CHIRIPA (05-May-2021 14:57:22)
 ------------------------------------------------------
 Symbolic Z-matrix:
 Charge =  0 Multiplicity = 1

                         Standard orientation:
 ---------------------------------------------------------------------
 Center     Atomic      Atomic             Coordinates (Angstroms)
 Number     Number       Type             X           Y           Z
 ---------------------------------------------------------------------
      1          6           0       -4.949799   -2.275507   -0.066709
      2          6           0       -3.566571   -2.103666    0.050226
      3          6           0       -3.007843   -0.822116    0.050740
      4          6           0       -3.865681    0.270269   -0.067990
      5          6           0       -5.247752    0.131629   -0.186101
      6          6           0       -5.784503   -1.159279   -0.184292
      7          1           0       -5.375296   -3.274681   -0.066207
      8          1           0       -2.915906   -2.968717    0.141688
      9          1           0       -1.940459   -0.660344    0.139850
     10          1           0       -5.870831    1.013193   -0.275736
     11          1           0       -6.859098   -1.289721   -0.275254
     12          7           0       -3.285814    1.631942   -0.068675
     13          8           0       -4.063130    2.578093   -0.174576
     14          8           0       -2.064977    1.727287    0.036703
     15          6           0        1.588148    0.268656    0.864992
     16          6           0        2.620695    0.093920    1.792264
     17          6           0        3.939304   -0.081210    1.361974
     18          6           0        4.190673   -0.076254   -0.009185
     19          6           0        3.183576    0.095484   -0.957631
     20          6           0        1.872382    0.268880   -0.504582
     21          1           0        0.566701    0.404027    1.208091
     22          1           0        2.402899    0.093308    2.856505
     23          1           0        4.757775   -0.218563    2.058148
     24          1           0        3.431697    0.091482   -2.012068
     25          1           0        1.072495    0.404365   -1.226987
     26          7           0        5.582700   -0.260738   -0.476761
     27          8           0        5.777976   -0.252479   -1.690201
     28          8           0        6.452137   -0.410103    0.379047
 ---------------------------------------------------------------------

 SCF Done:  E(RHF) =  -868.339234269     A.U. after   16 cycles
 E2 =    -0.2599126097D+01 EUMP2 =    -0.87093836036659D+03

 The electronic state is 1-A.
 Alpha  occ. eigenvalues --  -20.61879 -20.61807 -20.60476 -20.60470 -15.86882
 Alpha  occ. eigenvalues --  -15.85526 -11.32086 -11.30810 -11.28705 -11.28572
 Alpha  occ. eigenvalues --  -11.28282 -11.27603 -11.27549 -11.27383 -11.27353
 Alpha  occ. eigenvalues --  -11.27000 -11.26360 -11.26286  -1.60900  -1.59553
 Alpha  occ. eigenvalues --   -1.40467  -1.39109  -1.20226  -1.18964  -1.09639
 Alpha  occ. eigenvalues --   -1.08356  -1.05608  -1.04356  -0.96510  -0.95208
 Alpha  occ. eigenvalues --   -0.87012  -0.85743  -0.83355  -0.82047  -0.78441
 Alpha  occ. eigenvalues --   -0.77122  -0.73113  -0.72208  -0.71744  -0.71331
 Alpha  occ. eigenvalues --   -0.70876  -0.70015  -0.65880  -0.65600  -0.64604
 Alpha  occ. eigenvalues --   -0.64337  -0.62970  -0.61703  -0.56086  -0.54790
 Alpha  occ. eigenvalues --   -0.53935  -0.53689  -0.52690  -0.52432  -0.49875
 Alpha  occ. eigenvalues --   -0.49820  -0.48506  -0.48495  -0.45903  -0.44533
 Alpha  occ. eigenvalues --   -0.38173  -0.37201  -0.36919  -0.35971
 Alpha virt. eigenvalues --    0.04082   0.05401   0.10447   0.11671   0.15633
 Alpha virt. eigenvalues --    0.16888   0.19290   0.21867   0.25366   0.26976
 Alpha virt. eigenvalues --    0.27935   0.28922   0.30738   0.31172   0.32567

 Mulliken charges:
               1
     1  C   -0.169899
     2  C   -0.218815
     3  C   -0.172650
     4  C    0.159013
     5  C   -0.170011
     6  C   -0.218049
     7  H    0.228928
     8  H    0.226141
     9  H    0.268375
    10  H    0.277687
    11  H    0.226659
    12  N    0.490985
    13  O   -0.453271
    14  O   -0.473567
    15  C   -0.177736
    16  C   -0.219202
    17  C   -0.171493
    18  C    0.157970
    19  C   -0.171779
    20  C   -0.221040
    21  H    0.237459
    22  H    0.222279
    23  H    0.274059
    24  H    0.274467
    25  H    0.228326
    26  N    0.488138
    27  O   -0.461323
    28  O   -0.461654
 Sum of Mulliken charges =  -0.00000

 Dipole moment (field-independent basis, Debye):
    X=             -7.4269    Y=             -4.1385    Z=              1.6207  Tot=              8.6552
 Quadrupole moment (field-independent basis, Debye-Ang):
   XX=           -125.0189   YY=           -107.6945   ZZ=           -101.2834
   XY=             19.4653   XZ=              9.3789   YZ=             -0.4121

 Normal termination of Gaussian 16 at Thu May  6 22:42:00 2021.
