 Gaussian 16, Revision A.03,
 Gaussian 16:  EM64L-G16RevA.03 25-Dec-2016

 -------------
 #p 6-31g* mp2
 -------------

 ------------------------------------------------------
 Input file generated by CHIRIPA (05-May-2021 14:57:21)
 ------------------------------------------------------
 Symbolic Z-matrix:
 Charge =  0 Multiplicity = 1

                         Standard orientation:
 ---------------------------------------------------------------------
 Center     Atomic      Atomic             Coordinates (Angstroms)
 Number     Number       Type             X           Y           Z
 ---------------------------------------------------------------------
      1          6           0        5.248291   -2.158361   -0.047114
      2          6           0        3.935159   -2.171245    0.434589
      3          6           0        3.197007   -0.986724    0.515763
      4          6           0        3.805897    0.198054    0.104857
      5          6           0        5.112266    0.243373   -0.379536
      6          6           0        5.831625   -0.953218   -0.451926
      7          1           0        5.814407   -3.083214   -0.106760
      8          1           0        3.479572   -3.105701    0.749673
      9          1           0        2.178714   -0.968037    0.884747
     10          1           0        5.539422    1.190416   -0.686237
     11          1           0        6.851242   -0.940208   -0.826435
     12          7           0        3.034396    1.458442    0.186142
     13          8           0        3.593620    2.489121   -0.182106
     14          8           0        1.885077    1.391790    0.616563
     15          6           0       -2.296464    1.926373   -0.208817
     16          6           0       -1.865112    0.620862   -0.465913
     17          6           0       -2.763146   -0.448820   -0.403758
     18          6           0       -4.091268   -0.175626   -0.080115
     19          6           0       -4.551503    1.114002    0.181294
     20          6           0       -3.635921    2.168350    0.113399
     21          1           0       -1.592034    2.751371   -0.259331
     22          1           0       -0.825465    0.429971   -0.716391
     23          1           0       -2.456091   -1.469283   -0.598155
     24          1           0       -5.594122    1.273002    0.428437
     25          1           0       -3.973733    3.181201    0.313549
     26          7           0       -5.051265   -1.299933   -0.011274
     27          8           0       -6.216068   -1.032833    0.276005
     28          8           0       -4.620731   -2.426978   -0.245901
 ---------------------------------------------------------------------

 SCF Done:  E(RHF) =  -868.340077224     A.U. after   16 cycles
 E2 =    -0.2598314931D+01 EUMP2 =    -0.87093839215569D+03

 The electronic state is 1-A.
 Alpha  occ. eigenvalues --  -20.61791 -20.61727 -20.60321 -20.60313 -15.86785
 Alpha  occ. eigenvalues --  -15.85366 -11.31894 -11.30536 -11.28444 -11.28409
 Alpha  occ. eigenvalues --  -11.28096 -11.27373 -11.27361 -11.27089 -11.27078
 Alpha  occ. eigenvalues --  -11.26623 -11.26023 -11.25909  -1.60824  -1.59399
 Alpha  occ. eigenvalues --   -1.40386  -1.38959  -1.20036  -1.18666  -1.09475
 Alpha  occ. eigenvalues --   -1.08060  -1.05398  -1.04046  -0.96355  -0.94940
 Alpha  occ. eigenvalues --   -0.86807  -0.85422  -0.83195  -0.81792  -0.78279
 Alpha  occ. eigenvalues --   -0.76895  -0.73016  -0.72128  -0.71587  -0.71133
 Alpha  occ. eigenvalues --   -0.70721  -0.69696  -0.65690  -0.65390  -0.64298
 Alpha  occ. eigenvalues --   -0.64001  -0.62750  -0.61401  -0.55894  -0.54429
 Alpha  occ. eigenvalues --   -0.53742  -0.53481  -0.52379  -0.52113  -0.49784
 Alpha  occ. eigenvalues --   -0.49745  -0.48357  -0.48323  -0.45839  -0.44410
 Alpha  occ. eigenvalues --   -0.37993  -0.36991  -0.36577  -0.35663
 Alpha virt. eigenvalues --    0.04204   0.05635   0.10662   0.12008   0.15739
 Alpha virt. eigenvalues --    0.17205   0.20707   0.22278   0.26436   0.27240
 Alpha virt. eigenvalues --    0.28475   0.29192   0.30396   0.31333   0.32608

 Mulliken charges:
               1
     1  C   -0.169805
     2  C   -0.218219
     3  C   -0.172531
     4  C    0.157825
     5  C   -0.170543
     6  C   -0.218323
     7  H    0.228599
     8  H    0.226605
     9  H    0.273551
    10  H    0.276511
    11  H    0.225833
    12  N    0.489406
    13  O   -0.456381
    14  O   -0.470142
    15  C   -0.170532
    16  C   -0.219589
    17  C   -0.173906
    18  C    0.157960
    19  C   -0.172295
    20  C   -0.219510
    21  H    0.236613
    22  H    0.231407
    23  H    0.269818
    24  H    0.273092
    25  H    0.222235
    26  N    0.488306
    27  O   -0.461988
    28  O   -0.463998
 Sum of Mulliken charges =  -0.00000

 Dipole moment (field-independent basis, Debye):
    X=              6.6147    Y=             -0.3806    Z=             -0.5418  Tot=              6.6478
 Quadrupole moment (field-independent basis, Debye-Ang):
   XX=           -106.4852   YY=           -105.0561   ZZ=           -105.5168
   XY=            -34.5840   XZ=             -2.9085   YZ=             -1.0829

 Normal termination of Gaussian 16 at Thu May  6 17:47:14 2021.
