 Gaussian 16, Revision A.03,
 Gaussian 16:  EM64L-G16RevA.03 25-Dec-2016

 -------------
 #p 6-31g* mp2
 -------------

 ------------------------------------------------------
 Input file generated by CHIRIPA (05-May-2021 14:53:13)
 ------------------------------------------------------
 Symbolic Z-matrix:
 Charge =  0 Multiplicity = 1

                         Standard orientation:
 ---------------------------------------------------------------------
 Center     Atomic      Atomic             Coordinates (Angstroms)
 Number     Number       Type             X           Y           Z
 ---------------------------------------------------------------------
      1          6           0        2.019535    1.098047    0.071723
      2          6           0        1.682322    2.520989   -0.374941
      3          6           0        0.281244    2.958578    0.053184
      4          1           0        1.274778    0.404464   -0.342070
      5          1           0        1.932568    1.034143    1.165225
      6          1           0        1.771244    2.582547   -1.467150
      7          1           0        2.428078    3.211241    0.039805
      8          1           0        0.183584    2.925578    1.143126
      9          1           0       -0.476982    2.293311   -0.372391
     10          1           0        0.061026    3.978733   -0.276434
     11          6           0        3.416920    0.646200   -0.348845
     12          6           0        3.754134   -0.776742    0.097819
     13          6           0        5.155211   -1.214332   -0.330306
     14          1           0        3.503887    0.710104   -1.442348
     15          1           0        4.161678    1.339783    0.064947
     16          1           0        3.008377   -1.466994   -0.316927
     17          1           0        3.665211   -0.838300    1.190027
     18          1           0        5.913437   -0.549064    0.095268
     19          1           0        5.252871   -1.181331   -1.420248
     20          1           0        5.375429   -2.234487   -0.000688
     21          6           0       -3.910093    1.065444   -0.242672
     22          6           0       -3.865075   -0.064882   -1.065386
     23          6           0       -2.879680   -1.039150   -0.880062
     24          6           0       -1.950906   -0.850219    0.142177
     25          6           0       -1.969508    0.265042    0.978320
     26          6           0       -2.963834    1.226514    0.774761
     27          1           0       -4.679040    1.817308   -0.393718
     28          1           0       -4.598657   -0.192604   -1.856329
     29          1           0       -2.821667   -1.923837   -1.502462
     30          1           0       -1.224587    0.364632    1.758443
     31          1           0       -2.996367    2.103331    1.415214
     32          7           0       -0.902984   -1.874860    0.348022
     33          8           0       -0.096257   -1.685001    1.255648
     34          8           0       -0.908193   -2.848431   -0.402157
 ---------------------------------------------------------------------

 SCF Done:  E(RHF) =  -669.534305594     A.U. after   15 cycles
 E2 =    -0.2094754450D+01 EUMP2 =    -0.67162906004378D+03

 The electronic state is 1-A.
 Alpha  occ. eigenvalues --  -20.60902 -20.60865 -15.85906 -11.31230 -11.27803
 Alpha  occ. eigenvalues --  -11.27768 -11.27535 -11.26803 -11.26756 -11.21405
 Alpha  occ. eigenvalues --  -11.21132 -11.20869 -11.20753 -11.20595 -11.20289
 Alpha  occ. eigenvalues --   -1.59947  -1.39500  -1.19418  -1.08812  -1.07901
 Alpha  occ. eigenvalues --   -1.04814  -1.03043  -0.95661  -0.95540  -0.86587
 Alpha  occ. eigenvalues --   -0.86198  -0.82481  -0.79143  -0.77729  -0.77425
 Alpha  occ. eigenvalues --   -0.72128  -0.71268  -0.70512  -0.65060  -0.64795
 Alpha  occ. eigenvalues --   -0.64542  -0.62151  -0.60461  -0.58955  -0.57148
 Alpha  occ. eigenvalues --   -0.55304  -0.54910  -0.53248  -0.52886  -0.52243
 Alpha  occ. eigenvalues --   -0.51884  -0.49510  -0.48896  -0.48891  -0.47424
 Alpha  occ. eigenvalues --   -0.46159  -0.45503  -0.45093  -0.44503  -0.43278
 Alpha  occ. eigenvalues --   -0.37404  -0.36277
 Alpha virt. eigenvalues --    0.04984   0.11159   0.16421   0.20904   0.23236
 Alpha virt. eigenvalues --    0.24542   0.26070   0.27352   0.27547   0.28439
 Alpha virt. eigenvalues --    0.29265   0.30698   0.31614   0.31991   0.32429

 Mulliken charges:
               1
     1  C   -0.295959
     2  C   -0.298706
     3  C   -0.481913
     4  H    0.149435
     5  H    0.151282
     6  H    0.151191
     7  H    0.150826
     8  H    0.145461
     9  H    0.162537
    10  H    0.157204
    11  C   -0.299417
    12  C   -0.299736
    13  C   -0.476007
    14  H    0.146699
    15  H    0.146190
    16  H    0.163897
    17  H    0.155351
    18  H    0.151167
    19  H    0.152383
    20  H    0.161503
    21  C   -0.171068
    22  C   -0.218954
    23  C   -0.171590
    24  C    0.156790
    25  C   -0.169933
    26  C   -0.216765
    27  H    0.226046
    28  H    0.223557
    29  H    0.275530
    30  H    0.277415
    31  H    0.225263
    32  N    0.487807
    33  O   -0.457312
    34  O   -0.460175
 Sum of Mulliken charges =  -0.00000

 Dipole moment (field-independent basis, Debye):
    X=             -3.7928    Y=              3.4136    Z=             -0.6661  Tot=              5.1460
 Quadrupole moment (field-independent basis, Debye-Ang):
   XX=            -81.4350   YY=           -100.5778   ZZ=            -91.7432
   XY=             -2.7282   XZ=              3.2860   YZ=              3.6401

 Normal termination of Gaussian 16 at Thu May  6 20:17:20 2021.
