 Gaussian 16, Revision A.03,
 Gaussian 16:  EM64L-G16RevA.03 25-Dec-2016

 -------------
 #p 6-31g* mp2
 -------------

 ------------------------------------------------------
 Input file generated by CHIRIPA (05-May-2021 14:55:19)
 ------------------------------------------------------
 Symbolic Z-matrix:
 Charge =  0 Multiplicity = 1

                         Standard orientation:
 ---------------------------------------------------------------------
 Center     Atomic      Atomic             Coordinates (Angstroms)
 Number     Number       Type             X           Y           Z
 ---------------------------------------------------------------------
      1          6           0        4.827803   -1.633393   -0.140067
      2          6           0        4.699738   -0.636429   -1.112786
      3          6           0        3.783687    0.406208   -0.944543
      4          6           0        3.008185    0.420891    0.213762
      5          6           0        3.112570   -0.557788    1.200971
      6          6           0        4.035207   -1.590966    1.011676
      7          1           0        5.541971   -2.439665   -0.278939
      8          1           0        5.313967   -0.666827   -2.008244
      9          1           0        3.664066    1.190926   -1.681650
     10          1           0        2.486457   -0.500598    2.083088
     11          1           0        4.132517   -2.363869    1.768774
     12          7           0        2.034916    1.519677    0.403017
     13          8           0        1.363365    1.509914    1.432367
     14          8           0        1.962047    2.369864   -0.481579
     15          6           0       -3.421276   -0.026684   -0.553490
     16          6           0       -2.190997   -0.907349   -0.332519
     17          6           0       -0.929469   -0.333407   -0.978223
     18          1           0       -3.584890    0.099633   -1.632481
     19          1           0       -3.223982    0.975278   -0.147855
     20          1           0       -2.391064   -1.907755   -0.737215
     21          1           0       -2.030406   -1.031743    0.746069
     22          1           0       -0.702332    0.655691   -0.567500
     23          1           0       -1.065040   -0.225298   -2.059210
     24          1           0       -0.062105   -0.978813   -0.807952
     25          6           0       -4.690317   -0.587198    0.086109
     26          6           0       -5.920596    0.293466   -0.134861
     27          6           0       -7.182123   -0.280476    0.510841
     28          1           0       -4.887611   -1.589162   -0.319526
     29          1           0       -4.526703   -0.713517    1.165100
     30          1           0       -6.081187    0.417859   -1.213450
     31          1           0       -5.720529    1.293872    0.269834
     32          1           0       -7.046553   -0.388584    1.591829
     33          1           0       -7.409261   -1.269574    0.100119
     34          1           0       -8.049488    0.364929    0.340571
 ---------------------------------------------------------------------

 SCF Done:  E(RHF) =  -669.536180412     A.U. after   15 cycles
 E2 =    -0.2091662849D+01 EUMP2 =    -0.67162784326087D+03

 The electronic state is 1-A.
 Alpha  occ. eigenvalues --  -20.60840 -20.60828 -15.85863 -11.31223 -11.27789
 Alpha  occ. eigenvalues --  -11.27780 -11.27530 -11.26800 -11.26790 -11.21157
 Alpha  occ. eigenvalues --  -11.21017 -11.20896 -11.20754 -11.20708 -11.20364
 Alpha  occ. eigenvalues --   -1.59899  -1.39452  -1.19391  -1.08789  -1.07891
 Alpha  occ. eigenvalues --   -1.04791  -1.03001  -0.95628  -0.95454  -0.86478
 Alpha  occ. eigenvalues --   -0.86189  -0.82462  -0.79082  -0.77701  -0.77511
 Alpha  occ. eigenvalues --   -0.72092  -0.71225  -0.70499  -0.65045  -0.64795
 Alpha  occ. eigenvalues --   -0.64511  -0.62137  -0.60380  -0.58846  -0.57072
 Alpha  occ. eigenvalues --   -0.55297  -0.54713  -0.53137  -0.52883  -0.52168
 Alpha  occ. eigenvalues --   -0.51864  -0.49391  -0.48852  -0.48835  -0.47383
 Alpha  occ. eigenvalues --   -0.46092  -0.45246  -0.45152  -0.44850  -0.43276
 Alpha  occ. eigenvalues --   -0.37358  -0.36391
 Alpha virt. eigenvalues --    0.04993   0.11252   0.16480   0.21392   0.23418
 Alpha virt. eigenvalues --    0.24811   0.27197   0.27314   0.28050   0.28174
 Alpha virt. eigenvalues --    0.28476   0.30955   0.31956   0.32194   0.32317

 Mulliken charges:
               1
     1  C   -0.170670
     2  C   -0.218660
     3  C   -0.170814
     4  C    0.160405
     5  C   -0.171486
     6  C   -0.218704
     7  H    0.225726
     8  H    0.223613
     9  H    0.275973
    10  H    0.275758
    11  H    0.223578
    12  N    0.489472
    13  O   -0.460976
    14  O   -0.459895
    15  C   -0.299220
    16  C   -0.297880
    17  C   -0.485670
    18  H    0.148056
    19  H    0.156131
    20  H    0.147076
    21  H    0.152799
    22  H    0.175183
    23  H    0.152659
    24  H    0.151042
    25  C   -0.298057
    26  C   -0.299579
    27  C   -0.475446
    28  H    0.147019
    29  H    0.149613
    30  H    0.151163
    31  H    0.153689
    32  H    0.154896
    33  H    0.153785
    34  H    0.159421
 Sum of Mulliken charges =  -0.00000

 Dipole moment (field-independent basis, Debye):
    X=              3.5475    Y=             -3.7389    Z=             -0.6248  Tot=              5.1917
 Quadrupole moment (field-independent basis, Debye-Ang):
   XX=            -75.6831   YY=            -97.7868   ZZ=            -90.8912
   XY=            -10.2990   XZ=             -2.2654   YZ=             -2.6829

 Normal termination of Gaussian 16 at Wed May  5 22:08:55 2021.
