 Gaussian 16, Revision A.03,
 Gaussian 16:  EM64L-G16RevA.03 25-Dec-2016

 -------------
 #p 6-31g* mp2
 -------------

 ------------------------------------------------------
 Input file generated by CHIRIPA (05-May-2021 14:51:12)
 ------------------------------------------------------
 Symbolic Z-matrix:
 Charge =  0 Multiplicity = 1

                         Standard orientation:
 ---------------------------------------------------------------------
 Center     Atomic      Atomic             Coordinates (Angstroms)
 Number     Number       Type             X           Y           Z
 ---------------------------------------------------------------------
      1          6           0        2.526953    1.631092    0.000151
      2          6           0        1.098480    2.057212    0.340550
      3          6           0        0.948224    3.573510    0.467275
      4          1           0        3.209063    2.005017    0.775942
      5          1           0        2.830808    2.110502   -0.940717
      6          1           0        0.796914    1.576048    1.279781
      7          1           0        0.419667    1.682065   -0.436041
      8          1           0        1.222791    4.067540   -0.470354
      9          1           0        1.602182    3.960920    1.255217
     10          1           0       -0.080696    3.856008    0.710952
     11          6           0        2.693097    0.118075   -0.129864
     12          6           0        4.121570   -0.308045   -0.470263
     13          6           0        4.271826   -1.824342   -0.596988
     14          1           0        2.389242   -0.361335    0.811004
     15          1           0        2.010987   -0.255850   -0.905655
     16          1           0        4.800383    0.067102    0.306328
     17          1           0        4.423136    0.173119   -1.409494
     18          1           0        3.617868   -2.211753   -1.384930
     19          1           0        3.997259   -2.318373    0.340641
     20          1           0        5.300746   -2.106841   -0.840665
     21          6           0       -2.025357   -1.078452    0.512107
     22          6           0       -1.294645   -2.329130    0.022359
     23          6           0       -0.127494   -2.724394    0.927521
     24          1           0       -1.311321   -0.246029    0.576673
     25          1           0       -2.394263   -1.253656    1.532209
     26          1           0       -0.928427   -2.152114   -0.997036
     27          1           0       -2.010544   -3.158624   -0.041232
     28          1           0       -0.479945   -2.927834    1.943882
     29          1           0        0.608321   -1.915605    0.982647
     30          1           0        0.380729   -3.620869    0.558873
     31          6           0       -3.194693   -0.670715   -0.382393
     32          6           0       -3.925405    0.579963    0.107355
     33          6           0       -5.092556    0.975227   -0.797807
     34          1           0       -2.825788   -0.495512   -1.402495
     35          1           0       -3.908729   -1.503138   -0.446960
     36          1           0       -3.209506    1.409457    0.170945
     37          1           0       -4.291624    0.402947    1.126749
     38          1           0       -5.828371    0.166438   -0.852934
     39          1           0       -4.740105    1.178666   -1.814169
     40          1           0       -5.600779    1.871702   -0.429160
 ---------------------------------------------------------------------

 SCF Done:  E(RHF) =  -470.732979294     A.U. after   11 cycles
 E2 =    -0.1584176371D+01 EUMP2 =    -0.47231715566521D+03

 The electronic state is 1-A.
 Alpha  occ. eigenvalues --  -11.21713 -11.21655 -11.21568 -11.21514 -11.21492
 Alpha  occ. eigenvalues --  -11.21432 -11.21336 -11.21247 -11.21154 -11.21086
 Alpha  occ. eigenvalues --  -11.21048 -11.20905  -1.08527  -1.08353  -1.03603
 Alpha  occ. eigenvalues --   -1.03458  -0.96053  -0.95901  -0.87073  -0.86916
 Alpha  occ. eigenvalues --   -0.79675  -0.79538  -0.78418  -0.78101  -0.65152
 Alpha  occ. eigenvalues --   -0.64993  -0.60999  -0.60865  -0.59428  -0.59273
 Alpha  occ. eigenvalues --   -0.57718  -0.57475  -0.55349  -0.55188  -0.52740
 Alpha  occ. eigenvalues --   -0.52603  -0.52549  -0.52258  -0.50018  -0.49850
 Alpha  occ. eigenvalues --   -0.47959  -0.47883  -0.46768  -0.46655  -0.46088
 Alpha  occ. eigenvalues --   -0.45780  -0.45680  -0.45186  -0.43857  -0.43710
 Alpha virt. eigenvalues --    0.20606   0.22743   0.23676   0.24250   0.25301
 Alpha virt. eigenvalues --    0.26129   0.27242   0.27749   0.28311   0.29782
 Alpha virt. eigenvalues --    0.30939   0.31417   0.31571   0.31846   0.32141

 Mulliken charges:
               1
     1  C   -0.297526
     2  C   -0.303720
     3  C   -0.475558
     4  H    0.150056
     5  H    0.149804
     6  H    0.153898
     7  H    0.153065
     8  H    0.155450
     9  H    0.155665
    10  H    0.160537
    11  C   -0.304033
    12  C   -0.299124
    13  C   -0.476243
    14  H    0.154125
    15  H    0.150478
    16  H    0.152066
    17  H    0.152000
    18  H    0.155381
    19  H    0.156282
    20  H    0.160354
    21  C   -0.305206
    22  C   -0.298477
    23  C   -0.483367
    24  H    0.157259
    25  H    0.148780
    26  H    0.150697
    27  H    0.151399
    28  H    0.153768
    29  H    0.163654
    30  H    0.159678
    31  C   -0.297815
    32  C   -0.299789
    33  C   -0.475621
    34  H    0.148683
    35  H    0.149480
    36  H    0.151839
    37  H    0.151855
    38  H    0.155172
    39  H    0.154976
    40  H    0.160080
 Sum of Mulliken charges =  -0.00000

 Dipole moment (field-independent basis, Debye):
    X=              0.0818    Y=              0.0509    Z=              0.0081  Tot=              0.0967
 Quadrupole moment (field-independent basis, Debye-Ang):
   XX=            -85.1520   YY=            -85.8441   ZZ=            -83.8033
   XY=              0.9701   XZ=             -0.5634   YZ=             -0.2492

 Normal termination of Gaussian 16 at Thu May  6 05:30:22 2021.
