 Gaussian 16, Revision A.03,
 Gaussian 16:  EM64L-G16RevA.03 25-Dec-2016

 -------------
 #p 6-31g* mp2
 -------------

 ------------------------------------------------------
 Input file generated by CHIRIPA (05-May-2021 14:51:10)
 ------------------------------------------------------
 Symbolic Z-matrix:
 Charge =  0 Multiplicity = 1

                         Standard orientation:
 ---------------------------------------------------------------------
 Center     Atomic      Atomic             Coordinates (Angstroms)
 Number     Number       Type             X           Y           Z
 ---------------------------------------------------------------------
      1          6           0        3.538166    0.545288   -0.602109
      2          6           0        2.780906    1.591381    0.216568
      3          6           0        1.533481    2.111818   -0.498185
      4          1           0        3.823199    0.981759   -1.569163
      5          1           0        2.864753   -0.294070   -0.824340
      6          1           0        3.455950    2.427884    0.438368
      7          1           0        2.497810    1.152430    1.181863
      8          1           0        0.838138    1.292025   -0.705643
      9          1           0        1.801722    2.574726   -1.453362
     10          1           0        1.007422    2.858497    0.104800
     11          6           0        4.787649    0.015454    0.099174
     12          6           0        5.544909   -1.030639   -0.719502
     13          6           0        6.792334   -1.551076   -0.004750
     14          1           0        5.461062    0.854812    0.321405
     15          1           0        4.502616   -0.421017    1.066229
     16          1           0        5.828005   -0.591688   -1.684797
     17          1           0        4.869865   -1.867142   -0.941302
     18          1           0        6.524093   -2.013984    0.950428
     19          1           0        7.487677   -0.731284    0.202708
     20          1           0        7.318393   -2.297755   -0.607735
     21          6           0       -4.908343   -0.114150    0.240107
     22          6           0       -5.617860   -0.596172   -1.025684
     23          6           0       -7.108557   -0.256240   -1.033646
     24          1           0       -5.392938   -0.563043    1.117949
     25          1           0       -5.037963    0.973006    0.333303
     26          1           0       -5.485768   -1.681894   -1.117198
     27          1           0       -5.131398   -0.146230   -1.900626
     28          1           0       -7.257169    0.826379   -0.966920
     29          1           0       -7.613551   -0.718011   -0.179041
     30          1           0       -7.596106   -0.609923   -1.947465
     31          6           0       -3.417472   -0.446591    0.262828
     32          6           0       -2.707955    0.035430    1.528619
     33          6           0       -1.217258   -0.304502    1.536580
     34          1           0       -3.287853   -1.533748    0.169631
     35          1           0       -2.932877    0.002301   -0.615015
     36          1           0       -3.194417   -0.414512    2.403561
     37          1           0       -2.840047    1.121152    1.620134
     38          1           0       -0.712263    0.157269    0.681976
     39          1           0       -1.068647   -1.387120    1.469854
     40          1           0       -0.729710    0.049181    2.450399
 ---------------------------------------------------------------------

 SCF Done:  E(RHF) =  -470.733228639     A.U. after   11 cycles
 E2 =    -0.1582436623D+01 EUMP2 =    -0.47231566526236D+03

 The electronic state is 1-A.
 Alpha  occ. eigenvalues --  -11.21597 -11.21596 -11.21582 -11.21578 -11.21402
 Alpha  occ. eigenvalues --  -11.21381 -11.21343 -11.21322 -11.21071 -11.21066
 Alpha  occ. eigenvalues --  -11.21055 -11.21047  -1.08428  -1.08407  -1.03543
 Alpha  occ. eigenvalues --   -1.03496  -0.96014  -0.95931  -0.87039  -0.86942
 Alpha  occ. eigenvalues --   -0.79617  -0.79549  -0.78242  -0.78218  -0.65098
 Alpha  occ. eigenvalues --   -0.65003  -0.61084  -0.60775  -0.59356  -0.59320
 Alpha  occ. eigenvalues --   -0.57627  -0.57542  -0.55510  -0.55037  -0.52675
 Alpha  occ. eigenvalues --   -0.52655  -0.52470  -0.52327  -0.50134  -0.49691
 Alpha  occ. eigenvalues --   -0.47971  -0.47828  -0.46721  -0.46481  -0.45809
 Alpha  occ. eigenvalues --   -0.45744  -0.45710  -0.45638  -0.43781  -0.43767
 Alpha virt. eigenvalues --    0.21468   0.23041   0.23595   0.24972   0.26164
 Alpha virt. eigenvalues --    0.26697   0.27141   0.27632   0.27791   0.28980
 Alpha virt. eigenvalues --    0.30401   0.31225   0.31701   0.31872   0.32307

 Mulliken charges:
               1
     1  C   -0.298429
     2  C   -0.300293
     3  C   -0.478772
     4  H    0.149407
     5  H    0.149910
     6  H    0.151833
     7  H    0.153478
     8  H    0.157738
     9  H    0.155159
    10  H    0.160198
    11  C   -0.298357
    12  C   -0.299662
    13  C   -0.475702
    14  H    0.149383
    15  H    0.149919
    16  H    0.151839
    17  H    0.152020
    18  H    0.155213
    19  H    0.155121
    20  H    0.160183
    21  C   -0.298303
    22  C   -0.299687
    23  C   -0.475711
    24  H    0.149627
    25  H    0.149652
    26  H    0.151854
    27  H    0.152055
    28  H    0.155225
    29  H    0.155144
    30  H    0.160247
    31  C   -0.298419
    32  C   -0.299092
    33  C   -0.482441
    34  H    0.149361
    35  H    0.149596
    36  H    0.151802
    37  H    0.152130
    38  H    0.162308
    39  H    0.154493
    40  H    0.159974
 Sum of Mulliken charges =  -0.00000

 Dipole moment (field-independent basis, Debye):
    X=              0.0033    Y=              0.0070    Z=             -0.0005  Tot=              0.0077
 Quadrupole moment (field-independent basis, Debye-Ang):
   XX=            -86.5346   YY=            -83.7033   ZZ=            -84.6003
   XY=              1.2116   XZ=             -0.8343   YZ=             -0.5126

 Normal termination of Gaussian 16 at Thu May  6 00:35:42 2021.
