 Gaussian 16, Revision A.03,
 Gaussian 16:  EM64L-G16RevA.03 25-Dec-2016

 -------------
 #p 6-31g* mp2
 -------------

 ------------------------------------------------------
 Input file generated by CHIRIPA (05-May-2021 14:53:17)
 ------------------------------------------------------
 Symbolic Z-matrix:
 Charge =  0 Multiplicity = 1

                         Standard orientation:
 ---------------------------------------------------------------------
 Center     Atomic      Atomic             Coordinates (Angstroms)
 Number     Number       Type             X           Y           Z
 ---------------------------------------------------------------------
      1          6           0       -1.944531    1.270793   -0.471391
      2          6           0       -0.951204    2.293457    0.081279
      3          6           0       -0.360922    3.191666   -1.006187
      4          1           0       -1.441625    0.651957   -1.227085
      5          1           0       -2.755125    1.800802   -0.990451
      6          1           0       -0.143449    1.761734    0.600335
      7          1           0       -1.456481    2.909805    0.835882
      8          1           0       -1.152783    3.747807   -1.518304
      9          1           0        0.167708    2.593213   -1.755190
     10          1           0        0.346499    3.915156   -0.589081
     11          6           0       -2.543213    0.365519    0.603684
     12          6           0       -3.536541   -0.657145    0.051014
     13          6           0       -4.126822   -1.555354    1.138480
     14          1           0       -1.732619   -0.164490    1.122744
     15          1           0       -3.046119    0.984355    1.359378
     16          1           0       -3.031264   -1.273493   -0.703590
     17          1           0       -4.344295   -0.125422   -0.468043
     18          1           0       -4.655453   -0.956901    1.887482
     19          1           0       -3.334961   -2.111495    1.650597
     20          1           0       -4.834243   -2.278844    0.721373
     21          6           0        2.668898    0.519986    1.993666
     22          6           0        2.136183   -0.769040    2.099245
     23          6           0        1.625950   -1.420905    0.972620
     24          6           0        1.664482   -0.751249   -0.249413
     25          6           0        2.188705    0.533122   -0.386792
     26          6           0        2.693416    1.165814    0.753171
     27          1           0        3.063114    1.018923    2.874034
     28          1           0        2.115838   -1.273022    3.061342
     29          1           0        1.207774   -2.418754    1.025955
     30          1           0        2.195241    1.009980   -1.359408
     31          1           0        3.106526    2.166896    0.668200
     32          7           0        1.127245   -1.431201   -1.449181
     33          8           0        1.172796   -0.819673   -2.514354
     34          8           0        0.670779   -2.562800   -1.301665
 ---------------------------------------------------------------------

 SCF Done:  E(RHF) =  -669.534655436     A.U. after   15 cycles
 E2 =    -0.2096051039D+01 EUMP2 =    -0.67163070647514D+03

 The electronic state is 1-A.
 Alpha  occ. eigenvalues --  -20.60978 -20.60971 -15.86010 -11.31337 -11.27933
 Alpha  occ. eigenvalues --  -11.27869 -11.27649 -11.26929 -11.26877 -11.21405
 Alpha  occ. eigenvalues --  -11.21216 -11.21178 -11.21150 -11.21084 -11.20797
 Alpha  occ. eigenvalues --   -1.60041  -1.39595  -1.19536  -1.08922  -1.08206
 Alpha  occ. eigenvalues --   -1.04936  -1.03341  -0.95853  -0.95739  -0.86849
 Alpha  occ. eigenvalues --   -0.86316  -0.82588  -0.79407  -0.78000  -0.77641
 Alpha  occ. eigenvalues --   -0.72228  -0.71378  -0.70629  -0.65173  -0.64969
 Alpha  occ. eigenvalues --   -0.64814  -0.62291  -0.60784  -0.59210  -0.57428
 Alpha  occ. eigenvalues --   -0.55434  -0.55136  -0.53274  -0.53000  -0.52524
 Alpha  occ. eigenvalues --   -0.52235  -0.49763  -0.48991  -0.48984  -0.47713
 Alpha  occ. eigenvalues --   -0.46414  -0.45544  -0.45442  -0.44926  -0.43591
 Alpha  occ. eigenvalues --   -0.37505  -0.36419
 Alpha virt. eigenvalues --    0.04866   0.11023   0.16339   0.20779   0.22919
 Alpha virt. eigenvalues --    0.24230   0.26308   0.26686   0.27455   0.28023
 Alpha virt. eigenvalues --    0.29350   0.29713   0.31341   0.31858   0.32231

 Mulliken charges:
               1
     1  C   -0.303132
     2  C   -0.307036
     3  C   -0.479496
     4  H    0.156882
     5  H    0.150254
     6  H    0.159023
     7  H    0.149156
     8  H    0.158864
     9  H    0.157238
    10  H    0.151779
    11  C   -0.298860
    12  C   -0.301917
    13  C   -0.474742
    14  H    0.145947
    15  H    0.146952
    16  H    0.161873
    17  H    0.151381
    18  H    0.152381
    19  H    0.152813
    20  H    0.161531
    21  C   -0.169913
    22  C   -0.218352
    23  C   -0.171750
    24  C    0.161059
    25  C   -0.172642
    26  C   -0.218535
    27  H    0.226744
    28  H    0.224498
    29  H    0.276196
    30  H    0.277915
    31  H    0.225222
    32  N    0.488478
    33  O   -0.460519
    34  O   -0.459291
 Sum of Mulliken charges =  -0.00000

 Dipole moment (field-independent basis, Debye):
    X=              1.9995    Y=              2.2658    Z=              4.1597  Tot=              5.1415
 Quadrupole moment (field-independent basis, Debye-Ang):
   XX=            -88.4789   YY=            -95.8772   ZZ=            -96.1637
   XY=              2.9296   XZ=              6.6101   YZ=             -5.7353

 Normal termination of Gaussian 16 at Thu May  6 15:36:16 2021.
