 Gaussian 16, Revision A.03,
 Gaussian 16:  EM64L-G16RevA.03 25-Dec-2016

 -------------
 #p 6-31g* mp2
 -------------

 ------------------------------------------------------
 Input file generated by CHIRIPA (05-May-2021 14:57:22)
 ------------------------------------------------------
 Symbolic Z-matrix:
 Charge =  0 Multiplicity = 1

                         Standard orientation:
 ---------------------------------------------------------------------
 Center     Atomic      Atomic             Coordinates (Angstroms)
 Number     Number       Type             X           Y           Z
 ---------------------------------------------------------------------
      1          6           0        2.383379    1.828694    0.327004
      2          6           0        3.682088    2.135041    0.746562
      3          6           0        4.725828    1.226781    0.546020
      4          6           0        4.433911    0.016012   -0.080170
      5          6           0        3.150447   -0.318224   -0.509467
      6          6           0        2.122165    0.605196   -0.298569
      7          1           0        1.578581    2.540141    0.486813
      8          1           0        3.887879    3.084464    1.232660
      9          1           0        5.740484    1.438344    0.860872
     10          1           0        2.976161   -1.272678   -0.991192
     11          1           0        1.114539    0.364599   -0.625446
     12          7           0        5.530690   -0.953547   -0.297957
     13          8           0        5.247460   -2.013463   -0.852029
     14          8           0        6.652808   -0.635213    0.089538
     15          6           0       -1.823970   -0.606499    0.572967
     16          6           0       -2.171633    0.173257   -0.535018
     17          6           0       -3.514372    0.418439   -0.837484
     18          6           0       -4.487993   -0.134168   -0.006837
     19          6           0       -4.173409   -0.915176    1.104179
     20          6           0       -2.824204   -1.147274    1.387593
     21          1           0       -0.778386   -0.791881    0.800529
     22          1           0       -1.396960    0.594508   -1.169427
     23          1           0       -3.811583    1.018469   -1.688982
     24          1           0       -4.967996   -1.321630    1.718056
     25          1           0       -2.557144   -1.753225    2.248725
     26          7           0       -5.912914    0.118470   -0.316959
     27          8           0       -6.751802   -0.379752    0.430489
     28          8           0       -6.163896    0.809924   -1.301607
 ---------------------------------------------------------------------

 SCF Done:  E(RHF) =  -868.336396460     A.U. after   16 cycles
 E2 =    -0.2600123582D+01 EUMP2 =    -0.87093652004273D+03

 The electronic state is 1-A.
 Alpha  occ. eigenvalues --  -20.61433 -20.61424 -20.61287 -20.61280 -15.86494
 Alpha  occ. eigenvalues --  -15.86347 -11.32013 -11.31851 -11.28692 -11.28591
 Alpha  occ. eigenvalues --  -11.28488 -11.28428 -11.28411 -11.28275 -11.27820
 Alpha  occ. eigenvalues --  -11.27625 -11.27593 -11.27448  -1.60505  -1.60359
 Alpha  occ. eigenvalues --   -1.40053  -1.39908  -1.20230  -1.20057  -1.09597
 Alpha  occ. eigenvalues --   -1.09441  -1.05674  -1.05484  -0.96393  -0.96246
 Alpha  occ. eigenvalues --   -0.87096  -0.86874  -0.83236  -0.83071  -0.78268
 Alpha  occ. eigenvalues --   -0.78074  -0.72709  -0.72563  -0.71832  -0.71684
 Alpha  occ. eigenvalues --   -0.71328  -0.71204  -0.65964  -0.65881  -0.65690
 Alpha  occ. eigenvalues --   -0.65342  -0.63066  -0.62762  -0.56175  -0.56016
 Alpha  occ. eigenvalues --   -0.53968  -0.53831  -0.53799  -0.53532  -0.49481
 Alpha  occ. eigenvalues --   -0.49452  -0.49334  -0.49306  -0.45425  -0.45282
 Alpha  occ. eigenvalues --   -0.38217  -0.38063  -0.37278  -0.37082
 Alpha virt. eigenvalues --    0.04312   0.04466   0.10271   0.10551   0.15690
 Alpha virt. eigenvalues --    0.15910   0.17720   0.22042   0.24619   0.26835
 Alpha virt. eigenvalues --    0.27608   0.28790   0.29687   0.30690   0.31446

 Mulliken charges:
               1
     1  C   -0.171583
     2  C   -0.218523
     3  C   -0.168932
     4  C    0.159180
     5  C   -0.171652
     6  C   -0.226925
     7  H    0.227459
     8  H    0.226980
     9  H    0.278708
    10  H    0.277352
    11  H    0.218618
    12  N    0.487992
    13  O   -0.459220
    14  O   -0.457885
    15  C   -0.173809
    16  C   -0.223450
    17  C   -0.169318
    18  C    0.158979
    19  C   -0.169655
    20  C   -0.218234
    21  H    0.224058
    22  H    0.216838
    23  H    0.277378
    24  H    0.278237
    25  H    0.226892
    26  N    0.487905
    27  O   -0.458206
    28  O   -0.459185
 Sum of Mulliken charges =  -0.00000

 Dipole moment (field-independent basis, Debye):
    X=              1.2164    Y=              2.5405    Z=              1.9709  Tot=              3.4377
 Quadrupole moment (field-independent basis, Debye-Ang):
   XX=           -180.3602   YY=           -101.6630   ZZ=           -101.7541
   XY=             22.0770   XZ=             -0.8766   YZ=             -1.3275

 Normal termination of Gaussian 16 at Wed May  5 17:45:48 2021.
