 Gaussian 16, Revision A.03,
 Gaussian 16:  EM64L-G16RevA.03 25-Dec-2016

 -------------
 #p 6-31g* mp2
 -------------

 ------------------------------------------------------
 Input file generated by CHIRIPA (05-May-2021 14:55:23)
 ------------------------------------------------------
 Symbolic Z-matrix:
 Charge =  0 Multiplicity = 1

                         Standard orientation:
 ---------------------------------------------------------------------
 Center     Atomic      Atomic             Coordinates (Angstroms)
 Number     Number       Type             X           Y           Z
 ---------------------------------------------------------------------
      1          6           0        0.904169   -0.497442    0.897543
      2          6           0        1.862206    0.049634    1.757423
      3          6           0        3.194370    0.170907    1.351000
      4          6           0        3.535126   -0.266997    0.072166
      5          6           0        2.603667   -0.816334   -0.807551
      6          6           0        1.277299   -0.927920   -0.379948
      7          1           0       -0.128437   -0.587887    1.221489
      8          1           0        1.575295    0.384782    2.750098
      9          1           0        3.956395    0.590665    1.996398
     10          1           0        2.919888   -1.141648   -1.791214
     11          1           0        0.535407   -1.353181   -1.049870
     12          7           0        4.942360   -0.143738   -0.369308
     13          8           0        5.217059   -0.536943   -1.500929
     14          8           0        5.744006    0.343744    0.424646
     15          6           0       -3.500703    0.463807   -0.397899
     16          6           0       -2.998628    1.895986   -0.211431
     17          6           0       -1.541780    2.072295   -0.640738
     18          1           0       -2.861956   -0.219795    0.177979
     19          1           0       -3.391500    0.178909   -1.453505
     20          1           0       -3.110030    2.178581    0.843246
     21          1           0       -3.638760    2.576280   -0.787667
     22          1           0       -1.418159    1.816907   -1.698139
     23          1           0       -0.886424    1.416949   -0.057958
     24          1           0       -1.203452    3.103457   -0.498973
     25          6           0       -4.955482    0.271711    0.026888
     26          6           0       -5.457556   -1.160469   -0.159580
     27          6           0       -6.914404   -1.336777    0.269727
     28          1           0       -5.064684    0.556608    1.082494
     29          1           0       -5.594229    0.955313   -0.548990
     30          1           0       -4.817424   -1.840762    0.416656
     31          1           0       -5.346155   -1.443064   -1.214257
     32          1           0       -7.569760   -0.681432   -0.313052
     33          1           0       -7.038025   -1.081390    1.327128
     34          1           0       -7.252731   -2.367940    0.127962
 ---------------------------------------------------------------------

 SCF Done:  E(RHF) =  -669.534745635     A.U. after   15 cycles
 E2 =    -0.2092402917D+01 EUMP2 =    -0.67162714855133D+03

 The electronic state is 1-A.
 Alpha  occ. eigenvalues --  -20.60764 -20.60759 -15.85818 -11.31196 -11.27766
 Alpha  occ. eigenvalues --  -11.27754 -11.27509 -11.26794 -11.26772 -11.22369
 Alpha  occ. eigenvalues --  -11.22309 -11.22282 -11.22111 -11.21691 -11.21628
 Alpha  occ. eigenvalues --   -1.59839  -1.39392  -1.19376  -1.09211  -1.08778
 Alpha  occ. eigenvalues --   -1.04774  -1.04231  -0.96681  -0.95608  -0.87689
 Alpha  occ. eigenvalues --   -0.86174  -0.82437  -0.80294  -0.79041  -0.77469
 Alpha  occ. eigenvalues --   -0.72037  -0.71162  -0.70527  -0.65847  -0.65029
 Alpha  occ. eigenvalues --   -0.64774  -0.62117  -0.61637  -0.60045  -0.58302
 Alpha  occ. eigenvalues --   -0.56036  -0.55277  -0.53381  -0.53305  -0.52867
 Alpha  occ. eigenvalues --   -0.52862  -0.50607  -0.48797  -0.48790  -0.48597
 Alpha  occ. eigenvalues --   -0.47334  -0.46573  -0.46498  -0.44795  -0.44504
 Alpha  occ. eigenvalues --   -0.37286  -0.36371
 Alpha virt. eigenvalues --    0.05017   0.11261   0.16397   0.19323   0.22600
 Alpha virt. eigenvalues --    0.23898   0.25099   0.26356   0.27297   0.27585
 Alpha virt. eigenvalues --    0.29223   0.30362   0.31120   0.31375   0.31972

 Mulliken charges:
               1
     1  C   -0.173366
     2  C   -0.219661
     3  C   -0.170675
     4  C    0.158835
     5  C   -0.170998
     6  C   -0.216205
     7  H    0.228428
     8  H    0.223751
     9  H    0.275691
    10  H    0.275732
    11  H    0.224771
    12  N    0.488040
    13  O   -0.460319
    14  O   -0.460392
    15  C   -0.298115
    16  C   -0.300591
    17  C   -0.480870
    18  H    0.138400
    19  H    0.150973
    20  H    0.151157
    21  H    0.155610
    22  H    0.155555
    23  H    0.154699
    24  H    0.164145
    25  C   -0.298399
    26  C   -0.299897
    27  C   -0.476077
    28  H    0.150090
    29  H    0.152936
    30  H    0.149591
    31  H    0.152744
    32  H    0.156817
    33  H    0.155762
    34  H    0.161835
 Sum of Mulliken charges =  -0.00000

 Dipole moment (field-independent basis, Debye):
    X=             -5.0509    Y=             -0.3949    Z=              1.5177  Tot=              5.2888
 Quadrupole moment (field-independent basis, Debye-Ang):
   XX=           -130.4592   YY=            -94.3342   ZZ=            -89.9189
   XY=             -0.1079   XZ=              7.0907   YZ=              1.4632

 Normal termination of Gaussian 16 at Thu May  6 20:49:59 2021.
