 Gaussian 16, Revision A.03,
 Gaussian 16:  EM64L-G16RevA.03 25-Dec-2016

 -------------
 #p 6-31g* mp2
 -------------

 ------------------------------------------------------
 Input file generated by CHIRIPA (05-May-2021 14:55:24)
 ------------------------------------------------------
 Symbolic Z-matrix:
 Charge =  0 Multiplicity = 1

                         Standard orientation:
 ---------------------------------------------------------------------
 Center     Atomic      Atomic             Coordinates (Angstroms)
 Number     Number       Type             X           Y           Z
 ---------------------------------------------------------------------
      1          6           0        5.824243    0.402489    0.359146
      2          6           0        4.936124    1.302275   -0.239310
      3          6           0        3.614920    0.927681   -0.501319
      4          6           0        3.213709   -0.360362   -0.150225
      5          6           0        4.074837   -1.279523    0.447178
      6          6           0        5.391528   -0.883271    0.699880
      7          1           0        6.848833    0.701895    0.559066
      8          1           0        5.269409    2.301461   -0.505002
      9          1           0        2.906433    1.604251   -0.963612
     10          1           0        3.713450   -2.268732    0.700716
     11          1           0        6.079059   -1.584155    1.164755
     12          7           0        1.817399   -0.768391   -0.422676
     13          8           0        1.488543   -1.908924   -0.103807
     14          8           0        1.078265    0.060053   -0.949931
     15          6           0       -4.010663    1.001926    0.315538
     16          6           0       -2.512813    0.871256    0.037406
     17          6           0       -1.731171    2.133144    0.404109
     18          1           0       -4.408298    1.857709   -0.247016
     19          1           0       -4.160297    1.230737    1.379798
     20          1           0       -2.366117    0.641393   -1.025731
     21          1           0       -2.118735    0.015568    0.600536
     22          1           0       -1.847931    2.363045    1.468117
     23          1           0       -2.096718    2.992425   -0.167391
     24          1           0       -0.662643    2.017841    0.197197
     25          6           0       -4.805562   -0.251556   -0.045914
     26          6           0       -6.303412   -0.120886    0.232219
     27          6           0       -7.085053   -1.382774   -0.134484
     28          1           0       -4.655927   -0.480366   -1.110174
     29          1           0       -4.407926   -1.107339    0.516640
     30          1           0       -6.697489    0.734802   -0.330913
     31          1           0       -6.450108    0.108977    1.295355
     32          1           0       -6.719507   -2.242055    0.437015
     33          1           0       -6.968294   -1.612675   -1.198493
     34          1           0       -8.153582   -1.267471    0.072427
 ---------------------------------------------------------------------

 SCF Done:  E(RHF) =  -669.536199285     A.U. after   15 cycles
 E2 =    -0.2091115388D+01 EUMP2 =    -0.67162731467272D+03

 The electronic state is 1-A.
 Alpha  occ. eigenvalues --  -20.60973 -20.60966 -15.85994 -11.31306 -11.27868
 Alpha  occ. eigenvalues --  -11.27864 -11.27603 -11.26873 -11.26863 -11.20846
 Alpha  occ. eigenvalues --  -11.20426 -11.20415 -11.20285 -11.20105 -11.19735
 Alpha  occ. eigenvalues --   -1.60024  -1.39582  -1.19473  -1.08879  -1.07390
 Alpha  occ. eigenvalues --   -1.04868  -1.02460  -0.95725  -0.94951  -0.86269
 Alpha  occ. eigenvalues --   -0.85988  -0.82557  -0.78547  -0.77613  -0.77143
 Alpha  occ. eigenvalues --   -0.72220  -0.71337  -0.70583  -0.65130  -0.64871
 Alpha  occ. eigenvalues --   -0.64035  -0.62216  -0.59875  -0.58326  -0.56504
 Alpha  occ. eigenvalues --   -0.55372  -0.54279  -0.53200  -0.52960  -0.51648
 Alpha  occ. eigenvalues --   -0.51377  -0.48983  -0.48960  -0.48942  -0.46854
 Alpha  occ. eigenvalues --   -0.45597  -0.44968  -0.44696  -0.44607  -0.42713
 Alpha  occ. eigenvalues --   -0.37451  -0.36469
 Alpha virt. eigenvalues --    0.04881   0.11185   0.16351   0.21268   0.23828
 Alpha virt. eigenvalues --    0.25299   0.27169   0.27655   0.27918   0.28572
 Alpha virt. eigenvalues --    0.29109   0.30688   0.31912   0.32377   0.32744

 Mulliken charges:
               1
     1  C   -0.170567
     2  C   -0.218492
     3  C   -0.170838
     4  C    0.158143
     5  C   -0.170778
     6  C   -0.218551
     7  H    0.226060
     8  H    0.223984
     9  H    0.275761
    10  H    0.275832
    11  H    0.223855
    12  N    0.489684
    13  O   -0.458718
    14  O   -0.460751
    15  C   -0.298638
    16  C   -0.293998
    17  C   -0.481880
    18  H    0.145367
    19  H    0.145071
    20  H    0.158631
    21  H    0.157386
    22  H    0.146556
    23  H    0.147497
    24  H    0.172584
    25  C   -0.297526
    26  C   -0.298759
    27  C   -0.475124
    28  H    0.150090
    29  H    0.150854
    30  H    0.149991
    31  H    0.149970
    32  H    0.154988
    33  H    0.154853
    34  H    0.157462
 Sum of Mulliken charges =  -0.00000

 Dipole moment (field-independent basis, Debye):
    X=              5.2706    Y=              1.2964    Z=              0.8778  Tot=              5.4982
 Quadrupole moment (field-independent basis, Debye-Ang):
   XX=            -65.2246   YY=            -92.8357   ZZ=            -94.3115
   XY=              1.6974   XZ=              3.1141   YZ=             -3.3273

 Normal termination of Gaussian 16 at Thu May  6 07:55:10 2021.
