 Gaussian 16, Revision A.03,
 Gaussian 16:  EM64L-G16RevA.03 25-Dec-2016

 -------------
 #p 6-31g* mp2
 -------------

 ------------------------------------------------------
 Input file generated by CHIRIPA (05-May-2021 14:51:14)
 ------------------------------------------------------
 Symbolic Z-matrix:
 Charge =  0 Multiplicity = 1

                         Standard orientation:
 ---------------------------------------------------------------------
 Center     Atomic      Atomic             Coordinates (Angstroms)
 Number     Number       Type             X           Y           Z
 ---------------------------------------------------------------------
      1          6           0        3.703169   -0.399741   -0.135729
      2          6           0        2.721378   -1.511447   -0.507455
      3          6           0        3.372037   -2.895024   -0.519777
      4          1           0        4.540838   -0.406252   -0.846513
      5          1           0        4.130986   -0.613583    0.853534
      6          1           0        2.294502   -1.294855   -1.495120
      7          1           0        1.885853   -1.502166    0.204182
      8          1           0        3.782408   -3.136540    0.466056
      9          1           0        4.193379   -2.928051   -1.242902
     10          1           0        2.652341   -3.674747   -0.787974
     11          6           0        3.067538    0.989297   -0.119126
     12          6           0        4.049330    2.101002    0.252601
     13          6           0        3.398670    3.484579    0.264922
     14          1           0        2.639722    1.203138   -1.108388
     15          1           0        2.229870    0.995807    0.591658
     16          1           0        4.884854    2.091721   -0.459037
     17          1           0        4.476205    1.884411    1.240265
     18          1           0        2.577329    3.517607    0.988047
     19          1           0        2.988300    3.726095   -0.720911
     20          1           0        4.118367    4.264302    0.533119
     21          6           0       -3.656440    0.417771    0.080326
     22          6           0       -5.116157    0.482647   -0.370232
     23          6           0       -5.644135    1.914791   -0.459652
     24          1           0       -3.559254    0.907676    1.058842
     25          1           0       -3.037566    0.994592   -0.620863
     26          1           0       -5.731905   -0.095273    0.330824
     27          1           0       -5.209914   -0.007639   -1.347701
     28          1           0       -5.054627    2.498816   -1.173792
     29          1           0       -5.579585    2.410684    0.514270
     30          1           0       -6.689343    1.937854   -0.783489
     31          6           0       -3.114268   -1.007326    0.174529
     32          6           0       -1.654551   -1.072202    0.625087
     33          6           0       -1.126573   -2.504347    0.714507
     34          1           0       -3.733142   -1.584148    0.875718
     35          1           0       -3.211454   -1.497231   -0.803987
     36          1           0       -1.560794   -0.581917    1.602556
     37          1           0       -1.038803   -0.494282   -0.075969
     38          1           0       -1.191124   -3.000239   -0.259415
     39          1           0       -1.716081   -3.088372    1.428647
     40          1           0       -0.081366   -2.527410    1.038344
 ---------------------------------------------------------------------

 SCF Done:  E(RHF) =  -470.733243873     A.U. after   11 cycles
 E2 =    -0.1582784248D+01 EUMP2 =    -0.47231602812080D+03

 The electronic state is 1-A.
 Alpha  occ. eigenvalues --  -11.21598 -11.21597 -11.21595 -11.21566 -11.21401
 Alpha  occ. eigenvalues --  -11.21396 -11.21342 -11.21336 -11.21067 -11.21066
 Alpha  occ. eigenvalues --  -11.21056 -11.21054  -1.08437  -1.08410  -1.03554
 Alpha  occ. eigenvalues --   -1.03492  -0.95997  -0.95949  -0.87004  -0.86974
 Alpha  occ. eigenvalues --   -0.79609  -0.79563  -0.78263  -0.78212  -0.65083
 Alpha  occ. eigenvalues --   -0.65035  -0.60990  -0.60893  -0.59484  -0.59206
 Alpha  occ. eigenvalues --   -0.57680  -0.57482  -0.55277  -0.55239  -0.52713
 Alpha  occ. eigenvalues --   -0.52630  -0.52432  -0.52369  -0.49923  -0.49896
 Alpha  occ. eigenvalues --   -0.47976  -0.47829  -0.46622  -0.46594  -0.45825
 Alpha  occ. eigenvalues --   -0.45759  -0.45705  -0.45644  -0.43791  -0.43743
 Alpha virt. eigenvalues --    0.21279   0.23103   0.23548   0.24847   0.26194
 Alpha virt. eigenvalues --    0.26455   0.27014   0.27239   0.28280   0.29040
 Alpha virt. eigenvalues --    0.30552   0.31330   0.31639   0.31820   0.32177

 Mulliken charges:
               1
     1  C   -0.297731
     2  C   -0.306466
     3  C   -0.476062
     4  H    0.149553
     5  H    0.149293
     6  H    0.151458
     7  H    0.159241
     8  H    0.154820
     9  H    0.155202
    10  H    0.161043
    11  C   -0.298771
    12  C   -0.299609
    13  C   -0.475718
    14  H    0.149144
    15  H    0.150306
    16  H    0.151936
    17  H    0.151922
    18  H    0.155335
    19  H    0.155074
    20  H    0.160222
    21  C   -0.298317
    22  C   -0.299663
    23  C   -0.475705
    24  H    0.149537
    25  H    0.149734
    26  H    0.151895
    27  H    0.151930
    28  H    0.155231
    29  H    0.155165
    30  H    0.160231
    31  C   -0.298198
    32  C   -0.301495
    33  C   -0.478963
    34  H    0.149522
    35  H    0.149714
    36  H    0.151196
    37  H    0.154087
    38  H    0.155309
    39  H    0.155034
    40  H    0.163566
 Sum of Mulliken charges =  -0.00000

 Dipole moment (field-independent basis, Debye):
    X=             -0.0040    Y=             -0.0035    Z=             -0.0025  Tot=              0.0059
 Quadrupole moment (field-independent basis, Debye-Ang):
   XX=            -85.1155   YY=            -86.8760   ZZ=            -82.8444
   XY=              0.8872   XZ=             -0.5557   YZ=             -0.1026

 Normal termination of Gaussian 16 at Wed May  5 23:16:47 2021.
