 Gaussian 16, Revision A.03,
 Gaussian 16:  EM64L-G16RevA.03 25-Dec-2016

 -------------
 #p 6-31g* mp2
 -------------

 ------------------------------------------------------
 Input file generated by CHIRIPA (05-May-2021 14:57:21)
 ------------------------------------------------------
 Symbolic Z-matrix:
 Charge =  0 Multiplicity = 1

                         Standard orientation:
 ---------------------------------------------------------------------
 Center     Atomic      Atomic             Coordinates (Angstroms)
 Number     Number       Type             X           Y           Z
 ---------------------------------------------------------------------
      1          6           0        4.786966   -2.323047    0.192300
      2          6           0        5.344741   -1.451514   -0.748890
      3          6           0        4.885589   -0.135490   -0.857557
      4          6           0        3.862662    0.277511   -0.005301
      5          6           0        3.286688   -0.567003    0.942506
      6          6           0        3.761527   -1.878794    1.033511
      7          1           0        5.149739   -3.343722    0.269856
      8          1           0        6.141226   -1.793788   -1.403492
      9          1           0        5.299532    0.560236   -1.577304
     10          1           0        2.493937   -0.196942    1.581270
     11          1           0        3.326479   -2.553435    1.765384
     12          7           0        3.368274    1.668486   -0.110993
     13          8           0        2.466040    2.007970    0.651476
     14          8           0        3.892370    2.392910   -0.954303
     15          6           0       -1.538343    0.618740    0.352792
     16          6           0       -1.852094   -0.691157   -0.024366
     17          6           0       -3.181606   -1.071880   -0.229292
     18          6           0       -4.176727   -0.112746   -0.047396
     19          6           0       -3.896040    1.200104    0.328012
     20          6           0       -2.559517    1.558534    0.527470
     21          1           0       -0.502823    0.905836    0.509859
     22          1           0       -1.061099   -1.423122   -0.160750
     23          1           0       -3.452659   -2.079108   -0.521595
     24          1           0       -4.706277    1.907547    0.456307
     25          1           0       -2.318806    2.576536    0.820342
     26          7           0       -5.587933   -0.503999   -0.261447
     27          8           0       -6.446286    0.359756   -0.094731
     28          8           0       -5.808962   -1.667010   -0.591883
 ---------------------------------------------------------------------

 SCF Done:  E(RHF) =  -868.339514402     A.U. after   16 cycles
 E2 =    -0.2598734111D+01 EUMP2 =    -0.87093824851334D+03

 The electronic state is 1-A.
 Alpha  occ. eigenvalues --  -20.61925 -20.61849 -20.60492 -20.60482 -15.86911
 Alpha  occ. eigenvalues --  -15.85542 -11.32115 -11.30813 -11.28703 -11.28612
 Alpha  occ. eigenvalues --  -11.28326 -11.27641 -11.27584 -11.27426 -11.27354
 Alpha  occ. eigenvalues --  -11.26965 -11.26402 -11.26264  -1.60940  -1.59568
 Alpha  occ. eigenvalues --   -1.40503  -1.39124  -1.20261  -1.18972  -1.09677
 Alpha  occ. eigenvalues --   -1.08357  -1.05639  -1.04373  -0.96543  -0.95209
 Alpha  occ. eigenvalues --   -0.87041  -0.85759  -0.83382  -0.82056  -0.78461
 Alpha  occ. eigenvalues --   -0.77142  -0.73135  -0.72248  -0.71760  -0.71354
 Alpha  occ. eigenvalues --   -0.70891  -0.69993  -0.65911  -0.65627  -0.64614
 Alpha  occ. eigenvalues --   -0.64368  -0.62991  -0.61730  -0.56118  -0.54760
 Alpha  occ. eigenvalues --   -0.53976  -0.53719  -0.52700  -0.52455  -0.49902
 Alpha  occ. eigenvalues --   -0.49863  -0.48521  -0.48509  -0.45930  -0.44551
 Alpha  occ. eigenvalues --   -0.38216  -0.37240  -0.36912  -0.35993
 Alpha virt. eigenvalues --    0.04019   0.05405   0.10396   0.11669   0.15537
 Alpha virt. eigenvalues --    0.16928   0.20222   0.21910   0.25997   0.27007
 Alpha virt. eigenvalues --    0.27715   0.28781   0.30342   0.31050   0.32769

 Mulliken charges:
               1
     1  C   -0.170079
     2  C   -0.218061
     3  C   -0.170209
     4  C    0.158795
     5  C   -0.175283
     6  C   -0.218845
     7  H    0.228931
     8  H    0.226854
     9  H    0.277825
    10  H    0.271779
    11  H    0.225479
    12  N    0.489488
    13  O   -0.469533
    14  O   -0.453346
    15  C   -0.178821
    16  C   -0.220390
    17  C   -0.171310
    18  C    0.157615
    19  C   -0.171250
    20  C   -0.219989
    21  H    0.241416
    22  H    0.217666
    23  H    0.272898
    24  H    0.274960
    25  H    0.228505
    26  N    0.488227
    27  O   -0.460826
    28  O   -0.462496
 Sum of Mulliken charges =  -0.00000

 Dipole moment (field-independent basis, Debye):
    X=              7.1550    Y=             -3.4545    Z=              1.0659  Tot=              8.0165
 Quadrupole moment (field-independent basis, Debye-Ang):
   XX=           -130.5342   YY=           -103.6972   ZZ=           -103.1039
   XY=            -26.5208   XZ=             -5.5808   YZ=              0.3505

 Normal termination of Gaussian 16 at Thu May  6 09:39:33 2021.
