 Gaussian 16, Revision A.03,
 Gaussian 16:  EM64L-G16RevA.03 25-Dec-2016

 -------------
 #p 6-31g* mp2
 -------------

 ------------------------------------------------------
 Input file generated by CHIRIPA (05-May-2021 14:55:23)
 ------------------------------------------------------
 Symbolic Z-matrix:
 Charge =  0 Multiplicity = 1

                         Standard orientation:
 ---------------------------------------------------------------------
 Center     Atomic      Atomic             Coordinates (Angstroms)
 Number     Number       Type             X           Y           Z
 ---------------------------------------------------------------------
      1          6           0       -3.406089    1.760022   -0.849161
      2          6           0       -2.013477    1.629054   -0.849331
      3          6           0       -1.411104    0.450623   -0.398781
      4          6           0       -2.235343   -0.581444    0.047042
      5          6           0       -3.625703   -0.481281    0.059501
      6          6           0       -4.206347    0.706294   -0.395545
      7          1           0       -3.865587    2.679007   -1.200905
      8          1           0       -1.389497    2.445747   -1.201048
      9          1           0       -0.335520    0.322476   -0.388069
     10          1           0       -4.221480   -1.312737    0.416080
     11          1           0       -5.288133    0.805201   -0.394276
     12          7           0       -1.609139   -1.833836    0.526399
     13          8           0       -2.357446   -2.728453    0.914130
     14          8           0       -0.381871   -1.897131    0.505311
     15          6           0        2.672439    0.933802    0.564893
     16          6           0        2.466896    2.369243    0.079871
     17          6           0        1.823990    3.264851    1.139283
     18          1           0        1.703059    0.512299    0.864195
     19          1           0        3.300151    0.945214    1.466694
     20          1           0        1.840903    2.355020   -0.821542
     21          1           0        3.436851    2.787312   -0.218491
     22          1           0        2.448748    3.308799    2.037253
     23          1           0        0.843731    2.874051    1.430774
     24          1           0        1.686255    4.286425    0.771487
     25          6           0        3.314244    0.026287   -0.483072
     26          6           0        3.519788   -1.409153    0.001950
     27          6           0        4.162694   -2.304762   -1.057461
     28          1           0        2.686534    0.014875   -1.384872
     29          1           0        4.283626    0.447789   -0.782374
     30          1           0        2.549832   -1.827223    0.300313
     31          1           0        4.145781   -1.394930    0.903364
     32          1           0        5.142954   -1.913961   -1.348952
     33          1           0        3.537936   -2.348710   -1.955431
     34          1           0        4.300429   -3.326336   -0.689666
 ---------------------------------------------------------------------

 SCF Done:  E(RHF) =  -669.535988522     A.U. after   15 cycles
 E2 =    -0.2093179429D+01 EUMP2 =    -0.67162916795126D+03

 The electronic state is 1-A.
 Alpha  occ. eigenvalues --  -20.60964 -20.60951 -15.86000 -11.31289 -11.27851
 Alpha  occ. eigenvalues --  -11.27829 -11.27578 -11.26856 -11.26840 -11.21944
 Alpha  occ. eigenvalues --  -11.21437 -11.21327 -11.21111 -11.20773 -11.20418
 Alpha  occ. eigenvalues --   -1.60021  -1.39580  -1.19457  -1.08864  -1.08295
 Alpha  occ. eigenvalues --   -1.04849  -1.03338  -0.95823  -0.95711  -0.86848
 Alpha  occ. eigenvalues --   -0.86250  -0.82549  -0.79463  -0.78016  -0.77580
 Alpha  occ. eigenvalues --   -0.72230  -0.71333  -0.70579  -0.65132  -0.65106
 Alpha  occ. eigenvalues --   -0.64723  -0.62173  -0.60709  -0.59245  -0.57386
 Alpha  occ. eigenvalues --   -0.55372  -0.55118  -0.53179  -0.52932  -0.52537
 Alpha  occ. eigenvalues --   -0.52213  -0.49801  -0.48989  -0.48970  -0.47747
 Alpha  occ. eigenvalues --   -0.46523  -0.45549  -0.45360  -0.44968  -0.43596
 Alpha  occ. eigenvalues --   -0.37432  -0.36443
 Alpha virt. eigenvalues --    0.04885   0.11170   0.16381   0.18835   0.23148
 Alpha virt. eigenvalues --    0.24033   0.26049   0.26800   0.27719   0.28236
 Alpha virt. eigenvalues --    0.29606   0.31206   0.31678   0.31778   0.32640

 Mulliken charges:
               1
     1  C   -0.170297
     2  C   -0.222502
     3  C   -0.177374
     4  C    0.156008
     5  C   -0.169882
     6  C   -0.218781
     7  H    0.226228
     8  H    0.226084
     9  H    0.287610
    10  H    0.275823
    11  H    0.223884
    12  N    0.494663
    13  O   -0.458486
    14  O   -0.469329
    15  C   -0.308438
    16  C   -0.300435
    17  C   -0.476932
    18  H    0.156845
    19  H    0.153740
    20  H    0.139863
    21  H    0.155384
    22  H    0.159809
    23  H    0.153057
    24  H    0.157808
    25  C   -0.296633
    26  C   -0.311046
    27  C   -0.474959
    28  H    0.144097
    29  H    0.147597
    30  H    0.181051
    31  H    0.148778
    32  H    0.150253
    33  H    0.154382
    34  H    0.162128
 Sum of Mulliken charges =  -0.00000

 Dipole moment (field-independent basis, Debye):
    X=             -2.2977    Y=              4.2401    Z=             -1.5648  Tot=              5.0702
 Quadrupole moment (field-independent basis, Debye-Ang):
   XX=            -80.2340   YY=           -100.2635   ZZ=            -95.9416
   XY=             -6.3147   XZ=              3.8257   YZ=              0.2909

 Normal termination of Gaussian 16 at Wed May  5 17:33:13 2021.
