 Gaussian 16, Revision A.03,
 Gaussian 16:  EM64L-G16RevA.03 25-Dec-2016

 -------------
 #p 6-31g* mp2
 -------------

 ------------------------------------------------------
 Input file generated by CHIRIPA (05-May-2021 14:55:23)
 ------------------------------------------------------
 Symbolic Z-matrix:
 Charge =  0 Multiplicity = 1

                         Standard orientation:
 ---------------------------------------------------------------------
 Center     Atomic      Atomic             Coordinates (Angstroms)
 Number     Number       Type             X           Y           Z
 ---------------------------------------------------------------------
      1          6           0        2.050824    2.209685    0.675896
      2          6           0        1.686484    0.910470    1.044430
      3          6           0        2.474615   -0.181483    0.668883
      4          6           0        3.625697    0.063262   -0.078378
      5          6           0        4.015240    1.345923   -0.460906
      6          6           0        3.211992    2.422889   -0.074274
      7          1           0        1.432714    3.052120    0.971935
      8          1           0        0.785244    0.741904    1.627008
      9          1           0        2.215975   -1.197685    0.940648
     10          1           0        4.919311    1.482456   -1.041795
     11          1           0        3.497398    3.430787   -0.361902
     12          7           0        4.468058   -1.084807   -0.481821
     13          8           0        5.477376   -0.842591   -1.140036
     14          8           0        4.103033   -2.205141   -0.132186
     15          6           0       -4.933803    0.180313   -0.314114
     16          6           0       -6.404368   -0.233947   -0.252357
     17          6           0       -7.333464    0.783411   -0.915349
     18          1           0       -4.814393    1.158733    0.171045
     19          1           0       -4.641764    0.314723   -1.364848
     20          1           0       -6.693170   -0.368880    0.797882
     21          1           0       -6.520260   -1.211583   -0.737550
     22          1           0       -7.073403    0.911914   -1.971028
     23          1           0       -7.247296    1.759405   -0.426871
     24          1           0       -8.379843    0.467407   -0.859750
     25          6           0       -3.992574   -0.826655    0.344542
     26          6           0       -2.522009   -0.412396    0.282786
     27          6           0       -1.592914   -1.429753    0.945778
     28          1           0       -4.284613   -0.961065    1.395277
     29          1           0       -4.111985   -1.805076   -0.140617
     30          1           0       -2.406117    0.565241    0.767979
     31          1           0       -2.233208   -0.277462   -0.767454
     32          1           0       -1.679083   -2.405748    0.457299
     33          1           0       -1.852974   -1.558256    2.001456
     34          1           0       -0.546535   -1.113748    0.890179
 ---------------------------------------------------------------------

 SCF Done:  E(RHF) =  -669.535172392     A.U. after   15 cycles
 E2 =    -0.2091589722D+01 EUMP2 =    -0.67162676211479D+03

 The electronic state is 1-A.
 Alpha  occ. eigenvalues --  -20.60751 -20.60745 -15.85805 -11.31180 -11.27754
 Alpha  occ. eigenvalues --  -11.27741 -11.27488 -11.26769 -11.26732 -11.22296
 Alpha  occ. eigenvalues --  -11.21959 -11.21907 -11.21848 -11.21808 -11.21382
 Alpha  occ. eigenvalues --   -1.59826  -1.39379  -1.19355  -1.08938  -1.08745
 Alpha  occ. eigenvalues --   -1.04767  -1.04057  -0.96514  -0.95579  -0.87535
 Alpha  occ. eigenvalues --   -0.86153  -0.82418  -0.80125  -0.78728  -0.77464
 Alpha  occ. eigenvalues --   -0.72022  -0.71149  -0.70462  -0.65565  -0.65013
 Alpha  occ. eigenvalues --   -0.64777  -0.62207  -0.61443  -0.59857  -0.58108
 Alpha  occ. eigenvalues --   -0.55781  -0.55256  -0.53331  -0.53062  -0.52968
 Alpha  occ. eigenvalues --   -0.52699  -0.50434  -0.48782  -0.48776  -0.48438
 Alpha  occ. eigenvalues --   -0.47148  -0.46276  -0.46183  -0.44783  -0.44316
 Alpha  occ. eigenvalues --   -0.37331  -0.36345
 Alpha virt. eigenvalues --    0.05048   0.11278   0.16429   0.20233   0.22589
 Alpha virt. eigenvalues --    0.23867   0.26063   0.26204   0.26903   0.27728
 Alpha virt. eigenvalues --    0.28723   0.30445   0.30916   0.31300   0.31831

 Mulliken charges:
               1
     1  C   -0.171472
     2  C   -0.220342
     3  C   -0.172243
     4  C    0.158145
     5  C   -0.171012
     6  C   -0.218584
     7  H    0.225690
     8  H    0.227820
     9  H    0.276692
    10  H    0.275630
    11  H    0.223440
    12  N    0.488256
    13  O   -0.460544
    14  O   -0.460258
    15  C   -0.298502
    16  C   -0.300089
    17  C   -0.475948
    18  H    0.148267
    19  H    0.150682
    20  H    0.152257
    21  H    0.153372
    22  H    0.155813
    23  H    0.154733
    24  H    0.161530
    25  C   -0.298852
    26  C   -0.299330
    27  C   -0.482126
    28  H    0.150026
    29  H    0.152677
    30  H    0.145657
    31  H    0.156020
    32  H    0.162959
    33  H    0.155817
    34  H    0.153817
 Sum of Mulliken charges =  -0.00000

 Dipole moment (field-independent basis, Debye):
    X=             -3.1003    Y=              4.0126    Z=              1.3655  Tot=              5.2514
 Quadrupole moment (field-independent basis, Debye-Ang):
   XX=           -114.8271   YY=            -92.6838   ZZ=            -94.0372
   XY=             17.5299   XZ=              3.3990   YZ=             -1.1295

 Normal termination of Gaussian 16 at Thu May  6 03:05:36 2021.
