 Gaussian 16, Revision A.03,
 Gaussian 16:  EM64L-G16RevA.03 25-Dec-2016

 -------------
 #p 6-31g* mp2
 -------------

 ------------------------------------------------------
 Input file generated by CHIRIPA (05-May-2021 14:55:20)
 ------------------------------------------------------
 Symbolic Z-matrix:
 Charge =  0 Multiplicity = 1

                         Standard orientation:
 ---------------------------------------------------------------------
 Center     Atomic      Atomic             Coordinates (Angstroms)
 Number     Number       Type             X           Y           Z
 ---------------------------------------------------------------------
      1          6           0       -2.109275    0.794179    2.423335
      2          6           0       -2.522354   -0.537542    2.311962
      3          6           0       -2.689300   -1.126388    1.055006
      4          6           0       -2.433208   -0.350860   -0.074712
      5          6           0       -2.020477    0.978359    0.003516
      6          6           0       -1.860094    1.546553    1.270789
      7          1           0       -1.982137    1.243588    3.403776
      8          1           0       -2.716596   -1.124243    3.205325
      9          1           0       -3.008059   -2.155252    0.939899
     10          1           0       -1.834475    1.537951   -0.905152
     11          1           0       -1.539183    2.581007    1.354255
     12          7           0       -2.606472   -0.963314   -1.410856
     13          8           0       -2.374416   -0.258746   -2.390841
     14          8           0       -2.971052   -2.136325   -1.452840
     15          6           0        2.673744    0.939521    0.003795
     16          6           0        1.976916    1.597785   -1.187467
     17          6           0        1.172259    2.836080   -0.791304
     18          1           0        1.920601    0.664353    0.754797
     19          1           0        3.338449    1.672443    0.481695
     20          1           0        1.314769    0.863434   -1.663812
     21          1           0        2.731786    1.871244   -1.935803
     22          1           0        1.823384    3.589080   -0.335639
     23          1           0        0.398315    2.575543   -0.062103
     24          1           0        0.682482    3.290812   -1.658019
     25          6           0        3.482166   -0.299724   -0.376277
     26          6           0        4.178994   -0.957988    0.814985
     27          6           0        4.983651   -2.196284    0.418822
     28          1           0        2.817460   -1.032646   -0.854176
     29          1           0        4.235309   -0.024556   -1.127278
     30          1           0        3.424123   -1.231447    1.563322
     31          1           0        4.841142   -0.223637    1.291331
     32          1           0        5.757595   -1.935746   -0.310378
     33          1           0        4.332526   -2.949283   -0.036841
     34          1           0        5.473428   -2.651015    1.285538
 ---------------------------------------------------------------------

 SCF Done:  E(RHF) =  -669.534694542     A.U. after   15 cycles
 E2 =    -0.2093144535D+01 EUMP2 =    -0.67162783907706D+03

 The electronic state is 1-A.
 Alpha  occ. eigenvalues --  -20.60837 -20.60832 -15.85889 -11.31254 -11.27834
 Alpha  occ. eigenvalues --  -11.27809 -11.27576 -11.26843 -11.26824 -11.21750
 Alpha  occ. eigenvalues --  -11.21680 -11.21526 -11.21495 -11.21409 -11.21094
 Alpha  occ. eigenvalues --   -1.59911  -1.39464  -1.19442  -1.08831  -1.08549
 Alpha  occ. eigenvalues --   -1.04860  -1.03688  -0.96176  -0.95659  -0.87200
 Alpha  occ. eigenvalues --   -0.86236  -0.82507  -0.79758  -0.78348  -0.77543
 Alpha  occ. eigenvalues --   -0.72106  -0.71236  -0.70542  -0.65226  -0.65065
 Alpha  occ. eigenvalues --   -0.64850  -0.62301  -0.61016  -0.59527  -0.57764
 Alpha  occ. eigenvalues --   -0.55549  -0.55267  -0.53187  -0.52971  -0.52863
 Alpha  occ. eigenvalues --   -0.52524  -0.50103  -0.48866  -0.48859  -0.48067
 Alpha  occ. eigenvalues --   -0.46769  -0.45899  -0.45799  -0.44865  -0.43933
 Alpha  occ. eigenvalues --   -0.37419  -0.36383
 Alpha virt. eigenvalues --    0.04960   0.11135   0.16312   0.20846   0.22850
 Alpha virt. eigenvalues --    0.24110   0.26186   0.26757   0.27215   0.28023
 Alpha virt. eigenvalues --    0.29420   0.29917   0.31395   0.31781   0.32099

 Mulliken charges:
               1
     1  C   -0.171891
     2  C   -0.218894
     3  C   -0.170950
     4  C    0.156667
     5  C   -0.168980
     6  C   -0.221126
     7  H    0.226288
     8  H    0.223794
     9  H    0.275828
    10  H    0.279755
    11  H    0.226030
    12  N    0.488064
    13  O   -0.460398
    14  O   -0.460135
    15  C   -0.299405
    16  C   -0.300630
    17  C   -0.484618
    18  H    0.148954
    19  H    0.147736
    20  H    0.159551
    21  H    0.154650
    22  H    0.155656
    23  H    0.149124
    24  H    0.162050
    25  C   -0.299058
    26  C   -0.299473
    27  C   -0.475960
    28  H    0.153147
    29  H    0.150608
    30  H    0.150404
    31  H    0.150836
    32  H    0.155839
    33  H    0.156986
    34  H    0.159551
 Sum of Mulliken charges =  -0.00000

 Dipole moment (field-independent basis, Debye):
    X=              0.6045    Y=              2.0796    Z=              4.6618  Tot=              5.1403
 Quadrupole moment (field-independent basis, Debye-Ang):
   XX=            -97.7405   YY=            -93.4623   ZZ=            -94.9115
   XY=             -3.1933   XZ=            -12.6015   YZ=             -4.1352

 Normal termination of Gaussian 16 at Thu May  6 09:17:58 2021.
