 Gaussian 16, Revision A.03,
 Gaussian 16:  EM64L-G16RevA.03 25-Dec-2016

 -------------
 #p 6-31g* mp2
 -------------

 ------------------------------------------------------
 Input file generated by CHIRIPA (05-May-2021 14:53:13)
 ------------------------------------------------------
 Symbolic Z-matrix:
 Charge =  0 Multiplicity = 1

                         Standard orientation:
 ---------------------------------------------------------------------
 Center     Atomic      Atomic             Coordinates (Angstroms)
 Number     Number       Type             X           Y           Z
 ---------------------------------------------------------------------
      1          6           0       -2.611107    1.056577    0.087509
      2          6           0       -2.100463    1.649207   -1.226271
      3          6           0       -1.398503    2.993974   -1.034837
      4          1           0       -3.301972    1.768527    0.559503
      5          1           0       -1.766403    0.935059    0.779681
      6          1           0       -2.945661    1.768283   -1.916254
      7          1           0       -1.410881    0.935682   -1.695287
      8          1           0       -0.537548    2.887499   -0.366989
      9          1           0       -2.081048    3.724831   -0.589212
     10          1           0       -1.041452    3.399548   -1.986617
     11          6           0       -3.315214   -0.287792   -0.087517
     12          6           0       -3.825859   -0.880422    1.226263
     13          6           0       -4.527819   -2.225189    1.034828
     14          1           0       -4.159919   -0.166273   -0.779689
     15          1           0       -2.624349   -0.999742   -0.559511
     16          1           0       -4.515440   -0.166897    1.695278
     17          1           0       -2.980660   -0.999498    1.916246
     18          1           0       -3.845273   -2.956045    0.589203
     19          1           0       -5.388773   -2.118713    0.366980
     20          1           0       -4.884869   -2.630762    1.986608
     21          6           0        2.783536    1.493683    1.711134
     22          6           0        2.087399    1.808558    0.539483
     23          6           0        1.822163    0.822587   -0.415536
     24          6           0        2.269670   -0.473743   -0.165422
     25          6           0        2.965660   -0.818712    0.992111
     26          6           0        3.219676    0.183363    1.933318
     27          1           0        2.985220    2.265864    2.447650
     28          1           0        1.747488    2.825321    0.364273
     29          1           0        1.285365    1.038777   -1.331247
     30          1           0        3.291860   -1.841212    1.138753
     31          1           0        3.760528   -0.064063    2.842330
     32          7           0        1.994815   -1.526071   -1.169147
     33          8           0        2.399741   -2.660590   -0.925144
     34          8           0        1.379663   -1.196440   -2.180862
 ---------------------------------------------------------------------

 SCF Done:  E(RHF) =  -669.535370975     A.U. after   15 cycles
 E2 =    -0.2092990987D+01 EUMP2 =    -0.67162836196239D+03

 The electronic state is 1-A.
 Alpha  occ. eigenvalues --  -20.60868 -20.60862 -15.85913 -11.31257 -11.27833
 Alpha  occ. eigenvalues --  -11.27811 -11.27563 -11.26838 -11.26813 -11.21766
 Alpha  occ. eigenvalues --  -11.21614 -11.21504 -11.21451 -11.21241 -11.20895
 Alpha  occ. eigenvalues --   -1.59937  -1.39492  -1.19436  -1.08831  -1.08458
 Alpha  occ. eigenvalues --   -1.04843  -1.03622  -0.96100  -0.95665  -0.87119
 Alpha  occ. eigenvalues --   -0.86230  -0.82506  -0.79683  -0.78228  -0.77559
 Alpha  occ. eigenvalues --   -0.72131  -0.71259  -0.70543  -0.65162  -0.65044
 Alpha  occ. eigenvalues --   -0.64840  -0.62304  -0.60916  -0.59469  -0.57682
 Alpha  occ. eigenvalues --   -0.55493  -0.55223  -0.53162  -0.52977  -0.52794
 Alpha  occ. eigenvalues --   -0.52469  -0.50026  -0.48890  -0.48887  -0.47990
 Alpha  occ. eigenvalues --   -0.46697  -0.45784  -0.45677  -0.44889  -0.43846
 Alpha  occ. eigenvalues --   -0.37411  -0.36406
 Alpha virt. eigenvalues --    0.04932   0.11155   0.16318   0.20316   0.22975
 Alpha virt. eigenvalues --    0.24081   0.26074   0.26558   0.27261   0.28211
 Alpha virt. eigenvalues --    0.29432   0.29688   0.31438   0.31588   0.32489

 Mulliken charges:
               1
     1  C   -0.298943
     2  C   -0.305697
     3  C   -0.483656
     4  H    0.148125
     5  H    0.148557
     6  H    0.155510
     7  H    0.161632
     8  H    0.146580
     9  H    0.158219
    10  H    0.161017
    11  C   -0.300382
    12  C   -0.299507
    13  C   -0.476232
    14  H    0.150009
    15  H    0.157208
    16  H    0.150167
    17  H    0.150844
    18  H    0.158744
    19  H    0.155285
    20  H    0.159215
    21  C   -0.171100
    22  C   -0.222181
    23  C   -0.171701
    24  C    0.157009
    25  C   -0.170640
    26  C   -0.218724
    27  H    0.226238
    28  H    0.226820
    29  H    0.281025
    30  H    0.275782
    31  H    0.223793
    32  N    0.488266
    33  O   -0.459741
    34  O   -0.461542
 Sum of Mulliken charges =  -0.00000

 Dipole moment (field-independent basis, Debye):
    X=              0.9548    Y=              3.5970    Z=              3.4962  Tot=              5.1063
 Quadrupole moment (field-independent basis, Debye-Ang):
   XX=            -89.1450   YY=            -97.2908   ZZ=            -94.6934
   XY=              5.3985   XZ=              9.9913   YZ=             -4.4583

 Normal termination of Gaussian 16 at Thu May  6 18:43:52 2021.
