 Gaussian 16, Revision A.03,
 Gaussian 16:  EM64L-G16RevA.03 25-Dec-2016

 -------------
 #p 6-31g* mp2
 -------------

 ------------------------------------------------------
 Input file generated by CHIRIPA (05-May-2021 14:57:25)
 ------------------------------------------------------
 Symbolic Z-matrix:
 Charge =  0 Multiplicity = 1

                         Standard orientation:
 ---------------------------------------------------------------------
 Center     Atomic      Atomic             Coordinates (Angstroms)
 Number     Number       Type             X           Y           Z
 ---------------------------------------------------------------------
      1          6           0       -4.316185    1.680230    0.413546
      2          6           0       -3.176574    2.040411   -0.313144
      3          6           0       -2.282638    1.063708   -0.762006
      4          6           0       -2.560496   -0.269655   -0.464973
      5          6           0       -3.687328   -0.660139    0.256873
      6          6           0       -4.567482    0.333478    0.695737
      7          1           0       -5.005262    2.445526    0.758350
      8          1           0       -2.978872    3.085535   -0.533766
      9          1           0       -1.392810    1.314642   -1.326502
     10          1           0       -3.857622   -1.710195    0.461325
     11          1           0       -5.451724    0.050832    1.259893
     12          7           0       -1.621422   -1.312600   -0.934872
     13          8           0       -1.888829   -2.480351   -0.660121
     14          8           0       -0.635749   -0.942562   -1.569030
     15          6           0        4.863068    0.868088   -0.689262
     16          6           0        4.699032   -0.475777   -0.337634
     17          6           0        3.513246   -0.913800    0.259524
     18          6           0        2.507626    0.023294    0.491629
     19          6           0        2.640993    1.368892    0.152706
     20          6           0        3.835337    1.784517   -0.443403
     21          1           0        5.787539    1.199655   -1.152741
     22          1           0        5.495487   -1.189710   -0.527383
     23          1           0        3.359727   -1.948286    0.541813
     24          1           0        1.829182    2.057156    0.354381
     25          1           0        3.959949    2.828797   -0.715426
     26          7           0        1.247757   -0.428566    1.123257
     27          8           0        0.376888    0.416786    1.317169
     28          8           0        1.154998   -1.619530    1.412457
 ---------------------------------------------------------------------

 SCF Done:  E(RHF) =  -868.338867294     A.U. after   16 cycles
 E2 =    -0.2602031601D+01 EUMP2 =    -0.87094089889493D+03

 The electronic state is 1-A.
 Alpha  occ. eigenvalues --  -20.60335 -20.60224 -20.59829 -20.59704 -15.85307
 Alpha  occ. eigenvalues --  -15.84808 -11.30639 -11.30039 -11.27285 -11.27167
 Alpha  occ. eigenvalues --  -11.27000 -11.26694 -11.26657 -11.26485 -11.26306
 Alpha  occ. eigenvalues --  -11.26229 -11.25729 -11.25702  -1.59337  -1.58800
 Alpha  occ. eigenvalues --   -1.38896  -1.38383  -1.18815  -1.18240  -1.08224
 Alpha  occ. eigenvalues --   -1.07675  -1.04242  -1.03683  -0.95072  -0.94539
 Alpha  occ. eigenvalues --   -0.85643  -0.85096  -0.81926  -0.81414  -0.76971
 Alpha  occ. eigenvalues --   -0.76447  -0.71574  -0.71209  -0.70916  -0.69973
 Alpha  occ. eigenvalues --   -0.69597  -0.69448  -0.64498  -0.64278  -0.63952
 Alpha  occ. eigenvalues --   -0.63752  -0.61610  -0.61070  -0.54774  -0.54255
 Alpha  occ. eigenvalues --   -0.52539  -0.52362  -0.51952  -0.51832  -0.48343
 Alpha  occ. eigenvalues --   -0.48298  -0.47827  -0.47793  -0.44442  -0.43712
 Alpha  occ. eigenvalues --   -0.36793  -0.36167  -0.35834  -0.35232
 Alpha virt. eigenvalues --    0.05542   0.06194   0.11812   0.12420   0.17099
 Alpha virt. eigenvalues --    0.17621   0.21739   0.22315   0.27415   0.28117
 Alpha virt. eigenvalues --    0.28661   0.29300   0.31149   0.31881   0.32731

 Mulliken charges:
               1
     1  C   -0.170241
     2  C   -0.219684
     3  C   -0.155927
     4  C    0.171450
     5  C   -0.168089
     6  C   -0.219032
     7  H    0.220921
     8  H    0.216564
     9  H    0.267355
    10  H    0.274050
    11  H    0.219562
    12  N    0.492626
    13  O   -0.455551
    14  O   -0.474932
    15  C   -0.170775
    16  C   -0.218465
    17  C   -0.166775
    18  C    0.167694
    19  C   -0.170326
    20  C   -0.218437
    21  H    0.223519
    22  H    0.222646
    23  H    0.277836
    24  H    0.268417
    25  H    0.219636
    26  N    0.493454
    27  O   -0.474702
    28  O   -0.452793
 Sum of Mulliken charges =  -0.00000

 Dipole moment (field-independent basis, Debye):
    X=              1.2476    Y=              4.9073    Z=             -0.4720  Tot=              5.0853
 Quadrupole moment (field-independent basis, Debye-Ang):
   XX=            -65.2124   YY=           -100.4323   ZZ=           -109.5951
   XY=             -4.0959   XZ=             -7.7869   YZ=             -3.5256

 Normal termination of Gaussian 16 at Thu May  6 09:54:39 2021.
