 Gaussian 16, Revision A.03,
 Gaussian 16:  EM64L-G16RevA.03 25-Dec-2016

 -------------
 #p 6-31g* mp2
 -------------

 ------------------------------------------------------
 Input file generated by CHIRIPA (05-May-2021 14:55:19)
 ------------------------------------------------------
 Symbolic Z-matrix:
 Charge =  0 Multiplicity = 1

                         Standard orientation:
 ---------------------------------------------------------------------
 Center     Atomic      Atomic             Coordinates (Angstroms)
 Number     Number       Type             X           Y           Z
 ---------------------------------------------------------------------
      1          6           0        3.735663   -1.797328    0.406564
      2          6           0        3.960714   -1.031901   -0.742346
      3          6           0        3.349935    0.216406   -0.894752
      4          6           0        2.516309    0.670623    0.126054
      5          6           0        2.272310   -0.068553    1.282503
      6          6           0        2.893663   -1.314064    1.413546
      7          1           0        4.214238   -2.765957    0.516659
      8          1           0        4.614134   -1.404688   -1.526003
      9          1           0        3.506713    0.829656   -1.773822
     10          1           0        1.615804    0.329637    2.046611
     11          1           0        2.717056   -1.906337    2.306892
     12          7           0        1.864107    1.990669   -0.023983
     13          8           0        1.134027    2.368395    0.889768
     14          8           0        2.095342    2.622599   -1.052493
     15          6           0       -2.622721   -0.541245   -0.394544
     16          6           0       -1.916691   -1.897394   -0.375449
     17          6           0       -0.445445   -1.803670   -0.780966
     18          1           0       -2.545280   -0.108837   -1.401505
     19          1           0       -2.097967    0.147066    0.282404
     20          1           0       -2.443442   -2.583353   -1.051177
     21          1           0       -1.995988   -2.326710    0.631534
     22          1           0        0.099978   -1.140820   -0.101448
     23          1           0       -0.350018   -1.398921   -1.793721
     24          1           0        0.039909   -2.784421   -0.760445
     25          6           0       -4.094207   -0.618597    0.008541
     26          6           0       -4.800237    0.737552   -0.010554
     27          6           0       -6.271484    0.643829    0.394963
     28          1           0       -4.618961   -1.306907   -0.668406
     29          1           0       -4.171649   -1.051004    1.015502
     30          1           0       -4.720940    1.166868   -1.017537
     31          1           0       -4.273486    1.423512    0.665174
     32          1           0       -6.366911    0.239080    1.407718
     33          1           0       -6.816907   -0.019021   -0.284555
     34          1           0       -6.756837    1.624580    0.374442
 ---------------------------------------------------------------------

 SCF Done:  E(RHF) =  -669.534641258     A.U. after   15 cycles
 E2 =    -0.2093047646D+01 EUMP2 =    -0.67162768890387D+03

 The electronic state is 1-A.
 Alpha  occ. eigenvalues --  -20.60804 -20.60799 -15.85853 -11.31200 -11.27783
 Alpha  occ. eigenvalues --  -11.27766 -11.27531 -11.26810 -11.26796 -11.21465
 Alpha  occ. eigenvalues --  -11.21226 -11.21110 -11.21041 -11.20911 -11.20769
 Alpha  occ. eigenvalues --   -1.59876  -1.39430  -1.19399  -1.08786  -1.08161
 Alpha  occ. eigenvalues --   -1.04806  -1.03292  -0.95755  -0.95616  -0.86769
 Alpha  occ. eigenvalues --   -0.86199  -0.82457  -0.79357  -0.77955  -0.77504
 Alpha  occ. eigenvalues --   -0.72074  -0.71200  -0.70506  -0.65049  -0.64813
 Alpha  occ. eigenvalues --   -0.64787  -0.62150  -0.60717  -0.59119  -0.57374
 Alpha  occ. eigenvalues --   -0.55301  -0.55154  -0.53303  -0.52892  -0.52407
 Alpha  occ. eigenvalues --   -0.52010  -0.49641  -0.48833  -0.48827  -0.47656
 Alpha  occ. eigenvalues --   -0.46382  -0.45503  -0.45422  -0.44819  -0.43536
 Alpha  occ. eigenvalues --   -0.37341  -0.36340
 Alpha virt. eigenvalues --    0.05015   0.11181   0.16512   0.21356   0.23109
 Alpha virt. eigenvalues --    0.24494   0.26825   0.27332   0.27715   0.28181
 Alpha virt. eigenvalues --    0.28375   0.30876   0.31640   0.31958   0.32142

 Mulliken charges:
               1
     1  C   -0.170858
     2  C   -0.216924
     3  C   -0.171021
     4  C    0.165326
     5  C   -0.180742
     6  C   -0.212206
     7  H    0.225749
     8  H    0.223692
     9  H    0.275699
    10  H    0.275124
    11  H    0.223677
    12  N    0.488350
    13  O   -0.461397
    14  O   -0.460149
    15  C   -0.300443
    16  C   -0.298886
    17  C   -0.479310
    18  H    0.151576
    19  H    0.155362
    20  H    0.150541
    21  H    0.147922
    22  H    0.159950
    23  H    0.155216
    24  H    0.154500
    25  C   -0.297984
    26  C   -0.300258
    27  C   -0.475654
    28  H    0.147897
    29  H    0.147571
    30  H    0.153158
    31  H    0.155993
    32  H    0.153947
    33  H    0.153801
    34  H    0.160780
 Sum of Mulliken charges =  -0.00000

 Dipole moment (field-independent basis, Debye):
    X=              2.4106    Y=             -4.5588    Z=              0.5217  Tot=              5.1832
 Quadrupole moment (field-independent basis, Debye-Ang):
   XX=            -83.9547   YY=           -101.8747   ZZ=            -89.9398
   XY=            -10.3169   XZ=             -0.1313   YZ=             -0.8138

 Normal termination of Gaussian 16 at Thu May  6 06:05:00 2021.
