 Gaussian 16, Revision A.03,
 Gaussian 16:  EM64L-G16RevA.03 25-Dec-2016

 -------------
 #p 6-31g* mp2
 -------------

 ------------------------------------------------------
 Input file generated by CHIRIPA (05-May-2021 14:53:18)
 ------------------------------------------------------
 Symbolic Z-matrix:
 Charge =  0 Multiplicity = 1

                         Standard orientation:
 ---------------------------------------------------------------------
 Center     Atomic      Atomic             Coordinates (Angstroms)
 Number     Number       Type             X           Y           Z
 ---------------------------------------------------------------------
      1          6           0       -3.421288   -0.579366    0.354644
      2          6           0       -4.390215   -1.065381   -0.723760
      3          6           0       -4.687088   -2.561732   -0.620832
      4          1           0       -2.483594   -1.146741    0.278750
      5          1           0       -3.842860   -0.803255    1.344364
      6          1           0       -3.967575   -0.839397   -1.711142
      7          1           0       -5.325642   -0.496651   -0.645412
      8          1           0       -5.131812   -2.800308    0.350715
      9          1           0       -3.766029   -3.145001   -0.721069
     10          1           0       -5.381762   -2.887809   -1.401192
     11          6           0       -3.114701    0.914513    0.264889
     12          6           0       -2.145775    1.400529    1.343294
     13          6           0       -1.848902    2.896879    1.240365
     14          1           0       -2.693129    1.138402   -0.724831
     15          1           0       -4.052396    1.481888    0.340783
     16          1           0       -1.210348    0.831799    1.264946
     17          1           0       -2.568415    1.174544    2.330675
     18          1           0       -2.769961    3.480149    1.340603
     19          1           0       -1.404178    3.135455    0.268818
     20          1           0       -1.154228    3.222956    2.020725
     21          6           0        1.186748    1.655795   -1.385075
     22          6           0        2.552869    1.855556   -1.160733
     23          6           0        3.319737    0.872456   -0.528295
     24          6           0        2.685217   -0.303649   -0.131498
     25          6           0        1.326102   -0.532254   -0.340874
     26          6           0        0.578797    0.464629   -0.975152
     27          1           0        0.598625    2.424844   -1.877082
     28          1           0        3.027677    2.779644   -1.478010
     29          1           0        4.379096    1.001005   -0.342142
     30          1           0        0.880862   -1.463842   -0.013275
     31          1           0       -0.481967    0.306757   -1.148070
     32          7           0        3.486711   -1.351708    0.539010
     33          8           0        2.903998   -2.379069    0.879029
     34          8           0        4.682458   -1.125972    0.711837
 ---------------------------------------------------------------------

 SCF Done:  E(RHF) =  -669.534465733     A.U. after   15 cycles
 E2 =    -0.2094048379D+01 EUMP2 =    -0.67162851411195D+03

 The electronic state is 1-A.
 Alpha  occ. eigenvalues --  -20.60794 -20.60789 -15.85848 -11.31237 -11.27796
 Alpha  occ. eigenvalues --  -11.27789 -11.27536 -11.26819 -11.26782 -11.22337
 Alpha  occ. eigenvalues --  -11.22304 -11.22223 -11.22206 -11.21777 -11.21585
 Alpha  occ. eigenvalues --   -1.59869  -1.39422  -1.19410  -1.09257  -1.08791
 Alpha  occ. eigenvalues --   -1.04826  -1.04210  -0.96690  -0.95629  -0.87701
 Alpha  occ. eigenvalues --   -0.86212  -0.82468  -0.80279  -0.79058  -0.77517
 Alpha  occ. eigenvalues --   -0.72066  -0.71192  -0.70515  -0.66187  -0.65060
 Alpha  occ. eigenvalues --   -0.64642  -0.62205  -0.61520  -0.60040  -0.58285
 Alpha  occ. eigenvalues --   -0.56062  -0.55277  -0.53331  -0.53176  -0.53045
 Alpha  occ. eigenvalues --   -0.52882  -0.50619  -0.48825  -0.48820  -0.48583
 Alpha  occ. eigenvalues --   -0.47338  -0.46571  -0.46554  -0.44822  -0.44513
 Alpha  occ. eigenvalues --   -0.37368  -0.36360
 Alpha virt. eigenvalues --    0.04988   0.11170   0.16362   0.18637   0.22706
 Alpha virt. eigenvalues --    0.23744   0.25027   0.25435   0.26592   0.28707
 Alpha virt. eigenvalues --    0.29597   0.30986   0.31445   0.31565   0.32056

 Mulliken charges:
               1
     1  C   -0.299672
     2  C   -0.299727
     3  C   -0.476160
     4  H    0.143425
     5  H    0.155958
     6  H    0.148525
     7  H    0.154620
     8  H    0.157775
     9  H    0.155960
    10  H    0.162489
    11  C   -0.302908
    12  C   -0.305384
    13  C   -0.473679
    14  H    0.137592
    15  H    0.155849
    16  H    0.156326
    17  H    0.156762
    18  H    0.156825
    19  H    0.146049
    20  H    0.164851
    21  C   -0.173291
    22  C   -0.218492
    23  C   -0.171100
    24  C    0.159291
    25  C   -0.174325
    26  C   -0.220903
    27  H    0.225836
    28  H    0.223861
    29  H    0.275818
    30  H    0.275973
    31  H    0.234289
    32  N    0.488032
    33  O   -0.460201
    34  O   -0.460263
 Sum of Mulliken charges =  -0.00000

 Dipole moment (field-independent basis, Debye):
    X=             -2.9219    Y=              3.6662    Z=             -2.2559  Tot=              5.2026
 Quadrupole moment (field-independent basis, Debye-Ang):
   XX=           -105.5166   YY=            -96.8105   ZZ=            -94.3911
   XY=             13.3421   XZ=             -7.2184   YZ=              0.1213

 Normal termination of Gaussian 16 at Wed May  5 20:27:00 2021.
