 Gaussian 16, Revision A.03,
 Gaussian 16:  EM64L-G16RevA.03 25-Dec-2016

 -------------
 #p 6-31g* mp2
 -------------

 ------------------------------------------------------
 Input file generated by CHIRIPA (05-May-2021 14:51:08)
 ------------------------------------------------------
 Symbolic Z-matrix:
 Charge =  0 Multiplicity = 1

                         Standard orientation:
 ---------------------------------------------------------------------
 Center     Atomic      Atomic             Coordinates (Angstroms)
 Number     Number       Type             X           Y           Z
 ---------------------------------------------------------------------
      1          6           0       -4.166043   -0.171292   -0.133692
      2          6           0       -3.827675   -1.553161    0.426602
      3          6           0       -4.850115   -2.618512    0.029818
      4          1           0       -5.163178    0.126145    0.218726
      5          1           0       -4.227031   -0.232340   -1.229113
      6          1           0       -3.765981   -1.489226    1.520550
      7          1           0       -2.831150   -1.847260    0.072965
      8          1           0       -4.906486   -2.711565   -1.059569
      9          1           0       -5.846628   -2.351497    0.396241
     10          1           0       -4.588823   -3.598587    0.440961
     11          6           0       -3.153132    0.904414    0.254377
     12          6           0       -3.491501    2.286284   -0.305917
     13          6           0       -2.469060    3.351634    0.090867
     14          1           0       -3.092144    0.965463    1.349798
     15          1           0       -2.155998    0.606977   -0.098041
     16          1           0       -4.488026    2.580382    0.047720
     17          1           0       -3.553195    2.222349   -1.399865
     18          1           0       -1.472547    3.084619   -0.275556
     19          1           0       -2.412690    3.444687    1.180254
     20          1           0       -2.730352    4.331710   -0.320276
     21          6           0        4.205163    0.162410    0.016913
     22          6           0        5.616575   -0.424101    0.060585
     23          6           0        6.697109    0.646536    0.215430
     24          1           0        4.137400    0.876783   -0.814967
     25          1           0        4.025293    0.735860    0.936802
     26          1           0        5.793232   -0.997424   -0.858495
     27          1           0        5.680930   -1.137304    0.892340
     28          1           0        6.548809    1.212535    1.140769
     29          1           0        6.661749    1.353209   -0.620013
     30          1           0        7.698262    0.205275    0.244391
     31          6           0        3.114012   -0.895533   -0.137598
     32          6           0        1.702601   -0.309021   -0.181270
     33          6           0        0.622067   -1.379659   -0.336114
     34          1           0        3.293883   -1.468982   -1.057487
     35          1           0        3.181775   -1.609906    0.694282
     36          1           0        1.638245    0.404182   -1.013025
     37          1           0        1.525943    0.264303    0.737810
     38          1           0        0.657426   -2.086332    0.499329
     39          1           0        0.770367   -1.945657   -1.261454
     40          1           0       -0.379086   -0.938397   -0.365076
 ---------------------------------------------------------------------

 SCF Done:  E(RHF) =  -470.733141536     A.U. after   11 cycles
 E2 =    -0.1583025911D+01 EUMP2 =    -0.47231616744713D+03

 The electronic state is 1-A.
 Alpha  occ. eigenvalues --  -11.21631 -11.21609 -11.21600 -11.21557 -11.21419
 Alpha  occ. eigenvalues --  -11.21399 -11.21359 -11.21338 -11.21084 -11.21075
 Alpha  occ. eigenvalues --  -11.21064 -11.21040  -1.08451  -1.08419  -1.03548
 Alpha  occ. eigenvalues --   -1.03511  -0.96008  -0.95957  -0.87019  -0.86980
 Alpha  occ. eigenvalues --   -0.79624  -0.79565  -0.78259  -0.78240  -0.65082
 Alpha  occ. eigenvalues --   -0.65072  -0.60942  -0.60908  -0.59397  -0.59321
 Alpha  occ. eigenvalues --   -0.57682  -0.57516  -0.55279  -0.55256  -0.52782
 Alpha  occ. eigenvalues --   -0.52608  -0.52464  -0.52344  -0.49937  -0.49906
 Alpha  occ. eigenvalues --   -0.47948  -0.47893  -0.46646  -0.46607  -0.45801
 Alpha  occ. eigenvalues --   -0.45764  -0.45723  -0.45691  -0.43793  -0.43699
 Alpha virt. eigenvalues --    0.21169   0.23050   0.24016   0.24170   0.25916
 Alpha virt. eigenvalues --    0.26639   0.27070   0.27394   0.27939   0.29117
 Alpha virt. eigenvalues --    0.30551   0.31410   0.31703   0.31901   0.32297

 Mulliken charges:
               1
     1  C   -0.297807
     2  C   -0.304414
     3  C   -0.475492
     4  H    0.149689
     5  H    0.149210
     6  H    0.151665
     7  H    0.157205
     8  H    0.155113
     9  H    0.154978
    10  H    0.160318
    11  C   -0.306252
    12  C   -0.298995
    13  C   -0.475892
    14  H    0.149581
    15  H    0.156482
    16  H    0.152047
    17  H    0.151821
    18  H    0.155532
    19  H    0.155120
    20  H    0.160219
    21  C   -0.298276
    22  C   -0.299662
    23  C   -0.475719
    24  H    0.149624
    25  H    0.149701
    26  H    0.151910
    27  H    0.151980
    28  H    0.155249
    29  H    0.155192
    30  H    0.160275
    31  C   -0.298435
    32  C   -0.299394
    33  C   -0.486222
    34  H    0.149534
    35  H    0.149842
    36  H    0.151264
    37  H    0.152715
    38  H    0.155918
    39  H    0.155036
    40  H    0.169341
 Sum of Mulliken charges =  -0.00000

 Dipole moment (field-independent basis, Debye):
    X=              0.0113    Y=             -0.0014    Z=              0.0077  Tot=              0.0138
 Quadrupole moment (field-independent basis, Debye-Ang):
   XX=            -85.7708   YY=            -85.9612   ZZ=            -83.0653
   XY=             -1.2627   XZ=             -0.7462   YZ=             -0.1641

 Normal termination of Gaussian 16 at Wed May  5 18:06:47 2021.
