 Gaussian 16, Revision A.03,
 Gaussian 16:  EM64L-G16RevA.03 25-Dec-2016

 -------------
 #p 6-31g* mp2
 -------------

 ------------------------------------------------------
 Input file generated by CHIRIPA (05-May-2021 14:57:27)
 ------------------------------------------------------
 Symbolic Z-matrix:
 Charge =  0 Multiplicity = 1

                         Standard orientation:
 ---------------------------------------------------------------------
 Center     Atomic      Atomic             Coordinates (Angstroms)
 Number     Number       Type             X           Y           Z
 ---------------------------------------------------------------------
      1          6           0        5.988948    0.165372    0.993498
      2          6           0        5.132027    1.259636    0.836029
      3          6           0        3.855284    1.089180    0.292506
      4          6           0        3.466234   -0.195254   -0.084535
      5          6           0        4.297059   -1.305305    0.059713
      6          6           0        5.569468   -1.111355    0.605521
      7          1           0        6.979069    0.306912    1.416607
      8          1           0        5.455129    2.252306    1.136457
      9          1           0        3.171637    1.918843    0.159445
     10          1           0        3.946821   -2.282764   -0.249036
     11          1           0        6.232841   -1.963006    0.726644
     12          7           0        2.116897   -0.388144   -0.661149
     13          8           0        1.797914   -1.529934   -0.985498
     14          8           0        1.403820    0.606111   -0.777831
     15          6           0       -5.514873   -1.148501    1.133827
     16          6           0       -5.290386    0.187821    1.480774
     17          6           0       -4.281283    0.924396    0.853304
     18          6           0       -3.512066    0.290300   -0.121126
     19          6           0       -3.711318   -1.039538   -0.488717
     20          6           0       -4.726013   -1.756842    0.151919
     21          1           0       -6.300942   -1.713205    1.626374
     22          1           0       -5.901477    0.662855    2.242978
     23          1           0       -4.085955    1.960319    1.102559
     24          1           0       -3.085836   -1.485797   -1.252289
     25          1           0       -4.898096   -2.794501   -0.119551
     26          7           0       -2.440814    1.059878   -0.792370
     27          8           0       -1.776908    0.478208   -1.647664
     28          8           0       -2.285357    2.230171   -0.450487
 ---------------------------------------------------------------------

 SCF Done:  E(RHF) =  -868.335153704     A.U. after   16 cycles
 E2 =    -0.2600441360D+01 EUMP2 =    -0.87093559506321D+03

 The electronic state is 1-A.
 Alpha  occ. eigenvalues --  -20.59854 -20.59766 -20.59434 -20.59275 -15.84878
 Alpha  occ. eigenvalues --  -15.84415 -11.30550 -11.30192 -11.27184 -11.27124
 Alpha  occ. eigenvalues --  -11.26971 -11.26848 -11.26768 -11.26660 -11.26262
 Alpha  occ. eigenvalues --  -11.26227 -11.25955 -11.25909  -1.58892  -1.58412
 Alpha  occ. eigenvalues --   -1.38437  -1.37960  -1.18757  -1.18410  -1.08097
 Alpha  occ. eigenvalues --   -1.07733  -1.04204  -1.03874  -0.94876  -0.94494
 Alpha  occ. eigenvalues --   -0.85588  -0.85255  -0.81703  -0.81329  -0.76700
 Alpha  occ. eigenvalues --   -0.76300  -0.71103  -0.70612  -0.70255  -0.69865
 Alpha  occ. eigenvalues --   -0.69729  -0.69524  -0.64400  -0.64211  -0.64055
 Alpha  occ. eigenvalues --   -0.63888  -0.61544  -0.61214  -0.54702  -0.54380
 Alpha  occ. eigenvalues --   -0.52522  -0.52300  -0.52185  -0.51975  -0.47953
 Alpha  occ. eigenvalues --   -0.47848  -0.47393  -0.47242  -0.43787  -0.43229
 Alpha  occ. eigenvalues --   -0.36763  -0.36422  -0.35824  -0.35497
 Alpha virt. eigenvalues --    0.05833   0.06252   0.11825   0.12151   0.17267
 Alpha virt. eigenvalues --    0.17660   0.21926   0.22213   0.27817   0.28097
 Alpha virt. eigenvalues --    0.28856   0.29158   0.31453   0.31725   0.33136

 Mulliken charges:
               1
     1  C   -0.171901
     2  C   -0.218761
     3  C   -0.171787
     4  C    0.158502
     5  C   -0.171910
     6  C   -0.218667
     7  H    0.223254
     8  H    0.222241
     9  H    0.279288
    10  H    0.273666
    11  H    0.220891
    12  N    0.485638
    13  O   -0.466087
    14  O   -0.444299
    15  C   -0.172399
    16  C   -0.218863
    17  C   -0.172231
    18  C    0.159538
    19  C   -0.170383
    20  C   -0.218991
    21  H    0.221807
    22  H    0.219575
    23  H    0.273166
    24  H    0.280076
    25  H    0.221104
    26  N    0.487876
    27  O   -0.442426
    28  O   -0.467917
 Sum of Mulliken charges =  -0.00000

 Dipole moment (field-independent basis, Debye):
    X=              1.0708    Y=             -1.9444    Z=              4.1496  Tot=              4.7060
 Quadrupole moment (field-independent basis, Debye-Ang):
   XX=            -49.1029   YY=            -99.2973   ZZ=           -105.5858
   XY=              8.3244   XZ=             -1.7227   YZ=              3.6286

 Normal termination of Gaussian 16 at Thu May  6 22:58:01 2021.
