 Gaussian 16, Revision A.03,
 Gaussian 16:  EM64L-G16RevA.03 25-Dec-2016

 -------------
 #p 6-31g* mp2
 -------------

 ------------------------------------------------------
 Input file generated by CHIRIPA (05-May-2021 14:55:20)
 ------------------------------------------------------
 Symbolic Z-matrix:
 Charge =  0 Multiplicity = 1

                         Standard orientation:
 ---------------------------------------------------------------------
 Center     Atomic      Atomic             Coordinates (Angstroms)
 Number     Number       Type             X           Y           Z
 ---------------------------------------------------------------------
      1          6           0        2.802184   -2.547099    0.865266
      2          6           0        3.628882   -2.106747   -0.173570
      3          6           0        3.507773   -0.807412   -0.675177
      4          6           0        2.544988    0.028761   -0.112017
      5          6           0        1.706571   -0.380639    0.923714
      6          6           0        1.845354   -1.684161    1.409633
      7          1           0        2.903129   -3.558080    1.248833
      8          1           0        4.372845   -2.774733   -0.598255
      9          1           0        4.134755   -0.440622   -1.478779
     10          1           0        0.974183    0.308237    1.326797
     11          1           0        1.201964   -2.023432    2.216472
     12          7           0        2.407420    1.406525   -0.634741
     13          8           0        1.551412    2.123782   -0.121488
     14          8           0        3.158208    1.743072   -1.547808
     15          6           0       -3.255339    0.981197    0.264198
     16          6           0       -1.831888    1.472452    0.529603
     17          6           0       -1.785750    2.929366    0.991196
     18          1           0       -3.722242    1.622963   -0.495461
     19          1           0       -3.852003    1.095789    1.179762
     20          1           0       -1.237718    1.355681   -0.385788
     21          1           0       -1.368253    0.829324    1.288580
     22          1           0       -2.354796    3.058172    1.917586
     23          1           0       -2.223520    3.587518    0.233703
     24          1           0       -0.758728    3.259881    1.175165
     25          6           0       -3.317872   -0.473522   -0.197983
     26          6           0       -4.741324   -0.964776   -0.463388
     27          6           0       -4.787461   -2.421690   -0.924980
     28          1           0       -2.721209   -0.588114   -1.113545
     29          1           0       -2.850970   -1.115288    0.561677
     30          1           0       -5.204959   -0.321649   -1.222364
     31          1           0       -5.335494   -0.848004    0.452005
     32          1           0       -4.349693   -3.079842   -0.167487
     33          1           0       -4.218416   -2.550497   -1.851370
     34          1           0       -5.814484   -2.752205   -1.108948
 ---------------------------------------------------------------------

 SCF Done:  E(RHF) =  -669.535456861     A.U. after   15 cycles
 E2 =    -0.2092852092D+01 EUMP2 =    -0.67162830895344D+03

 The electronic state is 1-A.
 Alpha  occ. eigenvalues --  -20.60905 -20.60899 -15.85932 -11.31206 -11.27787
 Alpha  occ. eigenvalues --  -11.27728 -11.27521 -11.26783 -11.26765 -11.21550
 Alpha  occ. eigenvalues --  -11.21295 -11.21143 -11.21099 -11.21060 -11.20202
 Alpha  occ. eigenvalues --   -1.59966  -1.39524  -1.19382  -1.08797  -1.08204
 Alpha  occ. eigenvalues --   -1.04774  -1.03216  -0.95715  -0.95576  -0.86670
 Alpha  occ. eigenvalues --   -0.86177  -0.82485  -0.79337  -0.78092  -0.77470
 Alpha  occ. eigenvalues --   -0.72174  -0.71277  -0.70501  -0.65052  -0.64871
 Alpha  occ. eigenvalues --   -0.64754  -0.62148  -0.60617  -0.59021  -0.57213
 Alpha  occ. eigenvalues --   -0.55291  -0.54954  -0.53109  -0.52876  -0.52289
 Alpha  occ. eigenvalues --   -0.52064  -0.49621  -0.48926  -0.48903  -0.47608
 Alpha  occ. eigenvalues --   -0.46392  -0.45599  -0.45539  -0.44775  -0.43456
 Alpha  occ. eigenvalues --   -0.37366  -0.36364
 Alpha virt. eigenvalues --    0.04967   0.11259   0.16441   0.20809   0.23100
 Alpha virt. eigenvalues --    0.24327   0.25948   0.27196   0.27608   0.28172
 Alpha virt. eigenvalues --    0.29196   0.30747   0.31531   0.31863   0.32295

 Mulliken charges:
               1
     1  C   -0.170211
     2  C   -0.219029
     3  C   -0.170377
     4  C    0.155248
     5  C   -0.172728
     6  C   -0.221116
     7  H    0.225717
     8  H    0.223451
     9  H    0.275428
    10  H    0.285961
    11  H    0.223393
    12  N    0.492735
    13  O   -0.465116
    14  O   -0.459225
    15  C   -0.298024
    16  C   -0.297587
    17  C   -0.480517
    18  H    0.151610
    19  H    0.147093
    20  H    0.163557
    21  H    0.132468
    22  H    0.146904
    23  H    0.155464
    24  H    0.180563
    25  C   -0.297026
    26  C   -0.299281
    27  C   -0.475318
    28  H    0.150262
    29  H    0.142960
    30  H    0.153377
    31  H    0.151370
    32  H    0.152439
    33  H    0.155321
    34  H    0.160231
 Sum of Mulliken charges =  -0.00000

 Dipole moment (field-independent basis, Debye):
    X=              0.6439    Y=             -4.7022    Z=              1.7254  Tot=              5.0500
 Quadrupole moment (field-independent basis, Debye-Ang):
   XX=            -90.4435   YY=            -96.1562   ZZ=            -92.8386
   XY=            -13.5220   XZ=              2.0383   YZ=              0.4102

 Normal termination of Gaussian 16 at Thu May  6 07:44:44 2021.
