 Gaussian 16, Revision A.03,
 Gaussian 16:  EM64L-G16RevA.03 25-Dec-2016

 -------------
 #p 6-31g* mp2
 -------------

 ------------------------------------------------------
 Input file generated by CHIRIPA (05-May-2021 14:51:11)
 ------------------------------------------------------
 Symbolic Z-matrix:
 Charge =  0 Multiplicity = 1

                         Standard orientation:
 ---------------------------------------------------------------------
 Center     Atomic      Atomic             Coordinates (Angstroms)
 Number     Number       Type             X           Y           Z
 ---------------------------------------------------------------------
      1          6           0        4.281931    0.380696    0.190956
      2          6           0        5.539761   -0.206315   -0.450346
      3          6           0        6.778072    0.662003   -0.225844
      4          1           0        4.105449    1.385759   -0.216042
      5          1           0        4.452702    0.505654    1.269203
      6          1           0        5.366180   -0.331419   -1.526838
      7          1           0        5.713161   -1.210175   -0.041916
      8          1           0        6.979099    0.777010    0.844186
      9          1           0        6.630146    1.660758   -0.649173
     10          1           0        7.665714    0.223740   -0.692617
     11          6           0        3.035658   -0.476025   -0.024823
     12          6           0        1.777828    0.110986    0.616479
     13          6           0        0.539516   -0.757333    0.391976
     14          1           0        2.864887   -0.600983   -1.103071
     15          1           0        3.212140   -1.481088    0.382174
     16          1           0        1.604427    1.114845    0.208049
     17          1           0        1.951409    0.236090    1.692970
     18          1           0        0.687443   -1.756087    0.815306
     19          1           0        0.338490   -0.872339   -0.678053
     20          1           0       -0.348126   -0.319070    0.858749
     21          6           0       -3.956123   -0.649047   -0.181149
     22          6           0       -2.948501   -1.776084    0.047917
     23          6           0       -3.558265   -3.163891   -0.152018
     24          1           0       -4.805213   -0.780154    0.503540
     25          1           0       -4.360559   -0.729603   -1.199648
     26          1           0       -2.545060   -1.692604    1.065208
     27          1           0       -2.101620   -1.642171   -0.637265
     28          1           0       -3.944509   -3.271850   -1.170725
     29          1           0       -4.390468   -3.322570    0.541423
     30          1           0       -2.820599   -3.954613    0.016697
     31          6           0       -3.361466    0.744376    0.015017
     32          6           0       -4.369087    1.871414   -0.214050
     33          6           0       -3.759323    3.259221   -0.014114
     34          1           0       -2.957031    0.824932    1.033515
     35          1           0       -2.512375    0.875484   -0.669673
     36          1           0       -5.215969    1.737500    0.471133
     37          1           0       -4.772529    1.787933   -1.231341
     38          1           0       -2.927120    3.417899   -0.707556
     39          1           0       -3.373080    3.367180    1.004592
     40          1           0       -4.496991    4.049943   -0.182829
 ---------------------------------------------------------------------

 SCF Done:  E(RHF) =  -470.732133550     A.U. after   11 cycles
 E2 =    -0.1583632305D+01 EUMP2 =    -0.47231576585453D+03

 The electronic state is 1-A.
 Alpha  occ. eigenvalues --  -11.21595 -11.21585 -11.21526 -11.21437 -11.21379
 Alpha  occ. eigenvalues --  -11.21374 -11.21314 -11.21303 -11.21073 -11.21059
 Alpha  occ. eigenvalues --  -11.20983 -11.20944  -1.08420  -1.08370  -1.03528
 Alpha  occ. eigenvalues --   -1.03442  -0.95945  -0.95938  -0.87027  -0.86902
 Alpha  occ. eigenvalues --   -0.79732  -0.79413  -0.78273  -0.78111  -0.65071
 Alpha  occ. eigenvalues --   -0.64987  -0.60953  -0.60821  -0.59460  -0.59171
 Alpha  occ. eigenvalues --   -0.57643  -0.57460  -0.55245  -0.55222  -0.52846
 Alpha  occ. eigenvalues --   -0.52506  -0.52383  -0.52306  -0.49954  -0.49834
 Alpha  occ. eigenvalues --   -0.47968  -0.47773  -0.46705  -0.46480  -0.45842
 Alpha  occ. eigenvalues --   -0.45722  -0.45701  -0.45519  -0.43773  -0.43575
 Alpha virt. eigenvalues --    0.21908   0.23112   0.23994   0.24324   0.25579
 Alpha virt. eigenvalues --    0.26229   0.26801   0.27536   0.27913   0.29657
 Alpha virt. eigenvalues --    0.30383   0.31244   0.31582   0.31941   0.32204

 Mulliken charges:
               1
     1  C   -0.298125
     2  C   -0.299561
     3  C   -0.475671
     4  H    0.149531
     5  H    0.149446
     6  H    0.151792
     7  H    0.151871
     8  H    0.155155
     9  H    0.155138
    10  H    0.160169
    11  C   -0.298426
    12  C   -0.300914
    13  C   -0.477830
    14  H    0.149094
    15  H    0.149433
    16  H    0.151563
    17  H    0.151315
    18  H    0.154249
    19  H    0.153069
    20  H    0.168151
    21  C   -0.297718
    22  C   -0.303829
    23  C   -0.475325
    24  H    0.149007
    25  H    0.148933
    26  H    0.152225
    27  H    0.159488
    28  H    0.154429
    29  H    0.154379
    30  H    0.159985
    31  C   -0.300393
    32  C   -0.299494
    33  C   -0.475656
    34  H    0.148866
    35  H    0.151366
    36  H    0.151964
    37  H    0.151961
    38  H    0.155011
    39  H    0.155087
    40  H    0.160263
 Sum of Mulliken charges =  -0.00000

 Dipole moment (field-independent basis, Debye):
    X=             -0.0117    Y=             -0.0006    Z=             -0.0005  Tot=              0.0118
 Quadrupole moment (field-independent basis, Debye-Ang):
   XX=            -86.0357   YY=            -86.0314   ZZ=            -83.0513
   XY=             -0.9800   XZ=             -0.1777   YZ=             -0.6487

 Normal termination of Gaussian 16 at Wed May  5 19:50:57 2021.
