 Gaussian 16, Revision A.03,
 Gaussian 16:  EM64L-G16RevA.03 25-Dec-2016

 -------------
 #p 6-31g* mp2
 -------------

 ------------------------------------------------------
 Input file generated by CHIRIPA (05-May-2021 14:55:22)
 ------------------------------------------------------
 Symbolic Z-matrix:
 Charge =  0 Multiplicity = 1

                         Standard orientation:
 ---------------------------------------------------------------------
 Center     Atomic      Atomic             Coordinates (Angstroms)
 Number     Number       Type             X           Y           Z
 ---------------------------------------------------------------------
      1          6           0        1.903134    1.918250    0.627889
      2          6           0        1.656447    1.161142   -0.522091
      3          6           0        2.464293    0.064421   -0.836949
      4          6           0        3.514903   -0.248343    0.024263
      5          6           0        3.786132    0.486562    1.177363
      6          6           0        2.965316    1.579141    1.472457
      7          1           0        1.270542    2.768601    0.864802
      8          1           0        0.832252    1.422177   -1.179820
      9          1           0        2.295771   -0.538842   -1.720744
     10          1           0        4.615204    0.201889    1.813774
     11          1           0        3.159250    2.165325    2.366226
     12          7           0        4.376998   -1.407201   -0.298601
     13          8           0        5.296277   -1.662096    0.476377
     14          8           0        4.117105   -2.038675   -1.320528
     15          6           0       -3.889754    0.419402   -0.629265
     16          6           0       -3.097761    1.609814   -0.087367
     17          6           0       -2.247481    2.291596   -1.159742
     18          1           0       -3.192278   -0.309385   -1.064400
     19          1           0       -4.536676    0.760981   -1.449149
     20          1           0       -2.453546    1.266352    0.732168
     21          1           0       -3.797189    2.335764    0.346700
     22          1           0       -2.878620    2.661528   -1.974245
     23          1           0       -1.527344    1.586041   -1.586586
     24          1           0       -1.689749    3.139800   -0.750664
     25          6           0       -4.744662   -0.272587    0.430928
     26          6           0       -5.536655   -1.462998   -0.110970
     27          6           0       -6.386936   -2.144781    0.961405
     28          1           0       -4.097739   -0.614166    1.250812
     29          1           0       -5.442138    0.456200    0.866062
     30          1           0       -4.837228   -2.188948   -0.545037
     31          1           0       -6.180870   -1.119536   -0.930505
     32          1           0       -7.107072   -1.439225    1.388249
     33          1           0       -5.755796   -2.514713    1.775907
     34          1           0       -6.944668   -2.992984    0.552326
 ---------------------------------------------------------------------

 SCF Done:  E(RHF) =  -669.535523379     A.U. after   15 cycles
 E2 =    -0.2091027342D+01 EUMP2 =    -0.67162655072140D+03

 The electronic state is 1-A.
 Alpha  occ. eigenvalues --  -20.60741 -20.60736 -15.85793 -11.31151 -11.27719
 Alpha  occ. eigenvalues --  -11.27706 -11.27451 -11.26735 -11.26675 -11.22471
 Alpha  occ. eigenvalues --  -11.22267 -11.22033 -11.21972 -11.21856 -11.21361
 Alpha  occ. eigenvalues --   -1.59816  -1.39370  -1.19319  -1.09045  -1.08714
 Alpha  occ. eigenvalues --   -1.04721  -1.04188  -0.96658  -0.95551  -0.87684
 Alpha  occ. eigenvalues --   -0.86114  -0.82385  -0.80263  -0.78808  -0.77435
 Alpha  occ. eigenvalues --   -0.72012  -0.71139  -0.70427  -0.65694  -0.64969
 Alpha  occ. eigenvalues --   -0.64734  -0.62137  -0.61519  -0.60061  -0.58242
 Alpha  occ. eigenvalues --   -0.55965  -0.55209  -0.53389  -0.53111  -0.53049
 Alpha  occ. eigenvalues --   -0.52765  -0.50569  -0.48771  -0.48767  -0.48565
 Alpha  occ. eigenvalues --   -0.47271  -0.46362  -0.46252  -0.44777  -0.44424
 Alpha  occ. eigenvalues --   -0.37299  -0.36323
 Alpha virt. eigenvalues --    0.05096   0.11293   0.16582   0.19747   0.22629
 Alpha virt. eigenvalues --    0.23942   0.25409   0.26321   0.26526   0.27590
 Alpha virt. eigenvalues --    0.29233   0.29681   0.31213   0.31554   0.32499

 Mulliken charges:
               1
     1  C   -0.173468
     2  C   -0.223912
     3  C   -0.172778
     4  C    0.158846
     5  C   -0.171282
     6  C   -0.218523
     7  H    0.226110
     8  H    0.232723
     9  H    0.275437
    10  H    0.275403
    11  H    0.223197
    12  N    0.488052
    13  O   -0.460592
    14  O   -0.460571
    15  C   -0.299010
    16  C   -0.300090
    17  C   -0.480427
    18  H    0.150520
    19  H    0.151176
    20  H    0.152117
    21  H    0.154915
    22  H    0.162128
    23  H    0.150652
    24  H    0.154938
    25  C   -0.298966
    26  C   -0.300299
    27  C   -0.476113
    28  H    0.150620
    29  H    0.150226
    30  H    0.153326
    31  H    0.152461
    32  H    0.155301
    33  H    0.156023
    34  H    0.161861
 Sum of Mulliken charges =  -0.00000

 Dipole moment (field-independent basis, Debye):
    X=             -3.2582    Y=              4.0598    Z=              1.1513  Tot=              5.3314
 Quadrupole moment (field-independent basis, Debye-Ang):
   XX=           -114.3394   YY=            -97.3132   ZZ=            -91.9479
   XY=             14.8698   XZ=              7.2123   YZ=              0.9292

 Normal termination of Gaussian 16 at Thu May  6 17:32:02 2021.
