 Gaussian 16, Revision A.03,
 Gaussian 16:  EM64L-G16RevA.03 25-Dec-2016

 -------------
 #p 6-31g* mp2
 -------------

 ------------------------------------------------------
 Input file generated by CHIRIPA (05-May-2021 14:53:13)
 ------------------------------------------------------
 Symbolic Z-matrix:
 Charge =  0 Multiplicity = 1

                         Standard orientation:
 ---------------------------------------------------------------------
 Center     Atomic      Atomic             Coordinates (Angstroms)
 Number     Number       Type             X           Y           Z
 ---------------------------------------------------------------------
      1          6           0       -3.135281   -0.703274   -0.209489
      2          6           0       -3.834383   -1.322219    1.001357
      3          6           0       -3.794547   -2.850640    0.989579
      4          1           0       -3.607857   -1.076736   -1.128261
      5          1           0       -2.090794   -1.043583   -0.234648
      6          1           0       -4.876864   -0.979744    1.025002
      7          1           0       -3.360211   -0.947092    1.917357
      8          1           0       -2.760073   -3.209059    0.989989
      9          1           0       -4.285343   -3.241897    0.092564
     10          1           0       -4.299988   -3.272165    1.864054
     11          6           0       -3.166723    0.824055   -0.211937
     12          6           0       -2.467621    1.443001   -1.422783
     13          6           0       -2.507457    2.971421   -1.411005
     14          1           0       -4.211209    1.164365   -0.186778
     15          1           0       -2.694147    1.197518    0.706835
     16          1           0       -2.941792    1.067873   -2.338783
     17          1           0       -1.425140    1.100526   -1.446428
     18          1           0       -2.016661    3.362679   -0.513990
     19          1           0       -3.541931    3.329841   -1.411415
     20          1           0       -2.002016    3.392946   -2.285480
     21          6           0        1.600959    1.368940    2.067149
     22          6           0        2.971845    1.119543    1.944693
     23          6           0        3.459998    0.336315    0.894547
     24          6           0        2.544935   -0.184085   -0.019310
     25          6           0        1.173408    0.046489    0.075753
     26          6           0        0.707690    0.832562    1.133934
     27          1           0        1.230465    1.978475    2.886048
     28          1           0        3.667888    1.534807    2.667967
     29          1           0        4.516279    0.127443    0.775973
     30          1           0        0.503996   -0.381115   -0.660766
     31          1           0       -0.357482    1.024590    1.226542
     32          7           0        3.049845   -1.014760   -1.135305
     33          8           0        2.223041   -1.461710   -1.927308
     34          8           0        4.262836   -1.203165   -1.196888
 ---------------------------------------------------------------------

 SCF Done:  E(RHF) =  -669.534914385     A.U. after   15 cycles
 E2 =    -0.2093320562D+01 EUMP2 =    -0.67162823494672D+03

 The electronic state is 1-A.
 Alpha  occ. eigenvalues --  -20.60767 -20.60761 -15.85819 -11.31190 -11.27763
 Alpha  occ. eigenvalues --  -11.27745 -11.27500 -11.26782 -11.26744 -11.22356
 Alpha  occ. eigenvalues --  -11.22280 -11.22203 -11.22113 -11.21698 -11.21448
 Alpha  occ. eigenvalues --   -1.59841  -1.39394  -1.19365  -1.09198  -1.08756
 Alpha  occ. eigenvalues --   -1.04774  -1.04158  -0.96608  -0.95593  -0.87617
 Alpha  occ. eigenvalues --   -0.86169  -0.82430  -0.80232  -0.79009  -0.77482
 Alpha  occ. eigenvalues --   -0.72037  -0.71164  -0.70487  -0.65993  -0.65004
 Alpha  occ. eigenvalues --   -0.64733  -0.62155  -0.61467  -0.59966  -0.58211
 Alpha  occ. eigenvalues --   -0.55924  -0.55258  -0.53257  -0.53109  -0.53016
 Alpha  occ. eigenvalues --   -0.52862  -0.50549  -0.48800  -0.48794  -0.48527
 Alpha  occ. eigenvalues --   -0.47288  -0.46506  -0.46460  -0.44798  -0.44453
 Alpha  occ. eigenvalues --   -0.37344  -0.36360
 Alpha virt. eigenvalues --    0.05024   0.11251   0.16453   0.18322   0.23135
 Alpha virt. eigenvalues --    0.23710   0.24119   0.25331   0.27243   0.28624
 Alpha virt. eigenvalues --    0.30460   0.30665   0.31216   0.31464   0.31899

 Mulliken charges:
               1
     1  C   -0.302253
     2  C   -0.299253
     3  C   -0.476543
     4  H    0.156535
     5  H    0.146581
     6  H    0.154098
     7  H    0.148179
     8  H    0.157748
     9  H    0.157911
    10  H    0.161670
    11  C   -0.303274
    12  C   -0.304953
    13  C   -0.474937
    14  H    0.155926
    15  H    0.139793
    16  H    0.159103
    17  H    0.149949
    18  H    0.150709
    19  H    0.157517
    20  H    0.165446
    21  C   -0.172685
    22  C   -0.218417
    23  C   -0.170743
    24  C    0.160320
    25  C   -0.180980
    26  C   -0.224857
    27  H    0.226078
    28  H    0.223542
    29  H    0.275645
    30  H    0.280847
    31  H    0.233869
    32  N    0.488171
    33  O   -0.460275
    34  O   -0.460470
 Sum of Mulliken charges =  -0.00000

 Dipole moment (field-independent basis, Debye):
    X=             -1.9458    Y=              2.8858    Z=              3.8274  Tot=              5.1733
 Quadrupole moment (field-independent basis, Debye-Ang):
   XX=            -97.8880   YY=            -97.4618   ZZ=            -94.5198
   XY=              8.6111   XZ=             12.8106   YZ=             -0.4973

 Normal termination of Gaussian 16 at Thu May  6 02:35:44 2021.
