 Gaussian 16, Revision A.03,
 Gaussian 16:  EM64L-G16RevA.03 25-Dec-2016

 -------------
 #p 6-31g* mp2
 -------------

 ------------------------------------------------------
 Input file generated by CHIRIPA (05-May-2021 14:53:16)
 ------------------------------------------------------
 Symbolic Z-matrix:
 Charge =  0 Multiplicity = 1

                         Standard orientation:
 ---------------------------------------------------------------------
 Center     Atomic      Atomic             Coordinates (Angstroms)
 Number     Number       Type             X           Y           Z
 ---------------------------------------------------------------------
      1          6           0        3.366662   -0.117082    0.240387
      2          6           0        3.684930   -1.590652   -0.015117
      3          6           0        4.344480   -2.269789    1.185533
      4          1           0        4.293928    0.412220    0.499157
      5          1           0        2.706982   -0.038048    1.115585
      6          1           0        4.342696   -1.666978   -0.890408
      7          1           0        2.756828   -2.116468   -0.273496
      8          1           0        3.690040   -2.223205    2.061969
      9          1           0        5.284920   -1.771161    1.441552
     10          1           0        4.563331   -3.322488    0.981113
     11          6           0        2.706984    0.575588   -0.950731
     12          6           0        2.388716    2.049158   -0.695227
     13          6           0        1.729165    2.728295   -1.895877
     14          1           0        3.366663    0.496554   -1.825929
     15          1           0        1.779717    0.046286   -1.209501
     16          1           0        3.316818    2.574974   -0.436848
     17          1           0        1.730949    2.125483    0.180064
     18          1           0        0.788726    2.229667   -2.151896
     19          1           0        2.383605    2.681711   -2.772313
     20          1           0        1.510314    3.780994   -1.691457
     21          6           0       -1.402269    1.374498    2.012662
     22          6           0       -0.613263    0.358549    1.463263
     23          6           0       -1.140377   -0.508074    0.501149
     24          6           0       -2.466318   -0.329300    0.109727
     25          6           0       -3.277731    0.673355    0.638481
     26          6           0       -2.729645    1.528386    1.599246
     27          1           0       -0.984647    2.043208    2.759531
     28          1           0        0.417913    0.236683    1.782433
     29          1           0       -0.551885   -1.303022    0.059387
     30          1           0       -4.302303    0.770035    0.300363
     31          1           0       -3.344738    2.316502    2.024194
     32          7           0       -3.035451   -1.240620   -0.908106
     33          8           0       -4.206439   -1.062179   -1.236104
     34          8           0       -2.299774   -2.116096   -1.358613
 ---------------------------------------------------------------------

 SCF Done:  E(RHF) =  -669.535308424     A.U. after   15 cycles
 E2 =    -0.2093185877D+01 EUMP2 =    -0.67162849430092D+03

 The electronic state is 1-A.
 Alpha  occ. eigenvalues --  -20.60814 -20.60809 -15.85868 -11.31254 -11.27826
 Alpha  occ. eigenvalues --  -11.27816 -11.27560 -11.26833 -11.26819 -11.22208
 Alpha  occ. eigenvalues --  -11.22148 -11.22103 -11.21925 -11.21586 -11.21385
 Alpha  occ. eigenvalues --   -1.59890  -1.39442  -1.19427  -1.09051  -1.08812
 Alpha  occ. eigenvalues --   -1.04832  -1.04041  -0.96494  -0.95647  -0.87500
 Alpha  occ. eigenvalues --   -0.86230  -0.82481  -0.80114  -0.78871  -0.77529
 Alpha  occ. eigenvalues --   -0.72085  -0.71213  -0.70530  -0.65821  -0.65071
 Alpha  occ. eigenvalues --   -0.64768  -0.62149  -0.61446  -0.59856  -0.58103
 Alpha  occ. eigenvalues --   -0.55800  -0.55310  -0.53180  -0.53136  -0.52949
 Alpha  occ. eigenvalues --   -0.52875  -0.50431  -0.48850  -0.48840  -0.48422
 Alpha  occ. eigenvalues --   -0.47168  -0.46375  -0.46316  -0.44843  -0.44331
 Alpha  occ. eigenvalues --   -0.37392  -0.36409
 Alpha virt. eigenvalues --    0.04983   0.11100   0.16385   0.18690   0.23124
 Alpha virt. eigenvalues --    0.23753   0.24741   0.25124   0.27233   0.28620
 Alpha virt. eigenvalues --    0.30181   0.30716   0.31352   0.31439   0.31789

 Mulliken charges:
               1
     1  C   -0.302111
     2  C   -0.300657
     3  C   -0.475588
     4  H    0.153533
     5  H    0.138632
     6  H    0.156800
     7  H    0.151774
     8  H    0.151792
     9  H    0.156493
    10  H    0.164269
    11  C   -0.301388
    12  C   -0.300047
    13  C   -0.476113
    14  H    0.154494
    15  H    0.151099
    16  H    0.152100
    17  H    0.146279
    18  H    0.159218
    19  H    0.157131
    20  H    0.159756
    21  C   -0.173052
    22  C   -0.221106
    23  C   -0.175617
    24  C    0.158448
    25  C   -0.170672
    26  C   -0.218152
    27  H    0.226694
    28  H    0.232266
    29  H    0.276377
    30  H    0.275913
    31  H    0.223828
    32  N    0.488096
    33  O   -0.460147
    34  O   -0.460342
 Sum of Mulliken charges =  -0.00000

 Dipole moment (field-independent basis, Debye):
    X=              2.0681    Y=              3.1977    Z=              3.4815  Tot=              5.1598
 Quadrupole moment (field-independent basis, Debye-Ang):
   XX=            -99.7291   YY=            -96.4843   ZZ=            -95.0554
   XY=            -10.8225   XZ=            -10.0264   YZ=             -0.2349

 Normal termination of Gaussian 16 at Wed May  5 18:43:09 2021.
