 Gaussian 16, Revision A.03,
 Gaussian 16:  EM64L-G16RevA.03 25-Dec-2016

 -------------
 #p 6-31g* mp2
 -------------

 ------------------------------------------------------
 Input file generated by CHIRIPA (05-May-2021 14:51:13)
 ------------------------------------------------------
 Symbolic Z-matrix:
 Charge =  0 Multiplicity = 1

                         Standard orientation:
 ---------------------------------------------------------------------
 Center     Atomic      Atomic             Coordinates (Angstroms)
 Number     Number       Type             X           Y           Z
 ---------------------------------------------------------------------
      1          6           0        2.779368   -0.603056   -0.645304
      2          6           0        3.143001   -1.292917    0.669933
      3          6           0        3.879357   -2.616277    0.459478
      4          1           0        2.156484   -1.279291   -1.246691
      5          1           0        3.696469   -0.425447   -1.223903
      6          1           0        2.225631   -1.467925    1.246493
      7          1           0        3.764933   -0.614887    1.268341
      8          1           0        4.809991   -2.455473   -0.094293
      9          1           0        3.261943   -3.313357   -0.116266
     10          1           0        4.129687   -3.092411    1.412626
     11          6           0        2.042773    0.721160   -0.451378
     12          6           0        1.679140    1.411021   -1.766615
     13          6           0        0.942785    2.734381   -1.556160
     14          1           0        1.125673    0.543551    0.127221
     15          1           0        2.665657    1.397395    0.150009
     16          1           0        1.057208    0.732991   -2.365024
     17          1           0        2.596510    1.586028   -2.343175
     18          1           0        1.560198    3.431461   -0.980416
     19          1           0        0.012150    2.573577   -1.002389
     20          1           0        0.692454    3.210515   -2.509309
     21          6           0       -2.074067    0.598487    0.741998
     22          6           0       -1.222675    0.493722    2.007755
     23          6           0       -0.554986    1.817239    2.382306
     24          1           0       -1.442850    0.940606   -0.089545
     25          1           0       -2.843028    1.369610    0.888503
     26          1           0       -0.456421   -0.277942    1.859411
     27          1           0       -1.855952    0.151629    2.836337
     28          1           0       -1.307865    2.592602    2.557191
     29          1           0        0.099617    2.160592    1.574714
     30          1           0        0.048666    1.719619    3.290014
     31          6           0       -2.748074   -0.716591    0.354685
     32          6           0       -3.599466   -0.611826   -0.911073
     33          6           0       -4.267156   -1.935343   -1.285624
     34          1           0       -1.979114   -1.487714    0.208180
     35          1           0       -3.379292   -1.058710    1.186227
     36          1           0       -2.966190   -0.269733   -1.739656
     37          1           0       -4.365721    0.159837   -0.762729
     38          1           0       -4.921758   -2.278696   -0.478032
     39          1           0       -3.514277   -2.710706   -1.460509
     40          1           0       -4.870808   -1.837723   -2.193333
 ---------------------------------------------------------------------

 SCF Done:  E(RHF) =  -470.731518846     A.U. after   11 cycles
 E2 =    -0.1586000339D+01 EUMP2 =    -0.47231751918470D+03

 The electronic state is 1-A.
 Alpha  occ. eigenvalues --  -11.21656 -11.21649 -11.21649 -11.21635 -11.21463
 Alpha  occ. eigenvalues --  -11.21433 -11.21404 -11.21361 -11.21109 -11.21104
 Alpha  occ. eigenvalues --  -11.21097 -11.20977  -1.08563  -1.08416  -1.03630
 Alpha  occ. eigenvalues --   -1.03522  -0.96044  -0.95989  -0.87049  -0.87019
 Alpha  occ. eigenvalues --   -0.79721  -0.79562  -0.78384  -0.78249  -0.65584
 Alpha  occ. eigenvalues --   -0.64742  -0.61183  -0.60794  -0.59472  -0.59283
 Alpha  occ. eigenvalues --   -0.57655  -0.57606  -0.55455  -0.55196  -0.52716
 Alpha  occ. eigenvalues --   -0.52687  -0.52472  -0.52417  -0.50005  -0.49958
 Alpha  occ. eigenvalues --   -0.48179  -0.47842  -0.46858  -0.46546  -0.46141
 Alpha  occ. eigenvalues --   -0.45802  -0.45699  -0.45189  -0.43828  -0.43812
 Alpha virt. eigenvalues --    0.19954   0.22609   0.23588   0.23961   0.25797
 Alpha virt. eigenvalues --    0.26453   0.26761   0.28065   0.28869   0.29464
 Alpha virt. eigenvalues --    0.30918   0.31164   0.31337   0.31737   0.32117

 Mulliken charges:
               1
     1  C   -0.297299
     2  C   -0.301817
     3  C   -0.475694
     4  H    0.148944
     5  H    0.149755
     6  H    0.153049
     7  H    0.152433
     8  H    0.155436
     9  H    0.155099
    10  H    0.160491
    11  C   -0.309798
    12  C   -0.298885
    13  C   -0.484153
    14  H    0.162024
    15  H    0.149872
    16  H    0.150916
    17  H    0.152389
    18  H    0.155638
    19  H    0.162216
    20  H    0.160894
    21  C   -0.307300
    22  C   -0.304933
    23  C   -0.482059
    24  H    0.156441
    25  H    0.150362
    26  H    0.152822
    27  H    0.153793
    28  H    0.154708
    29  H    0.163588
    30  H    0.160171
    31  C   -0.297440
    32  C   -0.299755
    33  C   -0.475729
    34  H    0.148715
    35  H    0.150189
    36  H    0.151747
    37  H    0.152265
    38  H    0.155358
    39  H    0.155072
    40  H    0.160476
 Sum of Mulliken charges =  -0.00000

 Dipole moment (field-independent basis, Debye):
    X=              0.0022    Y=              0.0159    Z=              0.0002  Tot=              0.0161
 Quadrupole moment (field-independent basis, Debye-Ang):
   XX=            -83.8282   YY=            -86.1939   ZZ=            -84.6966
   XY=              0.2962   XZ=             -0.6249   YZ=             -0.2003

 Normal termination of Gaussian 16 at Wed May  5 16:52:54 2021.
