 Gaussian 16, Revision A.03,
 Gaussian 16:  EM64L-G16RevA.03 25-Dec-2016

 -------------
 #p 6-31g* mp2
 -------------

 ------------------------------------------------------
 Input file generated by CHIRIPA (05-May-2021 14:51:08)
 ------------------------------------------------------
 Symbolic Z-matrix:
 Charge =  0 Multiplicity = 1

                         Standard orientation:
 ---------------------------------------------------------------------
 Center     Atomic      Atomic             Coordinates (Angstroms)
 Number     Number       Type             X           Y           Z
 ---------------------------------------------------------------------
      1          6           0        2.658866   -1.199694   -0.231296
      2          6           0        1.183645   -0.804149   -0.158828
      3          6           0        0.243734   -1.963761   -0.489982
      4          1           0        2.881475   -1.577843   -1.238467
      5          1           0        2.842750   -2.031587    0.462632
      6          1           0        1.002894    0.027664   -0.851671
      7          1           0        0.964568   -0.426718    0.848231
      8          1           0        0.395025   -2.793629    0.207894
      9          1           0        0.433569   -2.336665   -1.501667
     10          1           0       -0.805828   -1.658907   -0.432158
     11          6           0        3.610907   -0.051029    0.097206
     12          6           0        5.086128   -0.446573    0.024738
     13          6           0        6.026038    0.713038    0.355892
     14          1           0        3.427023    0.780864   -0.596722
     15          1           0        3.388298    0.327121    1.104377
     16          1           0        5.305205   -0.824004   -0.982321
     17          1           0        5.266879   -1.278386    0.717581
     18          1           0        5.836204    1.085942    1.367577
     19          1           0        5.874747    1.542906   -0.341984
     20          1           0        7.075601    0.408185    0.298068
     21          6           0       -2.559172    1.063134    0.312687
     22          6           0       -2.389280    2.350612   -0.494483
     23          6           0       -1.233539    3.215816    0.008984
     24          1           0       -2.723486    1.318766    1.368431
     25          1           0       -1.624211    0.487271    0.272379
     26          1           0       -3.324740    2.923217   -0.453809
     27          1           0       -2.225542    2.091891   -1.548461
     28          1           0       -0.288137    2.666613   -0.047518
     29          1           0       -1.393580    3.502662    1.053353
     30          1           0       -1.130060    4.131060   -0.582183
     31          6           0       -3.710601    0.187588   -0.178597
     32          6           0       -3.880493   -1.099890    0.628573
     33          6           0       -5.036234   -1.965093    0.125106
     34          1           0       -4.645562    0.763451   -0.138289
     35          1           0       -3.546287   -0.068044   -1.234342
     36          1           0       -4.044231   -0.841168    1.682551
     37          1           0       -2.945033   -1.672494    0.587899
     38          1           0       -4.876193   -2.251939   -0.919263
     39          1           0       -5.981636   -1.415890    0.181608
     40          1           0       -5.139713   -2.880338    0.716274
 ---------------------------------------------------------------------

 SCF Done:  E(RHF) =  -470.732536183     A.U. after   11 cycles
 E2 =    -0.1584328259D+01 EUMP2 =    -0.47231686444229D+03

 The electronic state is 1-A.
 Alpha  occ. eigenvalues --  -11.21703 -11.21630 -11.21574 -11.21563 -11.21462
 Alpha  occ. eigenvalues --  -11.21397 -11.21367 -11.21284 -11.21140 -11.21088
 Alpha  occ. eigenvalues --  -11.21050 -11.21022  -1.08504  -1.08393  -1.03597
 Alpha  occ. eigenvalues --   -1.03499  -0.96056  -0.95936  -0.87062  -0.86962
 Alpha  occ. eigenvalues --   -0.79703  -0.79528  -0.78351  -0.78177  -0.65125
 Alpha  occ. eigenvalues --   -0.65109  -0.61010  -0.60888  -0.59424  -0.59309
 Alpha  occ. eigenvalues --   -0.57727  -0.57506  -0.55318  -0.55230  -0.52807
 Alpha  occ. eigenvalues --   -0.52614  -0.52470  -0.52352  -0.49984  -0.49882
 Alpha  occ. eigenvalues --   -0.48081  -0.47801  -0.46688  -0.46610  -0.45909
 Alpha  occ. eigenvalues --   -0.45765  -0.45727  -0.45523  -0.43814  -0.43738
 Alpha virt. eigenvalues --    0.20519   0.22942   0.23398   0.24543   0.26233
 Alpha virt. eigenvalues --    0.26395   0.26842   0.27225   0.28510   0.29483
 Alpha virt. eigenvalues --    0.30132   0.31175   0.31744   0.31879   0.32593

 Mulliken charges:
               1
     1  C   -0.298579
     2  C   -0.302197
     3  C   -0.485981
     4  H    0.149890
     5  H    0.149970
     6  H    0.152825
     7  H    0.153440
     8  H    0.155884
     9  H    0.155705
    10  H    0.168982
    11  C   -0.298505
    12  C   -0.299696
    13  C   -0.475755
    14  H    0.149531
    15  H    0.150022
    16  H    0.151983
    17  H    0.152028
    18  H    0.155341
    19  H    0.155319
    20  H    0.160346
    21  C   -0.309046
    22  C   -0.298634
    23  C   -0.477931
    24  H    0.149236
    25  H    0.161368
    26  H    0.151721
    27  H    0.151270
    28  H    0.157484
    29  H    0.154955
    30  H    0.159831
    31  C   -0.298199
    32  C   -0.305908
    33  C   -0.475218
    34  H    0.149788
    35  H    0.149266
    36  H    0.152091
    37  H    0.156787
    38  H    0.155203
    39  H    0.155134
    40  H    0.160251
 Sum of Mulliken charges =  -0.00000

 Dipole moment (field-independent basis, Debye):
    X=              0.0449    Y=             -0.0246    Z=              0.0098  Tot=              0.0521
 Quadrupole moment (field-independent basis, Debye-Ang):
   XX=            -85.7288   YY=            -85.6273   ZZ=            -83.4883
   XY=             -1.4438   XZ=             -0.7984   YZ=             -0.2918

 Normal termination of Gaussian 16 at Thu May  6 14:51:40 2021.
