 Gaussian 16, Revision A.03,
 Gaussian 16:  EM64L-G16RevA.03 25-Dec-2016

 -------------
 #p 6-31g* mp2
 -------------

 ------------------------------------------------------
 Input file generated by CHIRIPA (05-May-2021 14:53:12)
 ------------------------------------------------------
 Symbolic Z-matrix:
 Charge =  0 Multiplicity = 1

                         Standard orientation:
 ---------------------------------------------------------------------
 Center     Atomic      Atomic             Coordinates (Angstroms)
 Number     Number       Type             X           Y           Z
 ---------------------------------------------------------------------
      1          6           0        4.078768    0.786735   -0.089211
      2          6           0        2.773084    1.565237   -0.253861
      3          6           0        2.957935    3.073049   -0.080290
      4          1           0        4.499069    0.994085    0.904417
      5          1           0        4.811297    1.153956   -0.821293
      6          1           0        2.042786    1.195708    0.477391
      7          1           0        2.355743    1.355860   -1.247141
      8          1           0        3.666481    3.461844   -0.818803
      9          1           0        3.351746    3.300782    0.915527
     10          1           0        2.012110    3.610122   -0.202056
     11          6           0        3.910194   -0.721964   -0.259911
     12          6           0        5.215878   -1.500466   -0.095261
     13          6           0        5.031027   -3.008278   -0.268832
     14          1           0        3.177665   -1.089185    0.472171
     15          1           0        3.489893   -0.929314   -1.253540
     16          1           0        5.633219   -1.291089    0.898018
     17          1           0        5.946176   -1.130937   -0.826513
     18          1           0        4.637216   -3.236011   -1.264649
     19          1           0        4.322481   -3.397072    0.469681
     20          1           0        5.976852   -3.545351   -0.147066
     21          6           0       -1.050768    1.167011    0.948622
     22          6           0       -1.779507    1.683997   -0.127568
     23          6           0       -2.927949    1.031755   -0.586053
     24          6           0       -3.320801   -0.140570    0.057851
     25          6           0       -2.615963   -0.680606    1.132493
     26          6           0       -1.470582   -0.011562    1.574115
     27          1           0       -0.159819    1.680214    1.298234
     28          1           0       -1.455825    2.599115   -0.615250
     29          1           0       -3.510842    1.409973   -1.417081
     30          1           0       -2.963399   -1.594709    1.598455
     31          1           0       -0.906597   -0.415369    2.410122
     32          7           0       -4.534985   -0.839962   -0.418601
     33          8           0       -4.860172   -1.871204    0.165720
     34          8           0       -5.138485   -0.343661   -1.367342
 ---------------------------------------------------------------------

 SCF Done:  E(RHF) =  -669.535293212     A.U. after   15 cycles
 E2 =    -0.2091422504D+01 EUMP2 =    -0.67162671571616D+03

 The electronic state is 1-A.
 Alpha  occ. eigenvalues --  -20.60744 -20.60739 -15.85799 -11.31161 -11.27736
 Alpha  occ. eigenvalues --  -11.27731 -11.27448 -11.26749 -11.26736 -11.22601
 Alpha  occ. eigenvalues --  -11.22155 -11.22120 -11.22110 -11.21995 -11.21480
 Alpha  occ. eigenvalues --   -1.59820  -1.39374  -1.19336  -1.09166  -1.08728
 Alpha  occ. eigenvalues --   -1.04740  -1.04276  -0.96709  -0.95565  -0.87720
 Alpha  occ. eigenvalues --   -0.86137  -0.82404  -0.80354  -0.78944  -0.77446
 Alpha  occ. eigenvalues --   -0.72017  -0.71144  -0.70465  -0.65798  -0.64988
 Alpha  occ. eigenvalues --   -0.64747  -0.62090  -0.61677  -0.60120  -0.58324
 Alpha  occ. eigenvalues --   -0.55999  -0.55221  -0.53419  -0.53138  -0.53056
 Alpha  occ. eigenvalues --   -0.52832  -0.50638  -0.48784  -0.48771  -0.48642
 Alpha  occ. eigenvalues --   -0.47379  -0.46481  -0.46392  -0.44780  -0.44516
 Alpha  occ. eigenvalues --   -0.37288  -0.36346
 Alpha virt. eigenvalues --    0.05065   0.11292   0.16467   0.19632   0.22542
 Alpha virt. eigenvalues --    0.23837   0.25608   0.26189   0.26614   0.27667
 Alpha virt. eigenvalues --    0.29132   0.29909   0.30884   0.31319   0.31825

 Mulliken charges:
               1
     1  C   -0.298489
     2  C   -0.302792
     3  C   -0.476807
     4  H    0.149888
     5  H    0.152501
     6  H    0.143682
     7  H    0.156130
     8  H    0.161112
     9  H    0.156741
    10  H    0.153331
    11  C   -0.298179
    12  C   -0.300287
    13  C   -0.475984
    14  H    0.147301
    15  H    0.152230
    16  H    0.151915
    17  H    0.153279
    18  H    0.156796
    19  H    0.154939
    20  H    0.161906
    21  C   -0.169853
    22  C   -0.219750
    23  C   -0.171014
    24  C    0.158515
    25  C   -0.170700
    26  C   -0.219947
    27  H    0.229381
    28  H    0.223329
    29  H    0.275481
    30  H    0.275479
    31  H    0.222839
    32  N    0.488078
    33  O   -0.460528
    34  O   -0.460524
 Sum of Mulliken charges =  -0.00000

 Dipole moment (field-independent basis, Debye):
    X=              4.4568    Y=              2.4248    Z=              1.6075  Tot=              5.3223
 Quadrupole moment (field-independent basis, Debye-Ang):
   XX=           -123.1698   YY=            -94.5606   ZZ=            -91.4701
   XY=             -9.3223   XZ=             -5.2251   YZ=             -3.2236

 Normal termination of Gaussian 16 at Thu May  6 05:42:57 2021.
