 Gaussian 16, Revision A.03,
 Gaussian 16:  EM64L-G16RevA.03 25-Dec-2016

 -------------
 #p 6-31g* mp2
 -------------

 ------------------------------------------------------
 Input file generated by CHIRIPA (05-May-2021 14:51:14)
 ------------------------------------------------------
 Symbolic Z-matrix:
 Charge =  0 Multiplicity = 1

                         Standard orientation:
 ---------------------------------------------------------------------
 Center     Atomic      Atomic             Coordinates (Angstroms)
 Number     Number       Type             X           Y           Z
 ---------------------------------------------------------------------
      1          6           0        4.041161   -0.450257   -0.137124
      2          6           0        5.535090   -0.570450   -0.439967
      3          6           0        6.113179   -1.926680   -0.034690
      4          1           0        3.876825   -0.614409    0.936651
      5          1           0        3.502170   -1.251218   -0.661857
      6          1           0        6.070944    0.231335    0.084072
      7          1           0        5.695910   -0.405804   -1.513114
      8          1           0        5.604756   -2.736867   -0.567328
      9          1           0        5.981922   -2.096108    1.038933
     10          1           0        7.182257   -1.990945   -0.260083
     11          6           0        3.448750    0.899986   -0.536651
     12          6           0        1.954821    1.020179   -0.233809
     13          6           0        1.376732    2.376408   -0.639086
     14          1           0        3.987741    1.700947   -0.011918
     15          1           0        3.613086    1.064137   -1.610426
     16          1           0        1.794001    0.855533    0.839339
     17          1           0        1.418967    0.218394   -0.757847
     18          1           0        1.507990    2.545837   -1.712709
     19          1           0        1.885155    3.186596   -0.106448
     20          1           0        0.307654    2.440674   -0.413692
     21          6           0       -3.194158    0.240620    0.588637
     22          6           0       -2.241099   -0.428163    1.579795
     23          6           0       -1.144674    0.515772    2.074397
     24          1           0       -2.617849    0.616264   -0.267929
     25          1           0       -3.652201    1.117909    1.066084
     26          1           0       -1.786036   -1.304731    1.101085
     27          1           0       -2.819769   -0.802428    2.434010
     28          1           0       -1.582105    1.384958    2.576164
     29          1           0       -0.542499    0.879801    1.235667
     30          1           0       -0.474733    0.017211    2.781841
     31          6           0       -4.295753   -0.690348    0.085138
     32          6           0       -5.248812   -0.021566   -0.906020
     33          6           0       -6.345237   -0.965501   -1.400622
     34          1           0       -3.837711   -1.567638   -0.392308
     35          1           0       -4.872063   -1.065993    0.941704
     36          1           0       -4.670142    0.352699   -1.760235
     37          1           0       -5.703874    0.855002   -0.427310
     38          1           0       -6.947412   -1.329529   -0.561892
     39          1           0       -5.907806   -1.834687   -1.902389
     40          1           0       -7.015179   -0.466939   -2.108065
 ---------------------------------------------------------------------

 SCF Done:  E(RHF) =  -470.732397110     A.U. after   11 cycles
 E2 =    -0.1583377774D+01 EUMP2 =    -0.47231577488392D+03

 The electronic state is 1-A.
 Alpha  occ. eigenvalues --  -11.21605 -11.21595 -11.21589 -11.21562 -11.21409
 Alpha  occ. eigenvalues --  -11.21397 -11.21350 -11.21338 -11.21094 -11.21075
 Alpha  occ. eigenvalues --  -11.21067 -11.20948  -1.08451  -1.08404  -1.03590
 Alpha  occ. eigenvalues --   -1.03466  -0.96050  -0.95907  -0.87013  -0.86974
 Alpha  occ. eigenvalues --   -0.79682  -0.79512  -0.78287  -0.78195  -0.65092
 Alpha  occ. eigenvalues --   -0.65031  -0.61052  -0.60869  -0.59427  -0.59293
 Alpha  occ. eigenvalues --   -0.57805  -0.57422  -0.55321  -0.55142  -0.52731
 Alpha  occ. eigenvalues --   -0.52651  -0.52500  -0.52248  -0.49969  -0.49843
 Alpha  occ. eigenvalues --   -0.47923  -0.47870  -0.46741  -0.46494  -0.45834
 Alpha  occ. eigenvalues --   -0.45743  -0.45721  -0.45590  -0.43808  -0.43750
 Alpha virt. eigenvalues --    0.21543   0.23056   0.23494   0.25087   0.26196
 Alpha virt. eigenvalues --    0.26486   0.27075   0.27320   0.27952   0.29105
 Alpha virt. eigenvalues --    0.30712   0.31083   0.31539   0.31870   0.32049

 Mulliken charges:
               1
     1  C   -0.298316
     2  C   -0.299686
     3  C   -0.475699
     4  H    0.149817
     5  H    0.149325
     6  H    0.151986
     7  H    0.151923
     8  H    0.155127
     9  H    0.155212
    10  H    0.160276
    11  C   -0.297548
    12  C   -0.304399
    13  C   -0.479791
    14  H    0.149678
    15  H    0.149403
    16  H    0.156684
    17  H    0.151054
    18  H    0.155615
    19  H    0.156043
    20  H    0.162221
    21  C   -0.298926
    22  C   -0.298978
    23  C   -0.486540
    24  H    0.149334
    25  H    0.149508
    26  H    0.151759
    27  H    0.151579
    28  H    0.154201
    29  H    0.170107
    30  H    0.158985
    31  C   -0.298235
    32  C   -0.299670
    33  C   -0.475697
    34  H    0.149458
    35  H    0.149764
    36  H    0.151925
    37  H    0.151941
    38  H    0.155184
    39  H    0.155135
    40  H    0.160241
 Sum of Mulliken charges =  -0.00000

 Dipole moment (field-independent basis, Debye):
    X=              0.0263    Y=              0.0112    Z=              0.0004  Tot=              0.0286
 Quadrupole moment (field-independent basis, Debye-Ang):
   XX=            -85.4877   YY=            -85.7498   ZZ=            -83.6402
   XY=             -0.0241   XZ=             -0.7074   YZ=              0.5704

 Normal termination of Gaussian 16 at Thu May  6 00:49:36 2021.
