 Gaussian 16, Revision A.03,
 Gaussian 16:  EM64L-G16RevA.03 25-Dec-2016

 -------------
 #p 6-31g* mp2
 -------------

 ------------------------------------------------------
 Input file generated by CHIRIPA (05-May-2021 14:55:25)
 ------------------------------------------------------
 Symbolic Z-matrix:
 Charge =  0 Multiplicity = 1

                         Standard orientation:
 ---------------------------------------------------------------------
 Center     Atomic      Atomic             Coordinates (Angstroms)
 Number     Number       Type             X           Y           Z
 ---------------------------------------------------------------------
      1          6           0        2.586496    2.143496    0.002661
      2          6           0        3.917097    2.088318   -0.425098
      3          6           0        4.608208    0.873129   -0.440263
      4          6           0        3.934977   -0.272579   -0.019072
      5          6           0        2.609679   -0.249979    0.412628
      6          6           0        1.938177    0.976229    0.419425
      7          1           0        2.057241    3.091764    0.011191
      8          1           0        4.423115    2.993235   -0.749313
      9          1           0        5.638679    0.801845   -0.766556
     10          1           0        2.131856   -1.168875    0.730014
     11          1           0        0.904853    1.016087    0.752138
     12          7           0        4.656246   -1.564878   -0.030696
     13          8           0        4.040670   -2.560039    0.345277
     14          8           0        5.823495   -1.558150   -0.415561
     15          6           0       -5.594491    0.087812   -0.259770
     16          6           0       -6.395947   -1.173452    0.064057
     17          6           0       -7.814060   -1.135427   -0.506299
     18          1           0       -6.126628    0.964136    0.134984
     19          1           0       -5.548826    0.214913   -1.350253
     20          1           0       -6.438910   -1.298891    1.153568
     21          1           0       -5.861744   -2.046894   -0.331347
     22          1           0       -7.788382   -1.034444   -1.596135
     23          1           0       -8.368827   -0.282192   -0.102782
     24          1           0       -8.369196   -2.046741   -0.263013
     25          6           0       -4.174733    0.064745    0.303689
     26          6           0       -3.373276    1.326009   -0.020137
     27          6           0       -1.955164    1.287983    0.550218
     28          1           0       -4.220397   -0.062356    1.394174
     29          1           0       -3.642596   -0.811580   -0.091065
     30          1           0       -3.907479    2.199451    0.375267
     31          1           0       -3.330313    1.451448   -1.109648
     32          1           0       -1.400397    0.434748    0.146703
     33          1           0       -1.980842    1.187000    1.640055
     34          1           0       -1.400027    2.199299    0.306932
 ---------------------------------------------------------------------

 SCF Done:  E(RHF) =  -669.535383835     A.U. after   15 cycles
 E2 =    -0.2091087188D+01 EUMP2 =    -0.67162647102293D+03

 The electronic state is 1-A.
 Alpha  occ. eigenvalues --  -20.60695 -20.60690 -15.85746 -11.31090 -11.27655
 Alpha  occ. eigenvalues --  -11.27630 -11.27379 -11.26677 -11.26558 -11.22450
 Alpha  occ. eigenvalues --  -11.22303 -11.22008 -11.21964 -11.21841 -11.21362
 Alpha  occ. eigenvalues --   -1.59771  -1.39325  -1.19252  -1.09029  -1.08652
 Alpha  occ. eigenvalues --   -1.04651  -1.04183  -0.96673  -0.95494  -0.87721
 Alpha  occ. eigenvalues --   -0.86039  -0.82326  -0.80276  -0.78791  -0.77371
 Alpha  occ. eigenvalues --   -0.71965  -0.71094  -0.70369  -0.65655  -0.64901
 Alpha  occ. eigenvalues --   -0.64663  -0.62043  -0.61546  -0.60061  -0.58244
 Alpha  occ. eigenvalues --   -0.55956  -0.55158  -0.53512  -0.53125  -0.52982
 Alpha  occ. eigenvalues --   -0.52572  -0.50585  -0.48727  -0.48722  -0.48559
 Alpha  occ. eigenvalues --   -0.47258  -0.46345  -0.46233  -0.44736  -0.44419
 Alpha  occ. eigenvalues --   -0.37236  -0.36248
 Alpha virt. eigenvalues --    0.05147   0.11382   0.16628   0.20691   0.22369
 Alpha virt. eigenvalues --    0.23831   0.25817   0.26082   0.26689   0.27704
 Alpha virt. eigenvalues --    0.28744   0.30113   0.30694   0.31380   0.31980

 Mulliken charges:
               1
     1  C   -0.174428
     2  C   -0.218341
     3  C   -0.171677
     4  C    0.159074
     5  C   -0.174711
     6  C   -0.227780
     7  H    0.224944
     8  H    0.222843
     9  H    0.275121
    10  H    0.275274
    11  H    0.242767
    12  N    0.488044
    13  O   -0.460708
    14  O   -0.460814
    15  C   -0.298984
    16  C   -0.300238
    17  C   -0.476077
    18  H    0.150256
    19  H    0.150581
    20  H    0.152559
    21  H    0.153223
    22  H    0.155768
    23  H    0.155394
    24  H    0.161770
    25  C   -0.299654
    26  C   -0.299392
    27  C   -0.483750
    28  H    0.150607
    29  H    0.151383
    30  H    0.154500
    31  H    0.154923
    32  H    0.154319
    33  H    0.158428
    34  H    0.154778
 Sum of Mulliken charges =  -0.00000

 Dipole moment (field-independent basis, Debye):
    X=             -2.8197    Y=              4.5425    Z=              0.0328  Tot=              5.3466
 Quadrupole moment (field-independent basis, Debye-Ang):
   XX=           -111.9115   YY=            -96.5960   ZZ=            -94.3129
   XY=             20.6807   XZ=             -2.0656   YZ=             -0.7066

 Normal termination of Gaussian 16 at Wed May  5 20:49:27 2021.
