 Gaussian 16, Revision A.03,
 Gaussian 16:  EM64L-G16RevA.03 25-Dec-2016

 -------------
 #p 6-31g* mp2
 -------------

 ------------------------------------------------------
 Input file generated by CHIRIPA (05-May-2021 14:57:26)
 ------------------------------------------------------
 Symbolic Z-matrix:
 Charge =  0 Multiplicity = 1

                         Standard orientation:
 ---------------------------------------------------------------------
 Center     Atomic      Atomic             Coordinates (Angstroms)
 Number     Number       Type             X           Y           Z
 ---------------------------------------------------------------------
      1          6           0        3.898478   -1.707318   -0.223975
      2          6           0        4.202806   -0.762902    0.761917
      3          6           0        3.526344    0.459771    0.806837
      4          6           0        2.546912    0.706117   -0.154057
      5          6           0        2.221039   -0.214569   -1.148761
      6          6           0        2.910308   -1.430625   -1.174492
      7          1           0        4.428945   -2.654550   -0.251417
      8          1           0        4.969760   -0.975073    1.501384
      9          1           0        3.741946    1.208783    1.559110
     10          1           0        1.451524    0.025518   -1.872379
     11          1           0        2.671867   -2.162198   -1.941299
     12          7           0        1.823993    1.997004   -0.116660
     13          8           0        0.965314    2.189902   -0.974622
     14          8           0        2.129736    2.791460    0.769905
     15          6           0       -0.545786   -1.756108    0.685427
     16          6           0       -1.313455   -1.215261    1.722099
     17          6           0       -2.490044   -0.513705    1.442807
     18          6           0       -2.871038   -0.371286    0.109446
     19          6           0       -2.127641   -0.898506   -0.945395
     20          6           0       -0.954608   -1.596286   -0.642670
     21          1           0        0.366837   -2.299627    0.911490
     22          1           0       -0.998393   -1.337825    2.754455
     23          1           0       -3.103277   -0.084730    2.225969
     24          1           0       -2.467368   -0.759939   -1.964613
     25          1           0       -0.360409   -2.015239   -1.449795
     26          7           0       -4.114758    0.369422   -0.198632
     27          8           0       -4.428753    0.481058   -1.381671
     28          8           0       -4.752042    0.824326    0.748769
 ---------------------------------------------------------------------

 SCF Done:  E(RHF) =  -868.335848173     A.U. after   16 cycles
 E2 =    -0.2603226947D+01 EUMP2 =    -0.87093907511984D+03

 The electronic state is 1-A.
 Alpha  occ. eigenvalues --  -20.61252 -20.61230 -20.60466 -20.60460 -15.86309
 Alpha  occ. eigenvalues --  -15.85529 -11.31909 -11.30995 -11.28576 -11.28536
 Alpha  occ. eigenvalues --  -11.28373 -11.27656 -11.27652 -11.27609 -11.27563
 Alpha  occ. eigenvalues --  -11.27419 -11.26750 -11.26635  -1.60313  -1.59535
 Alpha  occ. eigenvalues --   -1.39861  -1.39088  -1.20161  -1.19215  -1.09492
 Alpha  occ. eigenvalues --   -1.08601  -1.05616  -1.04661  -0.96281  -0.95403
 Alpha  occ. eigenvalues --   -0.86976  -0.86069  -0.83118  -0.82255  -0.78122
 Alpha  occ. eigenvalues --   -0.77267  -0.72524  -0.71755  -0.71643  -0.71250
 Alpha  occ. eigenvalues --   -0.70847  -0.70341  -0.65809  -0.65600  -0.64889
 Alpha  occ. eigenvalues --   -0.64743  -0.62946  -0.61997  -0.56079  -0.55210
 Alpha  occ. eigenvalues --   -0.53998  -0.53696  -0.52844  -0.52765  -0.49299
 Alpha  occ. eigenvalues --   -0.49262  -0.48520  -0.48494  -0.45214  -0.44473
 Alpha  occ. eigenvalues --   -0.38265  -0.37688  -0.36749  -0.36087
 Alpha virt. eigenvalues --    0.04408   0.05290   0.10147   0.11651   0.15767
 Alpha virt. eigenvalues --    0.16664   0.19666   0.21881   0.25221   0.27336
 Alpha virt. eigenvalues --    0.28261   0.28681   0.29817   0.31470   0.31919

 Mulliken charges:
               1
     1  C   -0.173358
     2  C   -0.220591
     3  C   -0.171147
     4  C    0.159524
     5  C   -0.165804
     6  C   -0.228285
     7  H    0.227433
     8  H    0.225722
     9  H    0.278249
    10  H    0.275774
    11  H    0.221228
    12  N    0.488560
    13  O   -0.456533
    14  O   -0.459120
    15  C   -0.169312
    16  C   -0.219993
    17  C   -0.167360
    18  C    0.161104
    19  C   -0.165329
    20  C   -0.220941
    21  H    0.224259
    22  H    0.222610
    23  H    0.276879
    24  H    0.275595
    25  H    0.211857
    26  N    0.488809
    27  O   -0.459956
    28  O   -0.459873
 Sum of Mulliken charges =  -0.00000

 Dipole moment (field-independent basis, Debye):
    X=              6.8920    Y=             -6.8842    Z=              1.0391  Tot=              9.7965
 Quadrupole moment (field-independent basis, Debye-Ang):
   XX=           -116.2145   YY=           -110.4719   ZZ=            -96.8966
   XY=             -3.2501   XZ=             -1.6238   YZ=              1.9415

 Normal termination of Gaussian 16 at Fri May  7 06:37:55 2021.
