 Gaussian 16, Revision A.03,
 Gaussian 16:  EM64L-G16RevA.03 25-Dec-2016

 -------------
 #p 6-31g* mp2
 -------------

 ------------------------------------------------------
 Input file generated by CHIRIPA (05-May-2021 14:53:17)
 ------------------------------------------------------
 Symbolic Z-matrix:
 Charge =  0 Multiplicity = 1

                         Standard orientation:
 ---------------------------------------------------------------------
 Center     Atomic      Atomic             Coordinates (Angstroms)
 Number     Number       Type             X           Y           Z
 ---------------------------------------------------------------------
      1          6           0       -3.278529   -0.360192    0.544017
      2          6           0       -2.786478   -1.743278    0.971737
      3          6           0       -1.431299   -1.696224    1.678185
      4          1           0       -2.532936    0.098036   -0.120109
      5          1           0       -3.347874    0.286672    1.429541
      6          1           0       -2.719404   -2.387750    0.085863
      7          1           0       -3.533417   -2.198346    1.634769
      8          1           0       -1.487476   -1.075684    2.578394
      9          1           0       -0.668838   -1.266165    1.020688
     10          1           0       -1.098520   -2.695649    1.975286
     11          6           0       -4.632077   -0.390814   -0.163583
     12          6           0       -5.124128    0.992272   -0.591303
     13          6           0       -6.479307    0.945217   -1.297751
     14          1           0       -4.562732   -1.037678   -1.049107
     15          1           0       -5.377670   -0.849043    0.500543
     16          1           0       -4.377188    1.447339   -1.254335
     17          1           0       -5.191201    1.636744    0.294571
     18          1           0       -7.241768    0.515158   -0.640254
     19          1           0       -6.423130    0.324678   -2.197960
     20          1           0       -6.812085    1.944642   -1.594852
     21          6           0        2.067021    2.457893    0.647683
     22          6           0        1.245542    1.374306    0.319765
     23          6           0        1.801451    0.170185   -0.122508
     24          6           0        3.188986    0.084103   -0.225589
     25          6           0        4.033988    1.145882    0.093606
     26          6           0        3.456173    2.340430    0.533758
     27          1           0        1.626670    3.389565    0.990428
     28          1           0        0.166385    1.462667    0.407277
     29          1           0        1.188908   -0.684422   -0.383006
     30          1           0        5.106346    1.027637   -0.003791
     31          1           0        4.096601    3.180309    0.787728
     32          7           0        3.789097   -1.185579   -0.692682
     33          8           0        5.014387   -1.235951   -0.774919
     34          8           0        3.022811   -2.106341   -0.967707
 ---------------------------------------------------------------------

 SCF Done:  E(RHF) =  -669.535288719     A.U. after   15 cycles
 E2 =    -0.2091733142D+01 EUMP2 =    -0.67162702186106D+03

 The electronic state is 1-A.
 Alpha  occ. eigenvalues --  -20.60736 -20.60731 -15.85789 -11.31151 -11.27722
 Alpha  occ. eigenvalues --  -11.27706 -11.27459 -11.26741 -11.26713 -11.22125
 Alpha  occ. eigenvalues --  -11.22083 -11.22062 -11.21870 -11.21654 -11.21441
 Alpha  occ. eigenvalues --   -1.59811  -1.39364  -1.19324  -1.08982  -1.08718
 Alpha  occ. eigenvalues --   -1.04733  -1.04034  -0.96494  -0.95555  -0.87508
 Alpha  occ. eigenvalues --   -0.86124  -0.82392  -0.80100  -0.78815  -0.77434
 Alpha  occ. eigenvalues --   -0.72009  -0.71133  -0.70447  -0.65617  -0.64978
 Alpha  occ. eigenvalues --   -0.64733  -0.62169  -0.61369  -0.59845  -0.58098
 Alpha  occ. eigenvalues --   -0.55813  -0.55218  -0.53162  -0.53099  -0.52926
 Alpha  occ. eigenvalues --   -0.52752  -0.50429  -0.48767  -0.48763  -0.48409
 Alpha  occ. eigenvalues --   -0.47131  -0.46351  -0.46262  -0.44770  -0.44296
 Alpha  occ. eigenvalues --   -0.37304  -0.36315
 Alpha virt. eigenvalues --    0.05075   0.11315   0.16534   0.19318   0.22698
 Alpha virt. eigenvalues --    0.23755   0.25250   0.26435   0.26681   0.28178
 Alpha virt. eigenvalues --    0.29161   0.29928   0.31279   0.31525   0.31727

 Mulliken charges:
               1
     1  C   -0.299382
     2  C   -0.300905
     3  C   -0.478309
     4  H    0.142019
     5  H    0.148656
     6  H    0.156226
     7  H    0.155210
     8  H    0.155250
     9  H    0.147062
    10  H    0.168766
    11  C   -0.298532
    12  C   -0.299985
    13  C   -0.476026
    14  H    0.152309
    15  H    0.152093
    16  H    0.150409
    17  H    0.151113
    18  H    0.156324
    19  H    0.156772
    20  H    0.160912
    21  C   -0.171302
    22  C   -0.220510
    23  C   -0.174951
    24  C    0.159425
    25  C   -0.171117
    26  C   -0.218413
    27  H    0.225702
    28  H    0.227149
    29  H    0.278090
    30  H    0.275480
    31  H    0.223316
    32  N    0.488159
    33  O   -0.460563
    34  O   -0.460448
 Sum of Mulliken charges =  -0.00000

 Dipole moment (field-independent basis, Debye):
    X=             -2.2607    Y=              4.3816    Z=              1.6822  Tot=              5.2095
 Quadrupole moment (field-independent basis, Debye-Ang):
   XX=           -104.2148   YY=            -93.4520   ZZ=            -95.6918
   XY=             16.6926   XZ=              5.3125   YZ=             -0.5804

 Normal termination of Gaussian 16 at Thu May  6 09:09:02 2021.
