 Gaussian 16, Revision A.03,
 Gaussian 16:  EM64L-G16RevA.03 25-Dec-2016

 -------------
 #p 6-31g* mp2
 -------------

 ------------------------------------------------------
 Input file generated by CHIRIPA (05-May-2021 14:53:17)
 ------------------------------------------------------
 Symbolic Z-matrix:
 Charge =  0 Multiplicity = 1

                         Standard orientation:
 ---------------------------------------------------------------------
 Center     Atomic      Atomic             Coordinates (Angstroms)
 Number     Number       Type             X           Y           Z
 ---------------------------------------------------------------------
      1          6           0        4.072316   -0.218326   -0.061124
      2          6           0        5.404573   -0.393589   -0.790752
      3          6           0        6.036241   -1.764477   -0.546916
      4          1           0        4.229544   -0.364786    1.016269
      5          1           0        3.378147   -1.005877   -0.385604
      6          1           0        6.095567    0.394887   -0.466021
      7          1           0        5.244192   -0.246506   -1.866513
      8          1           0        5.368623   -2.562395   -0.887815
      9          1           0        6.224835   -1.917358    0.520633
     10          1           0        6.987696   -1.868261   -1.077785
     11          6           0        3.428510    1.147140   -0.295098
     12          6           0        2.096252    1.322402    0.434531
     13          6           0        1.464585    2.693290    0.190694
     14          1           0        4.122679    1.934691    0.029382
     15          1           0        3.271282    1.293599   -1.372490
     16          1           0        2.256634    1.175320    1.510291
     17          1           0        1.405259    0.533927    0.109800
     18          1           0        1.275991    2.846172   -0.876855
     19          1           0        2.132203    3.491209    0.531594
     20          1           0        0.513130    2.797074    0.721564
     21          6           0       -0.899845   -1.080225    1.454322
     22          6           0       -1.679789   -2.035504    0.794286
     23          6           0       -2.806821   -1.649438    0.062642
     24          6           0       -3.126279   -0.293462    0.012003
     25          6           0       -2.369131    0.682070    0.658807
     26          6           0       -1.246395    0.273128    1.384600
     27          1           0       -0.026008   -1.389015    2.020408
     28          1           0       -1.413042   -3.087238    0.846691
     29          1           0       -3.428213   -2.368015   -0.457874
     30          1           0       -2.660199    1.723087    0.588216
     31          1           0       -0.642524    1.017208    1.896194
     32          7           0       -4.317143    0.127359   -0.759458
     33          8           0       -4.577344    1.328227   -0.788580
     34          8           0       -4.967793   -0.751639   -1.320400
 ---------------------------------------------------------------------

 SCF Done:  E(RHF) =  -669.534526779     A.U. after   15 cycles
 E2 =    -0.2093082948D+01 EUMP2 =    -0.67162760972718D+03

 The electronic state is 1-A.
 Alpha  occ. eigenvalues --  -20.60761 -20.60756 -15.85814 -11.31187 -11.27750
 Alpha  occ. eigenvalues --  -11.27732 -11.27469 -11.26772 -11.26719 -11.22387
 Alpha  occ. eigenvalues --  -11.22125 -11.22055 -11.21998 -11.21888 -11.21554
 Alpha  occ. eigenvalues --   -1.59836  -1.39390  -1.19360  -1.09102  -1.08746
 Alpha  occ. eigenvalues --   -1.04777  -1.04186  -0.96642  -0.95583  -0.87653
 Alpha  occ. eigenvalues --   -0.86161  -0.82416  -0.80279  -0.78919  -0.77464
 Alpha  occ. eigenvalues --   -0.72032  -0.71160  -0.70452  -0.65717  -0.65007
 Alpha  occ. eigenvalues --   -0.64813  -0.62198  -0.61579  -0.59978  -0.58252
 Alpha  occ. eigenvalues --   -0.55902  -0.55243  -0.53410  -0.53154  -0.53068
 Alpha  occ. eigenvalues --   -0.52670  -0.50553  -0.48790  -0.48788  -0.48594
 Alpha  occ. eigenvalues --   -0.47288  -0.46452  -0.46356  -0.44794  -0.44457
 Alpha  occ. eigenvalues --   -0.37291  -0.36330
 Alpha virt. eigenvalues --    0.05045   0.11230   0.16463   0.20084   0.22487
 Alpha virt. eigenvalues --    0.23899   0.25738   0.25954   0.26410   0.28439
 Alpha virt. eigenvalues --    0.28701   0.30547   0.30838   0.31398   0.32241

 Mulliken charges:
               1
     1  C   -0.298798
     2  C   -0.300093
     3  C   -0.476051
     4  H    0.147370
     5  H    0.148202
     6  H    0.153304
     7  H    0.153990
     8  H    0.154812
     9  H    0.154661
    10  H    0.162389
    11  C   -0.297993
    12  C   -0.308758
    13  C   -0.475557
    14  H    0.151216
    15  H    0.153309
    16  H    0.143733
    17  H    0.159403
    18  H    0.162153
    19  H    0.158716
    20  H    0.150320
    21  C   -0.172570
    22  C   -0.219148
    23  C   -0.171269
    24  C    0.158340
    25  C   -0.172858
    26  C   -0.216158
    27  H    0.227123
    28  H    0.223431
    29  H    0.275529
    30  H    0.275474
    31  H    0.228489
    32  N    0.488081
    33  O   -0.460255
    34  O   -0.460537
 Sum of Mulliken charges =  -0.00000

 Dipole moment (field-independent basis, Debye):
    X=              4.3071    Y=             -1.4765    Z=              2.6203  Tot=              5.2532
 Quadrupole moment (field-independent basis, Debye-Ang):
   XX=           -121.3418   YY=            -90.0814   ZZ=            -94.4995
   XY=              5.2181   XZ=             -8.1791   YZ=              0.7151

 Normal termination of Gaussian 16 at Thu May  6 18:57:01 2021.
