 Gaussian 16, Revision A.03,
 Gaussian 16:  EM64L-G16RevA.03 25-Dec-2016

 -------------
 #p 6-31g* mp2
 -------------

 ------------------------------------------------------
 Input file generated by CHIRIPA (05-May-2021 14:53:12)
 ------------------------------------------------------
 Symbolic Z-matrix:
 Charge =  0 Multiplicity = 1

                         Standard orientation:
 ---------------------------------------------------------------------
 Center     Atomic      Atomic             Coordinates (Angstroms)
 Number     Number       Type             X           Y           Z
 ---------------------------------------------------------------------
      1          6           0       -4.164432   -0.344641   -0.422417
      2          6           0       -4.040773   -1.736569    0.198252
      3          6           0       -5.216782   -2.647772   -0.154604
      4          1           0       -5.102376    0.117916   -0.085894
      5          1           0       -4.238563   -0.442950   -1.514312
      6          1           0       -3.965506   -1.635583    1.288551
      7          1           0       -3.102922   -2.195789   -0.139636
      8          1           0       -5.291257   -2.778122   -1.239069
      9          1           0       -6.158742   -2.214734    0.197233
     10          1           0       -5.107969   -3.637670    0.299402
     11          6           0       -2.996279    0.577875   -0.078743
     12          6           0       -3.119937    1.969803   -0.699412
     13          6           0       -1.943929    2.881006   -0.346556
     14          1           0       -2.922148    0.676184    1.013152
     15          1           0       -2.058335    0.115319   -0.415266
     16          1           0       -4.057788    2.429023   -0.361524
     17          1           0       -3.195205    1.868818   -1.789711
     18          1           0       -1.001968    2.447969   -0.698393
     19          1           0       -1.869453    3.011357    0.737909
     20          1           0       -2.052742    3.870904   -0.800562
     21          6           0        4.608280   -1.472346   -0.889556
     22          6           0        3.725351   -2.065271    0.018958
     23          6           0        2.718063   -1.309620    0.626337
     24          6           0        2.622060    0.042426    0.300691
     25          6           0        3.486505    0.661994   -0.600508
     26          6           0        4.486253   -0.113002   -1.195849
     27          1           0        5.387837   -2.066866   -1.356708
     28          1           0        3.817752   -3.120742    0.258723
     29          1           0        2.021084   -1.743210    1.333189
     30          1           0        3.369471    1.716385   -0.819559
     31          1           0        5.170538    0.350138   -1.901046
     32          7           0        1.559680    0.852640    0.937324
     33          8           0        1.496143    2.041899    0.633579
     34          8           0        0.810639    0.283084    1.728008
 ---------------------------------------------------------------------

 SCF Done:  E(RHF) =  -669.535883555     A.U. after   15 cycles
 E2 =    -0.2091481298D+01 EUMP2 =    -0.67162736485344D+03

 The electronic state is 1-A.
 Alpha  occ. eigenvalues --  -20.60923 -20.60917 -15.85940 -11.31286 -11.27851
 Alpha  occ. eigenvalues --  -11.27847 -11.27591 -11.26862 -11.26852 -11.20955
 Alpha  occ. eigenvalues --  -11.20589 -11.20580 -11.20433 -11.20245 -11.19445
 Alpha  occ. eigenvalues --   -1.59975  -1.39531  -1.19456  -1.08857  -1.07495
 Alpha  occ. eigenvalues --   -1.04854  -1.02563  -0.95695  -0.94982  -0.86254
 Alpha  occ. eigenvalues --   -0.85988  -0.82527  -0.78655  -0.77579  -0.77239
 Alpha  occ. eigenvalues --   -0.72160  -0.71293  -0.70563  -0.65110  -0.64856
 Alpha  occ. eigenvalues --   -0.64143  -0.62201  -0.59973  -0.58423  -0.56586
 Alpha  occ. eigenvalues --   -0.55357  -0.54273  -0.53187  -0.52946  -0.51708
 Alpha  occ. eigenvalues --   -0.51390  -0.49001  -0.48923  -0.48856  -0.46919
 Alpha  occ. eigenvalues --   -0.45737  -0.44895  -0.44748  -0.44676  -0.42822
 Alpha  occ. eigenvalues --   -0.37435  -0.36457
 Alpha virt. eigenvalues --    0.04925   0.11197   0.16404   0.21332   0.23693
 Alpha virt. eigenvalues --    0.25264   0.27252   0.27510   0.28125   0.28461
 Alpha virt. eigenvalues --    0.29074   0.30909   0.32296   0.32495   0.32563

 Mulliken charges:
               1
     1  C   -0.297978
     2  C   -0.298189
     3  C   -0.475085
     4  H    0.147826
     5  H    0.145674
     6  H    0.153816
     7  H    0.149229
     8  H    0.153179
     9  H    0.154669
    10  H    0.157503
    11  C   -0.295173
    12  C   -0.301271
    13  C   -0.473396
    14  H    0.157282
    15  H    0.147188
    16  H    0.147265
    17  H    0.144989
    18  H    0.163176
    19  H    0.163466
    20  H    0.151287
    21  C   -0.170661
    22  C   -0.218571
    23  C   -0.170996
    24  C    0.158149
    25  C   -0.171076
    26  C   -0.218539
    27  H    0.225972
    28  H    0.223833
    29  H    0.275999
    30  H    0.275902
    31  H    0.223826
    32  N    0.487420
    33  O   -0.458004
    34  O   -0.458710
 Sum of Mulliken charges =  -0.00000

 Dipole moment (field-independent basis, Debye):
    X=              4.0357    Y=             -2.8090    Z=             -2.0809  Tot=              5.3392
 Quadrupole moment (field-independent basis, Debye-Ang):
   XX=            -76.5734   YY=            -92.7979   ZZ=            -94.8960
   XY=             -6.8718   XZ=             -6.9225   YZ=             -2.9113

 Normal termination of Gaussian 16 at Wed May  5 16:59:44 2021.
