 Gaussian 16, Revision A.03,
 Gaussian 16:  EM64L-G16RevA.03 25-Dec-2016

 -------------
 #p 6-31g* mp2
 -------------

 ------------------------------------------------------
 Input file generated by CHIRIPA (05-May-2021 14:51:09)
 ------------------------------------------------------
 Symbolic Z-matrix:
 Charge =  0 Multiplicity = 1

                         Standard orientation:
 ---------------------------------------------------------------------
 Center     Atomic      Atomic             Coordinates (Angstroms)
 Number     Number       Type             X           Y           Z
 ---------------------------------------------------------------------
      1          6           0       -3.408048    0.264024   -0.036605
      2          6           0       -2.215487   -0.189097    0.806286
      3          6           0       -0.950312    0.621953    0.524640
      4          1           0       -3.148399    0.183275   -1.101033
      5          1           0       -3.602503    1.327868    0.157863
      6          1           0       -2.024208   -1.252120    0.611324
      7          1           0       -2.478073   -0.107441    1.868829
      8          1           0       -1.117495    1.682823    0.737257
      9          1           0       -0.661050    0.531641   -0.527393
     10          1           0       -0.110242    0.281315    1.137917
     11          6           0       -4.680275   -0.537306    0.233649
     12          6           0       -5.872837   -0.084186   -0.609242
     13          6           0       -7.138012   -0.895236   -0.327596
     14          1           0       -4.485821   -1.601150    0.039181
     15          1           0       -4.939925   -0.456558    1.298077
     16          1           0       -5.610251   -0.165841   -1.671785
     17          1           0       -6.064116    0.978837   -0.414280
     18          1           0       -7.427273   -0.804923    0.724437
     19          1           0       -6.970829   -1.956105   -0.540213
     20          1           0       -7.978081   -0.554598   -0.940873
     21          6           0        4.181163   -0.540165    0.227968
     22          6           0        5.137363   -1.419820   -0.578180
     23          6           0        5.401623   -2.770507    0.087858
     24          1           0        4.598233   -0.380304    1.231682
     25          1           0        3.230817   -1.074244    0.365805
     26          1           0        6.085137   -0.883681   -0.715640
     27          1           0        4.718059   -1.577447   -1.580154
     28          1           0        4.467856   -3.328713    0.210696
     29          1           0        5.842702   -2.631004    1.080122
     30          1           0        6.087650   -3.383226   -0.505271
     31          6           0        3.907161    0.813448   -0.425012
     32          6           0        2.950961    1.693103    0.381136
     33          6           0        2.686701    3.043790   -0.284902
     34          1           0        4.857506    1.347526   -0.562849
     35          1           0        3.490090    0.653587   -1.428725
     36          1           0        3.370265    1.850731    1.383111
     37          1           0        2.003187    1.156963    0.518596
     38          1           0        2.245621    2.904287   -1.277166
     39          1           0        3.620467    3.601995   -0.407740
     40          1           0        2.000674    3.656509    0.308227
 ---------------------------------------------------------------------

 SCF Done:  E(RHF) =  -470.733066565     A.U. after   11 cycles
 E2 =    -0.1582662105D+01 EUMP2 =    -0.47231572867001D+03

 The electronic state is 1-A.
 Alpha  occ. eigenvalues --  -11.21648 -11.21623 -11.21571 -11.21438 -11.21433
 Alpha  occ. eigenvalues --  -11.21378 -11.21348 -11.21278 -11.21138 -11.21088
 Alpha  occ. eigenvalues --  -11.21051 -11.20973  -1.08466  -1.08361  -1.03578
 Alpha  occ. eigenvalues --   -1.03450  -0.96032  -0.95908  -0.87055  -0.86924
 Alpha  occ. eigenvalues --   -0.79686  -0.79480  -0.78283  -0.78168  -0.65097
 Alpha  occ. eigenvalues --   -0.64998  -0.60975  -0.60875  -0.59448  -0.59226
 Alpha  occ. eigenvalues --   -0.57636  -0.57520  -0.55309  -0.55206  -0.52783
 Alpha  occ. eigenvalues --   -0.52590  -0.52450  -0.52327  -0.49968  -0.49845
 Alpha  occ. eigenvalues --   -0.47961  -0.47826  -0.46673  -0.46545  -0.45829
 Alpha  occ. eigenvalues --   -0.45745  -0.45717  -0.45643  -0.43770  -0.43680
 Alpha virt. eigenvalues --    0.21910   0.22998   0.23812   0.24625   0.26061
 Alpha virt. eigenvalues --    0.26574   0.27100   0.27443   0.27943   0.28942
 Alpha virt. eigenvalues --    0.30742   0.30824   0.31732   0.31939   0.32263

 Mulliken charges:
               1
     1  C   -0.298695
     2  C   -0.299871
     3  C   -0.478110
     4  H    0.149620
     5  H    0.149697
     6  H    0.151897
     7  H    0.152265
     8  H    0.156345
     9  H    0.155024
    10  H    0.162246
    11  C   -0.298329
    12  C   -0.299636
    13  C   -0.475720
    14  H    0.149534
    15  H    0.149749
    16  H    0.151951
    17  H    0.152005
    18  H    0.155226
    19  H    0.155197
    20  H    0.160335
    21  C   -0.298387
    22  C   -0.299542
    23  C   -0.475670
    24  H    0.149473
    25  H    0.148996
    26  H    0.151950
    27  H    0.151798
    28  H    0.155024
    29  H    0.155121
    30  H    0.160128
    31  C   -0.297413
    32  C   -0.309885
    33  C   -0.474604
    34  H    0.149053
    35  H    0.149076
    36  H    0.150638
    37  H    0.164501
    38  H    0.154731
    39  H    0.154433
    40  H    0.159850
 Sum of Mulliken charges =  -0.00000

 Dipole moment (field-independent basis, Debye):
    X=             -0.0569    Y=             -0.0031    Z=              0.0103  Tot=              0.0579
 Quadrupole moment (field-independent basis, Debye-Ang):
   XX=            -85.3450   YY=            -85.5371   ZZ=            -84.1336
   XY=             -0.1168   XZ=              0.1918   YZ=              1.1280

 Normal termination of Gaussian 16 at Thu May  6 00:32:49 2021.
