 Gaussian 16, Revision A.03,
 Gaussian 16:  EM64L-G16RevA.03 25-Dec-2016

 -------------
 #p 6-31g* mp2
 -------------

 ------------------------------------------------------
 Input file generated by CHIRIPA (05-May-2021 14:55:20)
 ------------------------------------------------------
 Symbolic Z-matrix:
 Charge =  0 Multiplicity = 1

                         Standard orientation:
 ---------------------------------------------------------------------
 Center     Atomic      Atomic             Coordinates (Angstroms)
 Number     Number       Type             X           Y           Z
 ---------------------------------------------------------------------
      1          6           0       -1.737638    1.875144   -0.302890
      2          6           0       -1.577522    0.517591   -0.599427
      3          6           0       -2.647802   -0.370862   -0.459067
      4          6           0       -3.869713    0.134657   -0.017850
      5          6           0       -4.060647    1.481799    0.285534
      6          6           0       -2.976505    2.352074    0.137868
      7          1           0       -0.900834    2.558255   -0.414763
      8          1           0       -0.616549    0.144394   -0.941917
      9          1           0       -2.551558   -1.426618   -0.681633
     10          1           0       -5.030679    1.824251    0.624919
     11          1           0       -3.103757    3.405866    0.368897
     12          7           0       -5.010108   -0.796286    0.134611
     13          8           0       -6.076409   -0.325959    0.525034
     14          8           0       -4.816055   -1.978660   -0.139201
     15          6           0        3.970864   -0.301234   -0.114155
     16          6           0        3.151914   -1.541842    0.243891
     17          6           0        1.669829   -1.391478   -0.100505
     18          1           0        3.556697    0.568639    0.413797
     19          1           0        3.862027   -0.095986   -1.188130
     20          1           0        3.263372   -1.745497    1.316606
     21          1           0        3.568196   -2.408898   -0.284825
     22          1           0        1.539790   -1.211303   -1.172526
     23          1           0        1.233235   -0.544132    0.438005
     24          1           0        1.103124   -2.289743    0.163736
     25          6           0        5.454449   -0.436271    0.224176
     26          6           0        6.273398    0.804338   -0.133868
     27          6           0        7.755483    0.653973    0.210527
     28          1           0        5.563285   -0.641518    1.298152
     29          1           0        5.868615   -1.306143   -0.303775
     30          1           0        5.857116    1.671394    0.394847
     31          1           0        6.161940    1.007993   -1.206585
     32          1           0        8.192077   -0.193372   -0.327983
     33          1           0        7.885521    0.473798    1.282547
     34          1           0        8.322188    1.552239   -0.053715
 ---------------------------------------------------------------------

 SCF Done:  E(RHF) =  -669.535184461     A.U. after   15 cycles
 E2 =    -0.2091369183D+01 EUMP2 =    -0.67162655364405D+03

 The electronic state is 1-A.
 Alpha  occ. eigenvalues --  -20.60694 -20.60688 -15.85744 -11.31091 -11.27658
 Alpha  occ. eigenvalues --  -11.27627 -11.27383 -11.26680 -11.26554 -11.22394
 Alpha  occ. eigenvalues --  -11.22162 -11.22126 -11.22115 -11.21944 -11.21490
 Alpha  occ. eigenvalues --   -1.59769  -1.39323  -1.19254  -1.09104  -1.08655
 Alpha  occ. eigenvalues --   -1.04653  -1.04224  -0.96710  -0.95495  -0.87753
 Alpha  occ. eigenvalues --   -0.86043  -0.82327  -0.80317  -0.78900  -0.77366
 Alpha  occ. eigenvalues --   -0.71964  -0.71092  -0.70369  -0.65727  -0.64902
 Alpha  occ. eigenvalues --   -0.64672  -0.62025  -0.61614  -0.60066  -0.58292
 Alpha  occ. eigenvalues --   -0.56002  -0.55168  -0.53475  -0.53280  -0.52975
 Alpha  occ. eigenvalues --   -0.52497  -0.50647  -0.48763  -0.48720  -0.48537
 Alpha  occ. eigenvalues --   -0.47317  -0.46439  -0.46347  -0.44733  -0.44466
 Alpha  occ. eigenvalues --   -0.37240  -0.36239
 Alpha virt. eigenvalues --    0.05148   0.11328   0.16623   0.20945   0.22292
 Alpha virt. eigenvalues --    0.23756   0.25600   0.26101   0.26922   0.28186
 Alpha virt. eigenvalues --    0.29002   0.29914   0.30924   0.31262   0.31953

 Mulliken charges:
               1
     1  C   -0.174026
     2  C   -0.223701
     3  C   -0.174225
     4  C    0.158736
     5  C   -0.171504
     6  C   -0.218250
     7  H    0.225340
     8  H    0.236672
     9  H    0.275285
    10  H    0.275138
    11  H    0.222801
    12  N    0.488107
    13  O   -0.460830
    14  O   -0.460625
    15  C   -0.298950
    16  C   -0.299442
    17  C   -0.485023
    18  H    0.147499
    19  H    0.148668
    20  H    0.156041
    21  H    0.155628
    22  H    0.150709
    23  H    0.154789
    24  H    0.166446
    25  C   -0.298810
    26  C   -0.299987
    27  C   -0.476065
    28  H    0.151220
    29  H    0.151482
    30  H    0.151330
    31  H    0.151928
    32  H    0.156244
    33  H    0.156110
    34  H    0.161268
 Sum of Mulliken charges =  -0.00000

 Dipole moment (field-independent basis, Debye):
    X=              4.2595    Y=              3.2048    Z=             -0.4969  Tot=              5.3536
 Quadrupole moment (field-independent basis, Debye-Ang):
   XX=           -125.2248   YY=            -91.0045   ZZ=            -94.2774
   XY=            -15.0315   XZ=              0.7408   YZ=              1.5132

 Normal termination of Gaussian 16 at Thu May  6 15:46:53 2021.
