 Gaussian 16, Revision A.03,
 Gaussian 16:  EM64L-G16RevA.03 25-Dec-2016

 -------------
 #p 6-31g* mp2
 -------------

 ------------------------------------------------------
 Input file generated by CHIRIPA (05-May-2021 14:53:12)
 ------------------------------------------------------
 Symbolic Z-matrix:
 Charge =  0 Multiplicity = 1

                         Standard orientation:
 ---------------------------------------------------------------------
 Center     Atomic      Atomic             Coordinates (Angstroms)
 Number     Number       Type             X           Y           Z
 ---------------------------------------------------------------------
      1          6           0       -3.936897    0.891417    0.241692
      2          6           0       -2.985441    1.943079   -0.329906
      3          6           0       -2.985725    3.241590    0.477349
      4          1           0       -4.954190    1.305019    0.273215
      5          1           0       -3.653990    0.677739    1.281740
      6          1           0       -3.269205    2.153696   -1.369009
      7          1           0       -1.970328    1.526858   -0.360251
      8          1           0       -2.681332    3.052180    1.511791
      9          1           0       -3.987589    3.682579    0.497301
     10          1           0       -2.298731    3.979371    0.051229
     11          6           0       -3.947743   -0.412317   -0.554479
     12          6           0       -4.899199   -1.463978    0.017119
     13          6           0       -4.898915   -2.762490   -0.790136
     14          1           0       -4.230650   -0.198638   -1.594527
     15          1           0       -2.930450   -0.825918   -0.586003
     16          1           0       -5.914313   -1.047757    0.047464
     17          1           0       -4.615436   -1.674595    1.056222
     18          1           0       -3.897051   -3.203479   -0.810089
     19          1           0       -5.203308   -2.573079   -1.824578
     20          1           0       -5.585910   -3.500270   -0.364016
     21          6           0        0.735698   -0.460643    1.014181
     22          6           0        1.094555    0.708807    0.335853
     23          6           0        2.390575    0.871183   -0.162660
     24          6           0        3.306570   -0.160708    0.035947
     25          6           0        2.979403   -1.337635    0.707585
     26          6           0        1.677606   -1.478338    1.197558
     27          1           0       -0.273326   -0.578363    1.398121
     28          1           0        0.365133    1.500820    0.191968
     29          1           0        2.695191    1.766143   -0.691501
     30          1           0        3.728409   -2.109672    0.835518
     31          1           0        1.401722   -2.387636    1.723969
     32          7           0        4.681667   -0.000280   -0.487285
     33          8           0        5.470186   -0.924136   -0.299227
     34          8           0        4.944910    1.046281   -1.075546
 ---------------------------------------------------------------------

 SCF Done:  E(RHF) =  -669.535474241     A.U. after   15 cycles
 E2 =    -0.2091527020D+01 EUMP2 =    -0.67162700126080D+03

 The electronic state is 1-A.
 Alpha  occ. eigenvalues --  -20.60763 -20.60758 -15.85816 -11.31191 -11.27760
 Alpha  occ. eigenvalues --  -11.27751 -11.27511 -11.26782 -11.26750 -11.22715
 Alpha  occ. eigenvalues --  -11.22385 -11.22370 -11.22254 -11.22059 -11.21720
 Alpha  occ. eigenvalues --   -1.59838  -1.39391  -1.19363  -1.09373  -1.08759
 Alpha  occ. eigenvalues --   -1.04768  -1.04431  -0.96858  -0.95592  -0.87868
 Alpha  occ. eigenvalues --   -0.86170  -0.82423  -0.80504  -0.79168  -0.77467
 Alpha  occ. eigenvalues --   -0.72035  -0.71161  -0.70479  -0.66063  -0.65015
 Alpha  occ. eigenvalues --   -0.64768  -0.62204  -0.61746  -0.60227  -0.58465
 Alpha  occ. eigenvalues --   -0.56157  -0.55262  -0.53540  -0.53268  -0.53095
 Alpha  occ. eigenvalues --   -0.52868  -0.50798  -0.48846  -0.48789  -0.48749
 Alpha  occ. eigenvalues --   -0.47544  -0.46697  -0.46635  -0.44794  -0.44684
 Alpha  occ. eigenvalues --   -0.37345  -0.36365
 Alpha virt. eigenvalues --    0.05059   0.11216   0.16522   0.18498   0.22520
 Alpha virt. eigenvalues --    0.23563   0.25224   0.25764   0.26543   0.28119
 Alpha virt. eigenvalues --    0.29577   0.30511   0.30865   0.31239   0.31862

 Mulliken charges:
               1
     1  C   -0.298589
     2  C   -0.305334
     3  C   -0.477266
     4  H    0.154461
     5  H    0.145659
     6  H    0.158025
     7  H    0.143952
     8  H    0.154104
     9  H    0.160647
    10  H    0.161336
    11  C   -0.299431
    12  C   -0.300014
    13  C   -0.475975
    14  H    0.153528
    15  H    0.145997
    16  H    0.154609
    17  H    0.149724
    18  H    0.154369
    19  H    0.157553
    20  H    0.162386
    21  C   -0.173477
    22  C   -0.223409
    23  C   -0.171308
    24  C    0.158882
    25  C   -0.171046
    26  C   -0.218512
    27  H    0.226102
    28  H    0.230709
    29  H    0.276000
    30  H    0.275650
    31  H    0.223389
    32  N    0.487972
    33  O   -0.460403
    34  O   -0.460289
 Sum of Mulliken charges =  -0.00000

 Dipole moment (field-independent basis, Debye):
    X=             -5.0572    Y=             -0.5385    Z=              1.7825  Tot=              5.3891
 Quadrupole moment (field-independent basis, Debye-Ang):
   XX=           -125.5342   YY=            -91.1598   ZZ=            -94.6018
   XY=             -2.9091   XZ=              7.0835   YZ=             -2.9271

 Normal termination of Gaussian 16 at Wed May  5 15:28:32 2021.
