 Gaussian 16, Revision A.03,
 Gaussian 16:  EM64L-G16RevA.03 25-Dec-2016

 -------------
 #p 6-31g* mp2
 -------------

 ------------------------------------------------------
 Input file generated by CHIRIPA (05-May-2021 14:53:14)
 ------------------------------------------------------
 Symbolic Z-matrix:
 Charge =  0 Multiplicity = 1

                         Standard orientation:
 ---------------------------------------------------------------------
 Center     Atomic      Atomic             Coordinates (Angstroms)
 Number     Number       Type             X           Y           Z
 ---------------------------------------------------------------------
      1          6           0       -4.873297   -0.111520    0.215170
      2          6           0       -5.635678    0.212154   -1.070129
      3          6           0       -7.151620    0.107466   -0.900564
      4          1           0       -5.137607   -1.125484    0.545266
      5          1           0       -5.202294    0.571765    1.010329
      6          1           0       -5.304339   -0.470634   -1.862991
      7          1           0       -5.369375    1.225393   -1.397308
      8          1           0       -7.501694    0.800492   -0.128706
      9          1           0       -7.436288   -0.905172   -0.597036
     10          1           0       -7.676919    0.342910   -1.831417
     11          6           0       -3.356700   -0.011188    0.061562
     12          6           0       -2.594319   -0.334862    1.346861
     13          6           0       -1.078376   -0.230173    1.177296
     14          1           0       -3.027703   -0.694473   -0.733597
     15          1           0       -3.092389    1.002776   -0.268534
     16          1           0       -2.860622   -1.348101    1.674040
     17          1           0       -2.925658    0.347926    2.139723
     18          1           0       -0.793708    0.782465    0.873768
     19          1           0       -0.728302   -0.923199    0.405438
     20          1           0       -0.553078   -0.465618    2.108149
     21          6           0        3.348049   -2.465051   -0.290014
     22          6           0        4.013411   -1.659639   -1.220135
     23          6           0        3.946563   -0.266159   -1.129055
     24          6           0        3.201964    0.290879   -0.090512
     25          6           0        2.528007   -0.484730    0.851561
     26          6           0        2.608774   -1.876065    0.741047
     27          1           0        3.405384   -3.546706   -0.368316
     28          1           0        4.588285   -2.114297   -2.021914
     29          1           0        4.451921    0.381051   -1.835561
     30          1           0        1.962778   -0.002477    1.639830
     31          1           0        2.091024   -2.499077    1.464813
     32          7           0        3.123827    1.764958    0.016198
     33          8           0        2.461221    2.231203    0.940430
     34          8           0        3.726670    2.426183   -0.826416
 ---------------------------------------------------------------------

 SCF Done:  E(RHF) =  -669.535563540     A.U. after   15 cycles
 E2 =    -0.2091683329D+01 EUMP2 =    -0.67162724686940D+03

 The electronic state is 1-A.
 Alpha  occ. eigenvalues --  -20.60741 -20.60736 -15.85787 -11.31110 -11.27707
 Alpha  occ. eigenvalues --  -11.27654 -11.27452 -11.26711 -11.26689 -11.21737
 Alpha  occ. eigenvalues --  -11.21609 -11.21452 -11.21390 -11.21309 -11.21075
 Alpha  occ. eigenvalues --   -1.59811  -1.39366  -1.19300  -1.08703  -1.08493
 Alpha  occ. eigenvalues --   -1.04701  -1.03618  -0.96091  -0.95535  -0.87121
 Alpha  occ. eigenvalues --   -0.86091  -0.82373  -0.79697  -0.78297  -0.77409
 Alpha  occ. eigenvalues --   -0.72007  -0.71131  -0.70414  -0.65120  -0.64952
 Alpha  occ. eigenvalues --   -0.64704  -0.62068  -0.61005  -0.59457  -0.57689
 Alpha  occ. eigenvalues --   -0.55356  -0.55216  -0.53162  -0.52915  -0.52600
 Alpha  occ. eigenvalues --   -0.52440  -0.49998  -0.48764  -0.48760  -0.48000
 Alpha  occ. eigenvalues --   -0.46695  -0.45841  -0.45754  -0.44772  -0.43885
 Alpha  occ. eigenvalues --   -0.37290  -0.36260
 Alpha virt. eigenvalues --    0.05091   0.11326   0.16554   0.20937   0.22852
 Alpha virt. eigenvalues --    0.24094   0.26191   0.26619   0.27456   0.28011
 Alpha virt. eigenvalues --    0.28848   0.30665   0.31447   0.31758   0.31836

 Mulliken charges:
               1
     1  C   -0.298435
     2  C   -0.299827
     3  C   -0.475762
     4  H    0.148426
     5  H    0.150622
     6  H    0.151258
     7  H    0.153562
     8  H    0.155753
     9  H    0.154466
    10  H    0.160531
    11  C   -0.299165
    12  C   -0.300070
    13  C   -0.481923
    14  H    0.148281
    15  H    0.153565
    16  H    0.149223
    17  H    0.154713
    18  H    0.168991
    19  H    0.154608
    20  H    0.149566
    21  C   -0.171035
    22  C   -0.218972
    23  C   -0.170875
    24  C    0.156629
    25  C   -0.167071
    26  C   -0.220286
    27  H    0.225218
    28  H    0.223051
    29  H    0.275281
    30  H    0.279442
    31  H    0.223506
    32  N    0.488239
    33  O   -0.460945
    34  O   -0.460567
 Sum of Mulliken charges =  -0.00000

 Dipole moment (field-independent basis, Debye):
    X=              0.2193    Y=             -5.1118    Z=             -0.4053  Tot=              5.1325
 Quadrupole moment (field-independent basis, Debye-Ang):
   XX=            -93.1033   YY=            -97.4530   ZZ=            -91.7834
   XY=            -16.7118   XZ=             -3.9896   YZ=              0.3041

 Normal termination of Gaussian 16 at Thu May  6 12:05:04 2021.
