 Gaussian 16, Revision A.03,
 Gaussian 16:  EM64L-G16RevA.03 25-Dec-2016

 -------------
 #p 6-31g* mp2
 -------------

 ------------------------------------------------------
 Input file generated by CHIRIPA (05-May-2021 14:53:16)
 ------------------------------------------------------
 Symbolic Z-matrix:
 Charge =  0 Multiplicity = 1

                         Standard orientation:
 ---------------------------------------------------------------------
 Center     Atomic      Atomic             Coordinates (Angstroms)
 Number     Number       Type             X           Y           Z
 ---------------------------------------------------------------------
      1          6           0       -4.086931    0.107571   -0.269226
      2          6           0       -4.976390   -0.660527    0.708974
      3          6           0       -5.899707   -1.658674    0.009702
      4          1           0       -4.721142    0.637477   -0.993050
      5          1           0       -3.485006   -0.608122   -0.846170
      6          1           0       -5.575452    0.056470    1.284870
      7          1           0       -4.339992   -1.188512    1.430671
      8          1           0       -5.316002   -2.396161   -0.550658
      9          1           0       -6.558482   -1.144105   -0.697287
     10          1           0       -6.526600   -2.196698    0.727613
     11          6           0       -3.158244    1.109261    0.414795
     12          6           0       -2.268786    1.877359   -0.563405
     13          6           0       -1.345469    2.875506    0.135867
     14          1           0       -3.760169    1.824954    0.991739
     15          1           0       -2.524033    0.579355    1.138619
     16          1           0       -2.905184    2.405344   -1.285102
     17          1           0       -1.669724    1.160362   -1.139301
     18          1           0       -0.686694    2.360937    0.842856
     19          1           0       -1.929173    3.612993    0.696227
     20          1           0       -0.718575    3.413530   -0.582044
     21          6           0        1.125579   -2.310774   -0.359346
     22          6           0        0.784373   -0.984625   -0.644703
     23          6           0        1.720781    0.040465   -0.480759
     24          6           0        2.994938   -0.297881   -0.027620
     25          6           0        3.365155   -1.609573    0.265111
     26          6           0        2.412612   -2.618474    0.093851
     27          1           0        0.391887   -3.100801   -0.489544
     28          1           0       -0.214402   -0.742724   -0.996810
     29          1           0        1.483335    1.075581   -0.694238
     30          1           0        4.368721   -1.819744    0.614542
     31          1           0        2.680397   -3.647492    0.316241
     32          7           0        3.994812    0.778767    0.149813
     33          8           0        5.110644    0.454538    0.550352
     34          8           0        3.643748    1.926485   -0.115016
 ---------------------------------------------------------------------

 SCF Done:  E(RHF) =  -669.535413054     A.U. after   15 cycles
 E2 =    -0.2092001363D+01 EUMP2 =    -0.67162741441691D+03

 The electronic state is 1-A.
 Alpha  occ. eigenvalues --  -20.60746 -20.60740 -15.85799 -11.31170 -11.27748
 Alpha  occ. eigenvalues --  -11.27722 -11.27492 -11.26766 -11.26737 -11.22436
 Alpha  occ. eigenvalues --  -11.22237 -11.22146 -11.22074 -11.21651 -11.21614
 Alpha  occ. eigenvalues --   -1.59821  -1.39374  -1.19347  -1.09159  -1.08742
 Alpha  occ. eigenvalues --   -1.04756  -1.04203  -0.96626  -0.95574  -0.87635
 Alpha  occ. eigenvalues --   -0.86149  -0.82410  -0.80270  -0.78970  -0.77454
 Alpha  occ. eigenvalues --   -0.72017  -0.71145  -0.70458  -0.65864  -0.64997
 Alpha  occ. eigenvalues --   -0.64736  -0.62248  -0.61455  -0.59984  -0.58236
 Alpha  occ. eigenvalues --   -0.55918  -0.55246  -0.53294  -0.53085  -0.53035
 Alpha  occ. eigenvalues --   -0.52869  -0.50550  -0.48783  -0.48771  -0.48564
 Alpha  occ. eigenvalues --   -0.47320  -0.46495  -0.46436  -0.44778  -0.44458
 Alpha  occ. eigenvalues --   -0.37332  -0.36351
 Alpha virt. eigenvalues --    0.05065   0.11271   0.16505   0.18618   0.22723
 Alpha virt. eigenvalues --    0.23516   0.24742   0.26202   0.26648   0.28647
 Alpha virt. eigenvalues --    0.29486   0.30474   0.31125   0.31334   0.32125

 Mulliken charges:
               1
     1  C   -0.297541
     2  C   -0.300165
     3  C   -0.475704
     4  H    0.152789
     5  H    0.141308
     6  H    0.154905
     7  H    0.151505
     8  H    0.152864
     9  H    0.156946
    10  H    0.162284
    11  C   -0.300181
    12  C   -0.302990
    13  C   -0.480833
    14  H    0.154289
    15  H    0.150328
    16  H    0.157023
    17  H    0.140677
    18  H    0.157694
    19  H    0.160525
    20  H    0.164939
    21  C   -0.171419
    22  C   -0.225156
    23  C   -0.175397
    24  C    0.158608
    25  C   -0.170788
    26  C   -0.218563
    27  H    0.225712
    28  H    0.230604
    29  H    0.279564
    30  H    0.275581
    31  H    0.223348
    32  N    0.487987
    33  O   -0.460638
    34  O   -0.460104
 Sum of Mulliken charges =  -0.00000

 Dipole moment (field-independent basis, Debye):
    X=             -3.6770    Y=             -3.6607    Z=             -0.5428  Tot=              5.2169
 Quadrupole moment (field-independent basis, Debye-Ang):
   XX=           -113.2824   YY=            -90.1022   ZZ=            -95.2237
   XY=            -14.3793   XZ=             -0.9874   YZ=             -1.1863

 Normal termination of Gaussian 16 at Thu May  6 20:27:52 2021.
