 Gaussian 16, Revision A.03,
 Gaussian 16:  EM64L-G16RevA.03 25-Dec-2016

 -------------
 #p 6-31g* mp2
 -------------

 ------------------------------------------------------
 Input file generated by CHIRIPA (05-May-2021 14:53:16)
 ------------------------------------------------------
 Symbolic Z-matrix:
 Charge =  0 Multiplicity = 1

                         Standard orientation:
 ---------------------------------------------------------------------
 Center     Atomic      Atomic             Coordinates (Angstroms)
 Number     Number       Type             X           Y           Z
 ---------------------------------------------------------------------
      1          6           0       -2.613215    0.607862   -0.517894
      2          6           0       -2.563345    2.134443   -0.446850
      3          6           0       -1.519770    2.736277   -1.388414
      4          1           0       -1.621195    0.203229   -0.274763
      5          1           0       -2.830662    0.302733   -1.550855
      6          1           0       -2.347426    2.436632    0.585950
      7          1           0       -3.555649    2.535482   -0.689991
      8          1           0       -1.734808    2.463525   -2.426665
      9          1           0       -0.519720    2.364113   -1.143474
     10          1           0       -1.501089    3.828536   -1.321483
     11          6           0       -3.651686   -0.008546    0.417707
     12          6           0       -3.701556   -1.535127    0.346663
     13          6           0       -4.745131   -2.136960    1.288226
     14          1           0       -3.434239    0.296583    1.450668
     15          1           0       -4.643706    0.396088    0.174576
     16          1           0       -2.709253   -1.936166    0.589804
     17          1           0       -3.917475   -1.837316   -0.686138
     18          1           0       -5.745181   -1.764797    1.043286
     19          1           0       -4.530093   -1.864208    2.326478
     20          1           0       -4.763812   -3.229220    1.221296
     21          6           0        2.666032    1.665327    1.685402
     22          6           0        3.185576    0.404796    1.997905
     23          6           0        3.070090   -0.654921    1.093356
     24          6           0        2.426074   -0.417738   -0.120019
     25          6           0        1.898092    0.826724   -0.460371
     26          6           0        2.025079    1.871903    0.459423
     27          1           0        2.760212    2.482894    2.394000
     28          1           0        3.683851    0.241465    2.949267
     29          1           0        3.463172   -1.640872    1.309698
     30          1           0        1.406667    0.958972   -1.416630
     31          1           0        1.620637    2.849791    0.214048
     32          7           0        2.297726   -1.531918   -1.085695
     33          8           0        1.725889   -1.297153   -2.148016
     34          8           0        2.771392   -2.618882   -0.761985
 ---------------------------------------------------------------------

 SCF Done:  E(RHF) =  -669.535014862     A.U. after   15 cycles
 E2 =    -0.2092582292D+01 EUMP2 =    -0.67162759715481D+03

 The electronic state is 1-A.
 Alpha  occ. eigenvalues --  -20.60792 -20.60785 -15.85845 -11.31235 -11.27803
 Alpha  occ. eigenvalues --  -11.27781 -11.27542 -11.26825 -11.26800 -11.21935
 Alpha  occ. eigenvalues --  -11.21661 -11.21484 -11.21452 -11.21376 -11.20973
 Alpha  occ. eigenvalues --   -1.59866  -1.39418  -1.19411  -1.08797  -1.08525
 Alpha  occ. eigenvalues --   -1.04825  -1.03681  -0.96155  -0.95628  -0.87182
 Alpha  occ. eigenvalues --   -0.86206  -0.82468  -0.79755  -0.78297  -0.77502
 Alpha  occ. eigenvalues --   -0.72062  -0.71191  -0.70520  -0.65196  -0.65039
 Alpha  occ. eigenvalues --   -0.64812  -0.62263  -0.61023  -0.59527  -0.57733
 Alpha  occ. eigenvalues --   -0.55503  -0.55253  -0.53148  -0.52924  -0.52847
 Alpha  occ. eigenvalues --   -0.52558  -0.50108  -0.48823  -0.48813  -0.48056
 Alpha  occ. eigenvalues --   -0.46767  -0.45846  -0.45746  -0.44814  -0.43909
 Alpha  occ. eigenvalues --   -0.37387  -0.36388
 Alpha virt. eigenvalues --    0.04988   0.11184   0.16394   0.20602   0.22945
 Alpha virt. eigenvalues --    0.24134   0.25952   0.26800   0.27392   0.28005
 Alpha virt. eigenvalues --    0.29409   0.30361   0.31410   0.31765   0.31940

 Mulliken charges:
               1
     1  C   -0.300068
     2  C   -0.298499
     3  C   -0.481355
     4  H    0.151301
     5  H    0.153898
     6  H    0.149476
     7  H    0.154097
     8  H    0.161870
     9  H    0.146650
    10  H    0.158877
    11  C   -0.298568
    12  C   -0.300018
    13  C   -0.475896
    14  H    0.147636
    15  H    0.149295
    16  H    0.154294
    17  H    0.154753
    18  H    0.154535
    19  H    0.153659
    20  H    0.161857
    21  C   -0.171342
    22  C   -0.218466
    23  C   -0.171226
    24  C    0.157606
    25  C   -0.173496
    26  C   -0.219405
    27  H    0.225913
    28  H    0.223699
    29  H    0.275766
    30  H    0.278895
    31  H    0.226205
    32  N    0.488393
    33  O   -0.459933
    34  O   -0.460403
 Sum of Mulliken charges =  -0.00000

 Dipole moment (field-independent basis, Debye):
    X=              0.4085    Y=              3.8428    Z=              3.3718  Tot=              5.1286
 Quadrupole moment (field-independent basis, Debye-Ang):
   XX=            -91.8143   YY=            -97.1133   ZZ=            -93.7308
   XY=              7.4042   XZ=             11.3414   YZ=             -3.6927

 Normal termination of Gaussian 16 at Thu May  6 05:56:55 2021.
