 Gaussian 16, Revision A.03,
 Gaussian 16:  EM64L-G16RevA.03 25-Dec-2016

 -------------
 #p 6-31g* mp2
 -------------

 ------------------------------------------------------
 Input file generated by CHIRIPA (05-May-2021 14:53:15)
 ------------------------------------------------------
 Symbolic Z-matrix:
 Charge =  0 Multiplicity = 1

                         Standard orientation:
 ---------------------------------------------------------------------
 Center     Atomic      Atomic             Coordinates (Angstroms)
 Number     Number       Type             X           Y           Z
 ---------------------------------------------------------------------
      1          6           0        3.165990    0.845215   -0.705084
      2          6           0        2.781660    2.029094    0.183007
      3          6           0        2.451363    3.287679   -0.619901
      4          1           0        4.029825    1.124386   -1.323790
      5          1           0        2.340485    0.632784   -1.398489
      6          1           0        3.607089    2.238347    0.875464
      7          1           0        1.918758    1.747007    0.799809
      8          1           0        1.613211    3.102239   -1.299396
      9          1           0        3.311134    3.596371   -1.223311
     10          1           0        2.179346    4.121589    0.034668
     11          6           0        3.498981   -0.420357    0.083062
     12          6           0        3.883310   -1.604236   -0.805029
     13          6           0        4.213607   -2.862821   -0.002121
     14          1           0        4.324485   -0.207926    0.776467
     15          1           0        2.635145   -0.699528    0.701768
     16          1           0        4.746212   -1.322149   -1.421831
     17          1           0        3.057881   -1.813489   -1.497485
     18          1           0        3.353836   -3.171513    0.601290
     19          1           0        5.051760   -2.677381    0.677374
     20          1           0        4.485624   -3.696731   -0.656690
     21          6           0       -4.768359   -0.363089   -1.037830
     22          6           0       -4.009864   -1.506224   -0.764980
     23          6           0       -2.808785   -1.408868   -0.056121
     24          6           0       -2.394214   -0.146903    0.366801
     25          6           0       -3.127675    1.010525    0.110505
     26          6           0       -4.325624    0.889429   -0.599988
     27          1           0       -5.700170   -0.447939   -1.589123
     28          1           0       -4.351243   -2.480246   -1.103783
     29          1           0       -2.201954   -2.277528    0.168832
     30          1           0       -2.761510    1.967784    0.461213
     31          1           0       -4.912625    1.778913   -0.810448
     32          7           0       -1.124343   -0.031269    1.118103
     33          8           0       -0.780938    1.092085    1.479747
     34          8           0       -0.496467   -1.066180    1.331104
 ---------------------------------------------------------------------

 SCF Done:  E(RHF) =  -669.537035428     A.U. after   15 cycles
 E2 =    -0.2091888620D+01 EUMP2 =    -0.67162892404766D+03

 The electronic state is 1-A.
 Alpha  occ. eigenvalues --  -20.61178 -20.61171 -15.86170 -11.31415 -11.27964
 Alpha  occ. eigenvalues --  -11.27959 -11.27688 -11.26951 -11.26941 -11.20605
 Alpha  occ. eigenvalues --  -11.20208 -11.20164 -11.20097 -11.20021 -11.20010
 Alpha  occ. eigenvalues --   -1.60211  -1.39769  -1.19572  -1.08992  -1.07207
 Alpha  occ. eigenvalues --   -1.04954  -1.02390  -0.95845  -0.94878  -0.86358
 Alpha  occ. eigenvalues --   -0.85903  -0.82682  -0.78446  -0.77745  -0.76996
 Alpha  occ. eigenvalues --   -0.72387  -0.71514  -0.70679  -0.65227  -0.64957
 Alpha  occ. eigenvalues --   -0.63825  -0.62301  -0.59783  -0.58249  -0.56479
 Alpha  occ. eigenvalues --   -0.55462  -0.54174  -0.53291  -0.53044  -0.51611
 Alpha  occ. eigenvalues --   -0.51309  -0.49206  -0.49161  -0.48802  -0.46781
 Alpha  occ. eigenvalues --   -0.45579  -0.45020  -0.44587  -0.44333  -0.42628
 Alpha  occ. eigenvalues --   -0.37544  -0.36550
 Alpha virt. eigenvalues --    0.04734   0.11106   0.16229   0.21239   0.24056
 Alpha virt. eigenvalues --    0.25365   0.27177   0.27746   0.28173   0.28875
 Alpha virt. eigenvalues --    0.29123   0.30863   0.32227   0.32536   0.32894

 Mulliken charges:
               1
     1  C   -0.295377
     2  C   -0.312560
     3  C   -0.472856
     4  H    0.143220
     5  H    0.143390
     6  H    0.146938
     7  H    0.181157
     8  H    0.149594
     9  H    0.149497
    10  H    0.158187
    11  C   -0.306400
    12  C   -0.297287
    13  C   -0.476097
    14  H    0.145608
    15  H    0.171305
    16  H    0.147274
    17  H    0.148201
    18  H    0.159834
    19  H    0.153501
    20  H    0.154825
    21  C   -0.170250
    22  C   -0.218605
    23  C   -0.170566
    24  C    0.158060
    25  C   -0.170569
    26  C   -0.218591
    27  H    0.226518
    28  H    0.224300
    29  H    0.275996
    30  H    0.276352
    31  H    0.224382
    32  N    0.488768
    33  O   -0.458240
    34  O   -0.459507
 Sum of Mulliken charges =  -0.00000

 Dipole moment (field-independent basis, Debye):
    X=             -4.8969    Y=             -0.4768    Z=             -2.4187  Tot=              5.4824
 Quadrupole moment (field-independent basis, Debye-Ang):
   XX=            -74.0208   YY=            -91.2823   ZZ=            -97.8748
   XY=              1.3364   XZ=              5.4869   YZ=              1.2566

 Normal termination of Gaussian 16 at Thu May  6 17:09:53 2021.
