 Gaussian 16, Revision A.03,
 Gaussian 16:  EM64L-G16RevA.03 25-Dec-2016

 -------------
 #p 6-31g* mp2
 -------------

 ------------------------------------------------------
 Input file generated by CHIRIPA (05-May-2021 14:57:25)
 ------------------------------------------------------
 Symbolic Z-matrix:
 Charge =  0 Multiplicity = 1

                         Standard orientation:
 ---------------------------------------------------------------------
 Center     Atomic      Atomic             Coordinates (Angstroms)
 Number     Number       Type             X           Y           Z
 ---------------------------------------------------------------------
      1          6           0       -4.214426    1.599297    1.123074
      2          6           0       -3.584990    0.684285    1.973418
      3          6           0       -2.885696   -0.407022    1.449409
      4          6           0       -2.835850   -0.553415    0.063994
      5          6           0       -3.452623    0.341150   -0.809296
      6          6           0       -4.146353    1.425117   -0.263125
      7          1           0       -4.755493    2.444200    1.538745
      8          1           0       -3.636193    0.817045    3.050357
      9          1           0       -2.389276   -1.130469    2.084711
     10          1           0       -3.384062    0.182351   -1.878642
     11          1           0       -4.634224    2.134147   -0.925924
     12          7           0       -2.098484   -1.704847   -0.502482
     13          8           0       -2.069360   -1.811481   -1.726581
     14          8           0       -1.563623   -2.478903    0.288339
     15          6           0        1.284658    1.700174   -1.492130
     16          6           0        1.310740    0.305672   -1.597966
     17          6           0        2.233228   -0.445024   -0.863106
     18          6           0        3.119090    0.234434   -0.028315
     19          6           0        3.117900    1.622660    0.098640
     20          6           0        2.186731    2.353067   -0.645657
     21          1           0        0.564676    2.275453   -2.066652
     22          1           0        0.611370   -0.204052   -2.254556
     23          1           0        2.275299   -1.525619   -0.926064
     24          1           0        3.827634    2.102549    0.761513
     25          1           0        2.168770    3.435950   -0.561474
     26          7           0        4.100282   -0.549555    0.754644
     27          8           0        4.870115    0.072881    1.483044
     28          8           0        4.080927   -1.771636    0.625101
 ---------------------------------------------------------------------

 SCF Done:  E(RHF) =  -868.339149349     A.U. after   16 cycles
 E2 =    -0.2599479161D+01 EUMP2 =    -0.87093862850924D+03

 The electronic state is 1-A.
 Alpha  occ. eigenvalues --  -20.61563 -20.61493 -20.60324 -20.60296 -15.86553
 Alpha  occ. eigenvalues --  -15.85363 -11.31787 -11.30706 -11.28382 -11.28291
 Alpha  occ. eigenvalues --  -11.28049 -11.27353 -11.27340 -11.27283 -11.27169
 Alpha  occ. eigenvalues --  -11.27070 -11.26380 -11.26147  -1.60594  -1.59390
 Alpha  occ. eigenvalues --   -1.40151  -1.38941  -1.19945  -1.18886  -1.09364
 Alpha  occ. eigenvalues --   -1.08300  -1.05329  -1.04263  -0.96221  -0.95132
 Alpha  occ. eigenvalues --   -0.86732  -0.85671  -0.83056  -0.81945  -0.78124
 Alpha  occ. eigenvalues --   -0.76982  -0.72771  -0.71908  -0.71582  -0.71050
 Alpha  occ. eigenvalues --   -0.70714  -0.70017  -0.65600  -0.65327  -0.64532
 Alpha  occ. eigenvalues --   -0.64243  -0.62677  -0.61579  -0.55829  -0.54819
 Alpha  occ. eigenvalues --   -0.53666  -0.53416  -0.52631  -0.52332  -0.49549
 Alpha  occ. eigenvalues --   -0.49518  -0.48347  -0.48330  -0.45573  -0.44350
 Alpha  occ. eigenvalues --   -0.37919  -0.36948  -0.36887  -0.35873
 Alpha virt. eigenvalues --    0.04372   0.05519   0.10715   0.11762   0.15878
 Alpha virt. eigenvalues --    0.16995   0.20860   0.21963   0.26783   0.27529
 Alpha virt. eigenvalues --    0.28186   0.28744   0.30455   0.31478   0.32041

 Mulliken charges:
               1
     1  C   -0.170470
     2  C   -0.218370
     3  C   -0.169403
     4  C    0.159288
     5  C   -0.174085
     6  C   -0.219213
     7  H    0.227257
     8  H    0.226362
     9  H    0.278901
    10  H    0.272745
    11  H    0.223484
    12  N    0.487853
    13  O   -0.467900
    14  O   -0.453800
    15  C   -0.171711
    16  C   -0.229640
    17  C   -0.169750
    18  C    0.157483
    19  C   -0.172486
    20  C   -0.219197
    21  H    0.221217
    22  H    0.238169
    23  H    0.283605
    24  H    0.273313
    25  H    0.219579
    26  N    0.487834
    27  O   -0.463734
    28  O   -0.457331
 Sum of Mulliken charges =  -0.00000

 Dipole moment (field-independent basis, Debye):
    X=             -6.2312    Y=              6.6133    Z=             -0.6342  Tot=              9.1086
 Quadrupole moment (field-independent basis, Debye-Ang):
   XX=           -112.2656   YY=           -104.8346   ZZ=            -99.9949
   XY=             -1.5963   XZ=            -12.9864   YZ=             -1.2275

 Normal termination of Gaussian 16 at Thu May  6 01:56:36 2021.
