 Gaussian 16, Revision A.03,
 Gaussian 16:  EM64L-G16RevA.03 25-Dec-2016

 -------------
 #p 6-31g* mp2
 -------------

 ------------------------------------------------------
 Input file generated by CHIRIPA (05-May-2021 14:53:16)
 ------------------------------------------------------
 Symbolic Z-matrix:
 Charge =  0 Multiplicity = 1

                         Standard orientation:
 ---------------------------------------------------------------------
 Center     Atomic      Atomic             Coordinates (Angstroms)
 Number     Number       Type             X           Y           Z
 ---------------------------------------------------------------------
      1          6           0       -4.652444   -0.327271   -0.244680
      2          6           0       -5.904498   -0.913648    0.408395
      3          6           0       -6.344000   -2.230444   -0.232449
      4          1           0       -4.844367   -0.169788   -1.314871
      5          1           0       -3.835586   -1.059182   -0.178007
      6          1           0       -6.718365   -0.180304    0.341737
      7          1           0       -5.709636   -1.069575    1.477194
      8          1           0       -5.551002   -2.981077   -0.153042
      9          1           0       -6.565463   -2.086753   -1.294950
     10          1           0       -7.240736   -2.631967    0.249737
     11          6           0       -4.200694    0.989206    0.385034
     12          6           0       -2.948639    1.575582   -0.268041
     13          6           0       -2.509138    2.892378    0.372803
     14          1           0       -5.017552    1.721116    0.318360
     15          1           0       -4.008771    0.831722    1.455225
     16          1           0       -3.143502    1.731509   -1.336840
     17          1           0       -2.134773    0.842238   -0.201383
     18          1           0       -2.287674    2.748688    1.435304
     19          1           0       -3.302136    3.643011    0.293396
     20          1           0       -1.612402    3.293901   -0.109383
     21          6           0        0.955330   -0.382759   -0.347837
     22          6           0        1.620507    0.835792   -0.518707
     23          6           0        3.007052    0.916337   -0.358853
     24          6           0        3.700230   -0.246562   -0.026498
     25          6           0        3.066096   -1.475320    0.150470
     26          6           0        1.678972   -1.532397   -0.014382
     27          1           0       -0.121997   -0.436213   -0.473957
     28          1           0        1.061089    1.730233   -0.777685
     29          1           0        3.547243    1.846739   -0.485200
     30          1           0        3.650848   -2.349904    0.408511
     31          1           0        1.165031   -2.480097    0.118941
     32          7           0        5.168411   -0.173714    0.145378
     33          8           0        5.756226   -1.212615    0.438285
     34          8           0        5.703554    0.920907   -0.016067
 ---------------------------------------------------------------------

 SCF Done:  E(RHF) =  -669.535479793     A.U. after   15 cycles
 E2 =    -0.2091261602D+01 EUMP2 =    -0.67162674139510D+03

 The electronic state is 1-A.
 Alpha  occ. eigenvalues --  -20.60736 -20.60731 -15.85789 -11.31151 -11.27722
 Alpha  occ. eigenvalues --  -11.27716 -11.27439 -11.26735 -11.26721 -11.22821
 Alpha  occ. eigenvalues --  -11.22340 -11.22311 -11.22242 -11.22134 -11.21692
 Alpha  occ. eigenvalues --   -1.59811  -1.39365  -1.19322  -1.09360  -1.08716
 Alpha  occ. eigenvalues --   -1.04726  -1.04438  -0.96858  -0.95554  -0.87874
 Alpha  occ. eigenvalues --   -0.86122  -0.82390  -0.80527  -0.79161  -0.77434
 Alpha  occ. eigenvalues --   -0.72007  -0.71135  -0.70452  -0.65991  -0.64974
 Alpha  occ. eigenvalues --   -0.64732  -0.62083  -0.61825  -0.60253  -0.58476
 Alpha  occ. eigenvalues --   -0.56129  -0.55253  -0.53565  -0.53281  -0.53054
 Alpha  occ. eigenvalues --   -0.52808  -0.50789  -0.48838  -0.48763  -0.48749
 Alpha  occ. eigenvalues --   -0.47554  -0.46693  -0.46605  -0.44771  -0.44690
 Alpha  occ. eigenvalues --   -0.37299  -0.36331
 Alpha virt. eigenvalues --    0.05096   0.11314   0.16567   0.18814   0.22405
 Alpha virt. eigenvalues --    0.23469   0.24474   0.25756   0.26238   0.28140
 Alpha virt. eigenvalues --    0.29052   0.29570   0.30895   0.31615   0.32173

 Mulliken charges:
               1
     1  C   -0.297884
     2  C   -0.300385
     3  C   -0.476061
     4  H    0.151335
     5  H    0.143864
     6  H    0.154150
     7  H    0.153136
     8  H    0.154341
     9  H    0.156202
    10  H    0.162787
    11  C   -0.298436
    12  C   -0.305671
    13  C   -0.476011
    14  H    0.153688
    15  H    0.151903
    16  H    0.155134
    17  H    0.143258
    18  H    0.159178
    19  H    0.160798
    20  H    0.155675
    21  C   -0.176259
    22  C   -0.222042
    23  C   -0.171064
    24  C    0.158402
    25  C   -0.170805
    26  C   -0.219516
    27  H    0.233830
    28  H    0.224975
    29  H    0.275599
    30  H    0.275393
    31  H    0.223516
    32  N    0.488024
    33  O   -0.460545
    34  O   -0.460505
 Sum of Mulliken charges =  -0.00000

 Dipole moment (field-independent basis, Debye):
    X=             -5.4397    Y=             -0.1959    Z=             -0.5662  Tot=              5.4726
 Quadrupole moment (field-independent basis, Debye-Ang):
   XX=           -132.4013   YY=            -90.2398   ZZ=            -95.0240
   XY=             -0.7586   XZ=             -1.9686   YZ=             -1.6634

 Normal termination of Gaussian 16 at Wed May  5 17:13:19 2021.
