 Gaussian 16, Revision A.03,
 Gaussian 16:  EM64L-G16RevA.03 25-Dec-2016

 -------------
 #p 6-31g* mp2
 -------------

 ------------------------------------------------------
 Input file generated by CHIRIPA (05-May-2021 14:55:20)
 ------------------------------------------------------
 Symbolic Z-matrix:
 Charge =  0 Multiplicity = 1

                         Standard orientation:
 ---------------------------------------------------------------------
 Center     Atomic      Atomic             Coordinates (Angstroms)
 Number     Number       Type             X           Y           Z
 ---------------------------------------------------------------------
      1          6           0        0.614841    0.177555   -0.666532
      2          6           0        1.280444   -1.038101   -0.855416
      3          6           0        2.636797   -1.161460   -0.539763
      4          6           0        3.299678   -0.043861   -0.034936
      5          6           0        2.664291    1.180804    0.164480
      6          6           0        1.307668    1.281182   -0.158083
      7          1           0       -0.438911    0.264456   -0.914423
      8          1           0        0.744919   -1.896859   -1.250122
      9          1           0        3.176585   -2.090687   -0.676086
     10          1           0        3.224829    2.019288    0.559650
     11          1           0        0.793321    2.226522   -0.010355
     12          7           0        4.735732   -0.162291    0.302890
     13          8           0        5.297188    0.837148    0.746201
     14          8           0        5.272662   -1.252313    0.117968
     15          6           0       -3.806593   -0.672137   -0.159335
     16          6           0       -4.396326   -1.772115    0.723982
     17          6           0       -4.160049   -3.173479    0.159938
     18          1           0       -4.244922   -0.743195   -1.164204
     19          1           0       -2.727647   -0.844300   -0.276076
     20          1           0       -5.473594   -1.597148    0.840155
     21          1           0       -3.956685   -1.698310    1.726920
     22          1           0       -3.088196   -3.372917    0.060159
     23          1           0       -4.613725   -3.271182   -0.831644
     24          1           0       -4.589783   -3.944438    0.807094
     25          6           0       -4.034686    0.734454    0.391305
     26          6           0       -3.444953    1.834432   -0.492012
     27          6           0       -3.681229    3.235796    0.072032
     28          1           0       -5.113633    0.906617    0.508046
     29          1           0       -3.596357    0.805512    1.396174
     30          1           0       -3.884595    1.760627   -1.494950
     31          1           0       -2.367685    1.659465   -0.608186
     32          1           0       -3.227555    3.333498    1.063614
     33          1           0       -4.753083    3.435235    0.171810
     34          1           0       -3.251497    4.006755   -0.575124
 ---------------------------------------------------------------------

 SCF Done:  E(RHF) =  -669.535329286     A.U. after   15 cycles
 E2 =    -0.2091796000D+01 EUMP2 =    -0.67162712528640D+03

 The electronic state is 1-A.
 Alpha  occ. eigenvalues --  -20.60743 -20.60738 -15.85797 -11.31161 -11.27731
 Alpha  occ. eigenvalues --  -11.27728 -11.27432 -11.26742 -11.26732 -11.22836
 Alpha  occ. eigenvalues --  -11.22505 -11.22429 -11.22391 -11.22063 -11.21846
 Alpha  occ. eigenvalues --   -1.59819  -1.39372  -1.19332  -1.09474  -1.08725
 Alpha  occ. eigenvalues --   -1.04736  -1.04509  -0.96936  -0.95564  -0.87951
 Alpha  occ. eigenvalues --   -0.86132  -0.82401  -0.80590  -0.79304  -0.77443
 Alpha  occ. eigenvalues --   -0.72015  -0.71142  -0.70473  -0.66104  -0.64984
 Alpha  occ. eigenvalues --   -0.64733  -0.62097  -0.61896  -0.60311  -0.58555
 Alpha  occ. eigenvalues --   -0.56224  -0.55264  -0.53608  -0.53357  -0.53064
 Alpha  occ. eigenvalues --   -0.52826  -0.50884  -0.48895  -0.48774  -0.48769
 Alpha  occ. eigenvalues --   -0.47632  -0.46808  -0.46728  -0.44778  -0.44773
 Alpha  occ. eigenvalues --   -0.37306  -0.36343
 Alpha virt. eigenvalues --    0.05080   0.11303   0.16513   0.18715   0.22710
 Alpha virt. eigenvalues --    0.22992   0.24881   0.26094   0.26547   0.27090
 Alpha virt. eigenvalues --    0.29836   0.30323   0.30874   0.31115   0.31626

 Mulliken charges:
               1
     1  C   -0.179751
     2  C   -0.220495
     3  C   -0.170666
     4  C    0.158218
     5  C   -0.170759
     6  C   -0.221577
     7  H    0.238743
     8  H    0.223594
     9  H    0.275488
    10  H    0.275507
    11  H    0.223442
    12  N    0.487999
    13  O   -0.460513
    14  O   -0.460469
    15  C   -0.300826
    16  C   -0.300328
    17  C   -0.475851
    18  H    0.151929
    19  H    0.141213
    20  H    0.155211
    21  H    0.154649
    22  H    0.152245
    23  H    0.156220
    24  H    0.164147
    25  C   -0.299208
    26  C   -0.303451
    27  C   -0.476672
    28  H    0.154473
    29  H    0.152292
    30  H    0.155916
    31  H    0.141272
    32  H    0.156361
    33  H    0.160090
    34  H    0.161558
 Sum of Mulliken charges =  -0.00000

 Dipole moment (field-independent basis, Debye):
    X=             -5.3480    Y=              0.4267    Z=             -1.1269  Tot=              5.4821
 Quadrupole moment (field-independent basis, Debye-Ang):
   XX=           -126.7445   YY=            -91.0117   ZZ=            -94.8372
   XY=              1.6303   XZ=             -3.4734   YZ=              1.3066

 Normal termination of Gaussian 16 at Thu May  6 15:47:43 2021.
