 Gaussian 16, Revision A.03,
 Gaussian 16:  EM64L-G16RevA.03 25-Dec-2016

 -------------
 #p 6-31g* mp2
 -------------

 ------------------------------------------------------
 Input file generated by CHIRIPA (05-May-2021 14:51:08)
 ------------------------------------------------------
 Symbolic Z-matrix:
 Charge =  0 Multiplicity = 1

                         Standard orientation:
 ---------------------------------------------------------------------
 Center     Atomic      Atomic             Coordinates (Angstroms)
 Number     Number       Type             X           Y           Z
 ---------------------------------------------------------------------
      1          6           0        3.434994   -0.577111    0.213478
      2          6           0        3.961916    0.422974   -0.816167
      3          6           0        5.353244    0.952602   -0.467604
      4          1           0        3.409354   -0.097334    1.201456
      5          1           0        4.139012   -1.417096    0.292087
      6          1           0        3.256420    1.260149   -0.893819
      7          1           0        3.986124   -0.059179   -1.801844
      8          1           0        6.074762    0.131225   -0.409719
      9          1           0        5.340912    1.458048    0.503465
     10          1           0        5.710601    1.665910   -1.216836
     11          6           0        2.045087   -1.115549   -0.121144
     12          6           0        1.518164   -2.115634    0.908500
     13          6           0        0.126837   -2.645262    0.559937
     14          1           0        1.341069   -0.275564   -0.199753
     15          1           0        2.070726   -1.595325   -1.109123
     16          1           0        1.493957   -1.633481    1.894177
     17          1           0        2.223661   -2.952808    0.986153
     18          1           0        0.139168   -3.150708   -0.411131
     19          1           0       -0.594682   -1.823884    0.502052
     20          1           0       -0.230520   -3.358569    1.309169
     21          6           0       -3.419873    0.510597    0.046261
     22          6           0       -3.555465   -0.805428   -0.720340
     23          6           0       -4.920987   -1.465098   -0.525457
     24          1           0       -3.589188    0.323819    1.115555
     25          1           0       -4.211015    1.199957   -0.279736
     26          1           0       -2.763459   -1.491606   -0.393993
     27          1           0       -3.385619   -0.615529   -1.787911
     28          1           0       -5.721658   -0.802029   -0.868774
     29          1           0       -5.095964   -1.683084    0.533064
     30          1           0       -4.996217   -2.404368   -1.082209
     31          6           0       -2.060207    1.182063   -0.138595
     32          6           0       -1.924615    2.498088    0.628007
     33          6           0       -0.559093    3.157758    0.433123
     34          1           0       -1.269066    0.492703    0.187402
     35          1           0       -1.890893    1.368841   -1.207889
     36          1           0       -2.094462    2.308188    1.695577
     37          1           0       -2.716622    3.184265    0.301659
     38          1           0       -0.384117    3.375743   -0.625397
     39          1           0        0.241578    2.494689    0.776440
     40          1           0       -0.483864    4.097027    0.989876
 ---------------------------------------------------------------------

 SCF Done:  E(RHF) =  -470.732701162     A.U. after   11 cycles
 E2 =    -0.1584276852D+01 EUMP2 =    -0.47231697801378D+03

 The electronic state is 1-A.
 Alpha  occ. eigenvalues --  -11.21654 -11.21633 -11.21583 -11.21538 -11.21435
 Alpha  occ. eigenvalues --  -11.21406 -11.21366 -11.21347 -11.21148 -11.21090
 Alpha  occ. eigenvalues --  -11.21054 -11.21035  -1.08477  -1.08420  -1.03554
 Alpha  occ. eigenvalues --   -1.03532  -0.96009  -0.95986  -0.87036  -0.86994
 Alpha  occ. eigenvalues --   -0.79651  -0.79578  -0.78378  -0.78140  -0.65273
 Alpha  occ. eigenvalues --   -0.64923  -0.60986  -0.60909  -0.59373  -0.59360
 Alpha  occ. eigenvalues --   -0.57625  -0.57584  -0.55375  -0.55210  -0.52709
 Alpha  occ. eigenvalues --   -0.52682  -0.52458  -0.52389  -0.49987  -0.49928
 Alpha  occ. eigenvalues --   -0.48038  -0.47888  -0.46812  -0.46642  -0.46098
 Alpha  occ. eigenvalues --   -0.45767  -0.45749  -0.45060  -0.43799  -0.43792
 Alpha virt. eigenvalues --    0.20066   0.22467   0.24033   0.24196   0.25488
 Alpha virt. eigenvalues --    0.26644   0.27038   0.27144   0.28494   0.29790
 Alpha virt. eigenvalues --    0.30864   0.31577   0.31669   0.31905   0.32050

 Mulliken charges:
               1
     1  C   -0.297972
     2  C   -0.300221
     3  C   -0.475677
     4  H    0.149273
     5  H    0.149582
     6  H    0.152963
     7  H    0.151902
     8  H    0.155043
     9  H    0.155217
    10  H    0.160318
    11  C   -0.303909
    12  C   -0.299074
    13  C   -0.485529
    14  H    0.154316
    15  H    0.149979
    16  H    0.151202
    17  H    0.152240
    18  H    0.155864
    19  H    0.163892
    20  H    0.160301
    21  C   -0.297788
    22  C   -0.307201
    23  C   -0.475178
    24  H    0.149247
    25  H    0.149728
    26  H    0.160357
    27  H    0.151706
    28  H    0.154834
    29  H    0.155010
    30  H    0.160352
    31  C   -0.307953
    32  C   -0.299146
    33  C   -0.477242
    34  H    0.157369
    35  H    0.150196
    36  H    0.151922
    37  H    0.152477
    38  H    0.155614
    39  H    0.155222
    40  H    0.160765
 Sum of Mulliken charges =  -0.00000

 Dipole moment (field-independent basis, Debye):
    X=             -0.0052    Y=              0.0010    Z=             -0.0147  Tot=              0.0156
 Quadrupole moment (field-independent basis, Debye-Ang):
   XX=            -86.4407   YY=            -84.4808   ZZ=            -83.8606
   XY=             -1.5367   XZ=             -0.0390   YZ=             -0.0150

 Normal termination of Gaussian 16 at Thu May  6 02:06:20 2021.
