 Gaussian 16, Revision A.03,
 Gaussian 16:  EM64L-G16RevA.03 25-Dec-2016

 -------------
 #p 6-31g* mp2
 -------------

 ------------------------------------------------------
 Input file generated by CHIRIPA (05-May-2021 14:55:24)
 ------------------------------------------------------
 Symbolic Z-matrix:
 Charge =  0 Multiplicity = 1

                         Standard orientation:
 ---------------------------------------------------------------------
 Center     Atomic      Atomic             Coordinates (Angstroms)
 Number     Number       Type             X           Y           Z
 ---------------------------------------------------------------------
      1          6           0       -5.156724    0.256286    1.097300
      2          6           0       -5.121059   -0.695125    0.072572
      3          6           0       -3.920188   -0.992709   -0.578506
      4          6           0       -2.768746   -0.316893   -0.177579
      5          6           0       -2.772025    0.636087    0.839824
      6          6           0       -3.984161    0.917689    1.476986
      7          1           0       -6.093965    0.481248    1.597667
      8          1           0       -6.030132   -1.210337   -0.224391
      9          1           0       -3.864116   -1.724789   -1.374956
     10          1           0       -1.849432    1.133262    1.113790
     11          1           0       -4.008876    1.657036    2.272474
     12          7           0       -1.491475   -0.623472   -0.859480
     13          8           0       -0.490885   -0.014218   -0.487637
     14          8           0       -1.515126   -1.467216   -1.752885
     15          6           0        3.330714    0.715395   -0.375016
     16          6           0        3.127552    2.177690    0.022982
     17          6           0        2.159184    2.913495   -0.903651
     18          1           0        3.703967    0.671447   -1.407342
     19          1           0        2.358484    0.203384   -0.372107
     20          1           0        4.100062    2.686450    0.020664
     21          1           0        2.754921    2.218169    1.054546
     22          1           0        1.176058    2.431855   -0.894353
     23          1           0        2.528841    2.902797   -1.934108
     24          1           0        2.028573    3.957112   -0.600894
     25          6           0        4.296180   -0.033501    0.541912
     26          6           0        4.499342   -1.495796    0.143913
     27          6           0        5.467709   -2.231600    1.070545
     28          1           0        5.268411    0.478510    0.539001
     29          1           0        3.922926    0.010447    1.574236
     30          1           0        4.871973   -1.536276   -0.887651
     31          1           0        3.526833   -2.004556    0.146230
     32          1           0        5.098053   -2.220903    2.101002
     33          1           0        6.450837   -1.749962    1.061247
     34          1           0        5.598322   -3.275218    0.767788
 ---------------------------------------------------------------------

 SCF Done:  E(RHF) =  -669.536470804     A.U. after   15 cycles
 E2 =    -0.2091537249D+01 EUMP2 =    -0.67162800805395D+03

 The electronic state is 1-A.
 Alpha  occ. eigenvalues --  -20.61097 -20.61084 -15.86117 -11.31377 -11.27933
 Alpha  occ. eigenvalues --  -11.27929 -11.27660 -11.26927 -11.26917 -11.20591
 Alpha  occ. eigenvalues --  -11.20481 -11.20300 -11.20291 -11.19880 -11.19863
 Alpha  occ. eigenvalues --   -1.60144  -1.39704  -1.19539  -1.08955  -1.07258
 Alpha  occ. eigenvalues --   -1.04926  -1.02462  -0.95807  -0.94904  -0.86330
 Alpha  occ. eigenvalues --   -0.85926  -0.82647  -0.78537  -0.77708  -0.77026
 Alpha  occ. eigenvalues --   -0.72347  -0.71449  -0.70648  -0.65201  -0.64929
 Alpha  occ. eigenvalues --   -0.63876  -0.62275  -0.59858  -0.58286  -0.56517
 Alpha  occ. eigenvalues --   -0.55433  -0.54186  -0.53260  -0.53018  -0.51663
 Alpha  occ. eigenvalues --   -0.51328  -0.49153  -0.49094  -0.48797  -0.46850
 Alpha  occ. eigenvalues --   -0.45575  -0.45092  -0.44621  -0.44375  -0.42682
 Alpha  occ. eigenvalues --   -0.37514  -0.36524
 Alpha virt. eigenvalues --    0.04797   0.11131   0.16287   0.21177   0.23965
 Alpha virt. eigenvalues --    0.25190   0.27134   0.27557   0.28142   0.28938
 Alpha virt. eigenvalues --    0.29079   0.30771   0.31897   0.32606   0.32754

 Mulliken charges:
               1
     1  C   -0.170389
     2  C   -0.218615
     3  C   -0.170247
     4  C    0.157142
     5  C   -0.170632
     6  C   -0.218518
     7  H    0.226347
     8  H    0.224120
     9  H    0.276057
    10  H    0.275751
    11  H    0.224249
    12  N    0.495229
    13  O   -0.467019
    14  O   -0.457308
    15  C   -0.311205
    16  C   -0.295793
    17  C   -0.482142
    18  H    0.145922
    19  H    0.180750
    20  H    0.145799
    21  H    0.145726
    22  H    0.171087
    23  H    0.152951
    24  H    0.150668
    25  C   -0.296843
    26  C   -0.299590
    27  C   -0.474971
    28  H    0.144316
    29  H    0.145534
    30  H    0.151112
    31  H    0.157055
    32  H    0.152688
    33  H    0.152701
    34  H    0.158068
 Sum of Mulliken charges =  -0.00000

 Dipole moment (field-independent basis, Debye):
    X=             -4.9431    Y=              0.9090    Z=              2.3101  Tot=              5.5315
 Quadrupole moment (field-independent basis, Debye-Ang):
   XX=            -70.3691   YY=            -94.9042   ZZ=            -94.5247
   XY=              0.5039   XZ=             -5.6507   YZ=              1.7415

 Normal termination of Gaussian 16 at Thu May  6 12:41:31 2021.
