 Gaussian 16, Revision A.03,
 Gaussian 16:  EM64L-G16RevA.03 25-Dec-2016

 -------------
 #p 6-31g* mp2
 -------------

 ------------------------------------------------------
 Input file generated by CHIRIPA (05-May-2021 14:51:14)
 ------------------------------------------------------
 Symbolic Z-matrix:
 Charge =  0 Multiplicity = 1

                         Standard orientation:
 ---------------------------------------------------------------------
 Center     Atomic      Atomic             Coordinates (Angstroms)
 Number     Number       Type             X           Y           Z
 ---------------------------------------------------------------------
      1          6           0        2.747685    0.810733   -0.045705
      2          6           0        3.131476    2.247889   -0.399647
      3          6           0        2.075786    3.265488    0.033716
      4          1           0        1.786235    0.567691   -0.518452
      5          1           0        2.589925    0.737341    1.039247
      6          1           0        3.289815    2.318230   -1.483435
      7          1           0        4.092218    2.487474    0.073841
      8          1           0        1.923094    3.224556    1.117050
      9          1           0        1.116132    3.054351   -0.449074
     10          1           0        2.370427    4.286275   -0.229039
     11          6           0        3.793133   -0.218128   -0.472567
     12          6           0        3.409342   -1.655283   -0.118625
     13          6           0        4.465032   -2.672883   -0.551988
     14          1           0        3.950893   -0.144735   -1.557518
     15          1           0        4.754583    0.024914    0.000180
     16          1           0        2.448600   -1.894868   -0.592112
     17          1           0        3.251003   -1.725624    0.965163
     18          1           0        5.424686   -2.461745   -0.069198
     19          1           0        4.617724   -2.631951   -1.635321
     20          1           0        4.170391   -3.693670   -0.289232
     21          6           0       -3.929906    0.081189    0.181705
     22          6           0       -4.895762   -0.580946   -0.801496
     23          6           0       -6.210625    0.185961   -0.945645
     24          1           0       -4.416343    0.165525    1.163138
     25          1           0       -3.722382    1.106856   -0.153462
     26          1           0       -5.100319   -1.605525   -0.465324
     27          1           0       -4.406900   -0.663889   -1.780654
     28          1           0       -6.025612    1.203944   -1.303533
     29          1           0       -6.722971    0.256958    0.019271
     30          1           0       -6.886180   -0.304861   -1.653162
     31          6           0       -2.610912   -0.673795    0.336567
     32          6           0       -1.645056   -0.011659    1.319767
     33          6           0       -0.330192   -0.778567    1.463917
     34          1           0       -2.818437   -1.699462    0.671734
     35          1           0       -2.124476   -0.758131   -0.644867
     36          1           0       -2.133919    0.071284    2.298926
     37          1           0       -1.440500    1.012920    0.983596
     38          1           0        0.182152   -0.849563    0.499001
     39          1           0       -0.515206   -1.796549    1.821804
     40          1           0        0.345362   -0.287744    2.171433
 ---------------------------------------------------------------------

 SCF Done:  E(RHF) =  -470.732225730     A.U. after   11 cycles
 E2 =    -0.1583821568D+01 EUMP2 =    -0.47231604729720D+03

 The electronic state is 1-A.
 Alpha  occ. eigenvalues --  -11.21593 -11.21585 -11.21563 -11.21536 -11.21385
 Alpha  occ. eigenvalues --  -11.21367 -11.21325 -11.21297 -11.21088 -11.21064
 Alpha  occ. eigenvalues --  -11.21045 -11.20905  -1.08437  -1.08377  -1.03514
 Alpha  occ. eigenvalues --   -1.03485  -0.96004  -0.95898  -0.87007  -0.86933
 Alpha  occ. eigenvalues --   -0.79586  -0.79574  -0.78292  -0.78126  -0.65113
 Alpha  occ. eigenvalues --   -0.64980  -0.60921  -0.60887  -0.59358  -0.59287
 Alpha  occ. eigenvalues --   -0.57590  -0.57546  -0.55322  -0.55177  -0.52739
 Alpha  occ. eigenvalues --   -0.52600  -0.52376  -0.52341  -0.49963  -0.49859
 Alpha  occ. eigenvalues --   -0.47957  -0.47833  -0.46700  -0.46607  -0.45880
 Alpha  occ. eigenvalues --   -0.45704  -0.45693  -0.45336  -0.43776  -0.43695
 Alpha virt. eigenvalues --    0.21284   0.23108   0.23777   0.24248   0.25178
 Alpha virt. eigenvalues --    0.26164   0.26788   0.27520   0.28232   0.29810
 Alpha virt. eigenvalues --    0.30872   0.31151   0.31622   0.31762   0.32342

 Mulliken charges:
               1
     1  C   -0.300159
     2  C   -0.299407
     3  C   -0.475751
     4  H    0.151225
     5  H    0.152113
     6  H    0.151502
     7  H    0.151762
     8  H    0.155169
     9  H    0.154559
    10  H    0.160353
    11  C   -0.298456
    12  C   -0.300955
    13  C   -0.475704
    14  H    0.148903
    15  H    0.149362
    16  H    0.152669
    17  H    0.153577
    18  H    0.155056
    19  H    0.154876
    20  H    0.160346
    21  C   -0.298191
    22  C   -0.299598
    23  C   -0.475685
    24  H    0.149732
    25  H    0.149414
    26  H    0.151917
    27  H    0.151704
    28  H    0.155161
    29  H    0.155210
    30  H    0.160184
    31  C   -0.298124
    32  C   -0.301263
    33  C   -0.477732
    34  H    0.149570
    35  H    0.148570
    36  H    0.151553
    37  H    0.152150
    38  H    0.160954
    39  H    0.153501
    40  H    0.159933
 Sum of Mulliken charges =  -0.00000

 Dipole moment (field-independent basis, Debye):
    X=              0.0283    Y=             -0.0047    Z=              0.0106  Tot=              0.0306
 Quadrupole moment (field-independent basis, Debye-Ang):
   XX=            -85.9583   YY=            -85.4777   ZZ=            -83.5086
   XY=              1.2507   XZ=              0.1476   YZ=             -0.4402

 Normal termination of Gaussian 16 at Thu May  6 00:50:39 2021.
