 Gaussian 16, Revision A.03,
 Gaussian 16:  EM64L-G16RevA.03 25-Dec-2016

 -------------
 #p 6-31g* mp2
 -------------

 ------------------------------------------------------
 Input file generated by CHIRIPA (05-May-2021 14:53:12)
 ------------------------------------------------------
 Symbolic Z-matrix:
 Charge =  0 Multiplicity = 1

                         Standard orientation:
 ---------------------------------------------------------------------
 Center     Atomic      Atomic             Coordinates (Angstroms)
 Number     Number       Type             X           Y           Z
 ---------------------------------------------------------------------
      1          6           0       -4.940213   -0.468436    0.004158
      2          6           0       -6.068863    0.539480   -0.215480
      3          6           0       -7.454368   -0.065305    0.013440
      4          1           0       -5.084540   -1.323634   -0.670195
      5          1           0       -5.004492   -0.863099    1.027634
      6          1           0       -6.001641    0.933154   -1.237790
      7          1           0       -5.921727    1.392467    0.459338
      8          1           0       -7.546007   -0.441714    1.037413
      9          1           0       -7.626375   -0.903637   -0.669359
     10          1           0       -8.246293    0.672492   -0.148948
     11          6           0       -3.549059    0.121265   -0.220947
     12          6           0       -2.420409   -0.886651   -0.001309
     13          6           0       -1.034904   -0.281866   -0.230229
     14          1           0       -3.484780    0.515928   -1.244423
     15          1           0       -3.404733    0.976463    0.453406
     16          1           0       -2.567546   -1.739638   -0.676127
     17          1           0       -2.487631   -1.280324    1.021001
     18          1           0       -0.862897    0.556466    0.452570
     19          1           0       -0.943266    0.094543   -1.254202
     20          1           0       -0.242979   -1.019663   -0.067841
     21          6           0        4.038430   -2.277660   -0.057825
     22          6           0        2.889976   -1.932054    0.661991
     23          6           0        2.480363   -0.598106    0.747693
     24          6           0        3.246292    0.368920    0.098460
     25          6           0        4.395265    0.056175   -0.626345
     26          6           0        4.786090   -1.284193   -0.698565
     27          1           0        4.349330   -3.316396   -0.119164
     28          1           0        2.307390   -2.701486    1.160602
     29          1           0        1.595451   -0.302675    1.298213
     30          1           0        4.955533    0.845394   -1.112814
     31          1           0        5.678432   -1.549672   -1.258290
     32          7           0        2.822597    1.784510    0.182053
     33          8           0        3.514674    2.617709   -0.398846
     34          8           0        1.806450    2.034045    0.826890
 ---------------------------------------------------------------------

 SCF Done:  E(RHF) =  -669.534848106     A.U. after   15 cycles
 E2 =    -0.2092372084D+01 EUMP2 =    -0.67162722018963D+03

 The electronic state is 1-A.
 Alpha  occ. eigenvalues --  -20.60783 -20.60775 -15.85822 -11.31146 -11.27751
 Alpha  occ. eigenvalues --  -11.27686 -11.27496 -11.26746 -11.26736 -11.21543
 Alpha  occ. eigenvalues --  -11.21460 -11.21274 -11.21196 -11.20964 -11.20889
 Alpha  occ. eigenvalues --   -1.59845  -1.39400  -1.19342  -1.08740  -1.08307
 Alpha  occ. eigenvalues --   -1.04752  -1.03423  -0.95891  -0.95564  -0.86912
 Alpha  occ. eigenvalues --   -0.86126  -0.82418  -0.79502  -0.78117  -0.77449
 Alpha  occ. eigenvalues --   -0.72048  -0.71159  -0.70466  -0.65002  -0.64944
 Alpha  occ. eigenvalues --   -0.64751  -0.62151  -0.60804  -0.59253  -0.57489
 Alpha  occ. eigenvalues --   -0.55286  -0.55105  -0.53237  -0.52907  -0.52351
 Alpha  occ. eigenvalues --   -0.52256  -0.49785  -0.48801  -0.48798  -0.47784
 Alpha  occ. eigenvalues --   -0.46506  -0.45657  -0.45579  -0.44783  -0.43687
 Alpha  occ. eigenvalues --   -0.37323  -0.36295
 Alpha virt. eigenvalues --    0.05036   0.11289   0.16444   0.21150   0.23027
 Alpha virt. eigenvalues --    0.24335   0.26701   0.26988   0.27522   0.27943
 Alpha virt. eigenvalues --    0.29316   0.30202   0.31598   0.31906   0.32308

 Mulliken charges:
               1
     1  C   -0.298138
     2  C   -0.299783
     3  C   -0.475640
     4  H    0.148330
     5  H    0.148518
     6  H    0.152414
     7  H    0.153317
     8  H    0.154715
     9  H    0.154418
    10  H    0.160461
    11  C   -0.298909
    12  C   -0.299554
    13  C   -0.485713
    14  H    0.150807
    15  H    0.153615
    16  H    0.149458
    17  H    0.148163
    18  H    0.172858
    19  H    0.158485
    20  H    0.148928
    21  C   -0.170026
    22  C   -0.221574
    23  C   -0.166704
    24  C    0.155417
    25  C   -0.170745
    26  C   -0.219004
    27  H    0.225539
    28  H    0.223501
    29  H    0.280568
    30  H    0.275473
    31  H    0.223263
    32  N    0.489062
    33  O   -0.460242
    34  O   -0.461280
 Sum of Mulliken charges =  -0.00000

 Dipole moment (field-independent basis, Debye):
    X=              1.5209    Y=             -4.8520    Z=             -0.2949  Tot=              5.0934
 Quadrupole moment (field-independent basis, Debye-Ang):
   XX=            -83.5317   YY=            -98.8225   ZZ=            -92.8905
   XY=            -15.2023   XZ=             -3.2201   YZ=             -1.1626

 Normal termination of Gaussian 16 at Thu May  6 13:39:28 2021.
