 Gaussian 16, Revision A.03,
 Gaussian 16:  EM64L-G16RevA.03 25-Dec-2016

 -------------
 #p 6-31g* mp2
 -------------

 ------------------------------------------------------
 Input file generated by CHIRIPA (05-May-2021 14:51:10)
 ------------------------------------------------------
 Symbolic Z-matrix:
 Charge =  0 Multiplicity = 1

                         Standard orientation:
 ---------------------------------------------------------------------
 Center     Atomic      Atomic             Coordinates (Angstroms)
 Number     Number       Type             X           Y           Z
 ---------------------------------------------------------------------
      1          6           0       -2.839805   -0.534096   -0.227433
      2          6           0       -1.811838   -1.025968    0.792043
      3          6           0       -0.402641   -1.129350    0.207861
      4          1           0       -2.847572   -1.215785   -1.088934
      5          1           0       -2.526962    0.447842   -0.608646
      6          1           0       -2.127245   -2.006061    1.172243
      7          1           0       -1.806654   -0.343135    1.651303
      8          1           0       -0.063395   -0.153630   -0.154745
      9          1           0       -0.385807   -1.826005   -0.636527
     10          1           0        0.316193   -1.482785    0.953663
     11          6           0       -4.253344   -0.425524    0.341642
     12          6           0       -5.281311    0.066348   -0.677835
     13          6           0       -6.690508    0.169731   -0.093653
     14          1           0       -4.566187   -1.407461    0.722855
     15          1           0       -4.245577    0.256166    1.203143
     16          1           0       -5.286495   -0.616485   -1.537095
     17          1           0       -4.965904    1.046441   -1.058035
     18          1           0       -6.707342    0.866385    0.750735
     19          1           0       -7.029754   -0.805989    0.268953
     20          1           0       -7.409342    0.523166   -0.839455
     21          6           0        4.236348    0.158722    0.010329
     22          6           0        4.239847   -1.339931   -0.293005
     23          6           0        5.626911   -1.968004   -0.153832
     24          1           0        4.939091    0.664822   -0.665659
     25          1           0        4.612352    0.320210    1.030102
     26          1           0        3.862645   -1.498648   -1.311409
     27          1           0        3.536871   -1.842497    0.383655
     28          1           0        6.007803   -1.839009    0.864442
     29          1           0        6.335429   -1.493206   -0.840253
     30          1           0        5.606406   -3.039662   -0.375163
     31          6           0        2.856802    0.800898   -0.124537
     32          6           0        2.853303    2.299551    0.178797
     33          6           0        1.466238    2.927623    0.039624
     34          1           0        2.480798    0.639409   -1.144311
     35          1           0        2.154059    0.294798    0.551451
     36          1           0        3.556278    2.802117   -0.497863
     37          1           0        3.230505    2.458267    1.197199
     38          1           0        0.757721    2.452825    0.726044
     39          1           0        1.085345    2.798628   -0.978650
     40          1           0        1.486743    3.999282    0.260955
 ---------------------------------------------------------------------

 SCF Done:  E(RHF) =  -470.732209594     A.U. after   11 cycles
 E2 =    -0.1583624764D+01 EUMP2 =    -0.47231583435786D+03

 The electronic state is 1-A.
 Alpha  occ. eigenvalues --  -11.21585 -11.21572 -11.21567 -11.21546 -11.21384
 Alpha  occ. eigenvalues --  -11.21325 -11.21317 -11.21213 -11.21113 -11.21058
 Alpha  occ. eigenvalues --  -11.21032 -11.20972  -1.08421  -1.08364  -1.03531
 Alpha  occ. eigenvalues --   -1.03478  -0.95993  -0.95917  -0.87033  -0.86923
 Alpha  occ. eigenvalues --   -0.79668  -0.79503  -0.78287  -0.78095  -0.65088
 Alpha  occ. eigenvalues --   -0.64971  -0.60990  -0.60830  -0.59345  -0.59316
 Alpha  occ. eigenvalues --   -0.57574  -0.57555  -0.55306  -0.55197  -0.52765
 Alpha  occ. eigenvalues --   -0.52621  -0.52421  -0.52291  -0.49992  -0.49852
 Alpha  occ. eigenvalues --   -0.48009  -0.47766  -0.46727  -0.46545  -0.45877
 Alpha  occ. eigenvalues --   -0.45726  -0.45648  -0.45346  -0.43758  -0.43682
 Alpha virt. eigenvalues --    0.21462   0.22929   0.23570   0.24554   0.26092
 Alpha virt. eigenvalues --    0.26472   0.26705   0.27496   0.27963   0.29655
 Alpha virt. eigenvalues --    0.30728   0.31294   0.31627   0.31808   0.32419

 Mulliken charges:
               1
     1  C   -0.298734
     2  C   -0.299858
     3  C   -0.481281
     4  H    0.149546
     5  H    0.150101
     6  H    0.151546
     7  H    0.151021
     8  H    0.163982
     9  H    0.154870
    10  H    0.158923
    11  C   -0.298213
    12  C   -0.299662
    13  C   -0.475691
    14  H    0.149451
    15  H    0.149591
    16  H    0.151863
    17  H    0.152042
    18  H    0.155176
    19  H    0.155123
    20  H    0.160210
    21  C   -0.297892
    22  C   -0.299882
    23  C   -0.475662
    24  H    0.149012
    25  H    0.148809
    26  H    0.152071
    27  H    0.152235
    28  H    0.154936
    29  H    0.155095
    30  H    0.160077
    31  C   -0.304654
    32  C   -0.298865
    33  C   -0.477803
    34  H    0.148895
    35  H    0.159435
    36  H    0.151596
    37  H    0.151508
    38  H    0.155567
    39  H    0.154927
    40  H    0.160589
 Sum of Mulliken charges =  -0.00000

 Dipole moment (field-independent basis, Debye):
    X=             -0.0049    Y=              0.0014    Z=             -0.0089  Tot=              0.0103
 Quadrupole moment (field-independent basis, Debye-Ang):
   XX=            -87.0021   YY=            -84.2595   ZZ=            -83.8252
   XY=              0.8744   XZ=              0.1350   YZ=              0.1037

 Normal termination of Gaussian 16 at Wed May  5 18:14:15 2021.
