 Gaussian 16, Revision A.03,
 Gaussian 16:  EM64L-G16RevA.03 25-Dec-2016

 -------------
 #p 6-31g* mp2
 -------------

 ------------------------------------------------------
 Input file generated by CHIRIPA (05-May-2021 14:53:17)
 ------------------------------------------------------
 Symbolic Z-matrix:
 Charge =  0 Multiplicity = 1

                         Standard orientation:
 ---------------------------------------------------------------------
 Center     Atomic      Atomic             Coordinates (Angstroms)
 Number     Number       Type             X           Y           Z
 ---------------------------------------------------------------------
      1          6           0        2.266973    0.900582    0.090704
      2          6           0        2.831375    2.299546   -0.158968
      3          6           0        2.041551    3.392846    0.561217
      4          1           0        1.218029    0.871876   -0.234622
      5          1           0        2.264664    0.701191    1.171274
      6          1           0        2.833906    2.495702   -1.238844
      7          1           0        3.879155    2.324870    0.166813
      8          1           0        2.049446    3.224702    1.643005
      9          1           0        0.998259    3.396504    0.229362
     10          1           0        2.462187    4.384800    0.368986
     11          6           0        3.045892   -0.203121   -0.622636
     12          6           0        2.481490   -1.602084   -0.372964
     13          6           0        3.271314   -2.695385   -1.093149
     14          1           0        3.048201   -0.003729   -1.703207
     15          1           0        4.094836   -0.174415   -0.297311
     16          1           0        1.433710   -1.627408   -0.698745
     17          1           0        2.478959   -1.798240    0.706912
     18          1           0        4.314606   -2.699043   -0.761294
     19          1           0        3.263418   -2.527240   -2.174938
     20          1           0        2.850678   -3.687339   -0.900918
     21          6           0       -3.579895    1.332455   -1.027740
     22          6           0       -3.791930   -0.046278   -1.130979
     23          6           0       -2.964515   -0.944779   -0.450813
     24          6           0       -1.929883   -0.427602    0.327232
     25          6           0       -1.693124    0.940662    0.450072
     26          6           0       -2.533015    1.820664   -0.238933
     27          1           0       -4.227497    2.023248   -1.559543
     28          1           0       -4.604174   -0.428272   -1.742850
     29          1           0       -3.106162   -2.016914   -0.513109
     30          1           0       -0.875252    1.291472    1.067677
     31          1           0       -2.365988    2.890906   -0.156908
     32          7           0       -1.047332   -1.369012    1.051973
     33          8           0       -0.142732   -0.888068    1.730963
     34          8           0       -1.276900   -2.570010    0.927312
 ---------------------------------------------------------------------

 SCF Done:  E(RHF) =  -669.534642913     A.U. after   15 cycles
 E2 =    -0.2095398982D+01 EUMP2 =    -0.67163004189532D+03

 The electronic state is 1-A.
 Alpha  occ. eigenvalues --  -20.60903 -20.60878 -15.85893 -11.31259 -11.27831
 Alpha  occ. eigenvalues --  -11.27787 -11.27568 -11.26838 -11.26823 -11.21352
 Alpha  occ. eigenvalues --  -11.21230 -11.20720 -11.20649 -11.20473 -11.20166
 Alpha  occ. eigenvalues --   -1.59948  -1.39505  -1.19435  -1.08832  -1.07815
 Alpha  occ. eigenvalues --   -1.04831  -1.02975  -0.95678  -0.95465  -0.86511
 Alpha  occ. eigenvalues --   -0.86226  -0.82511  -0.79070  -0.77819  -0.77297
 Alpha  occ. eigenvalues --   -0.72137  -0.71244  -0.70541  -0.65087  -0.64855
 Alpha  occ. eigenvalues --   -0.64444  -0.62177  -0.60383  -0.58877  -0.57036
 Alpha  occ. eigenvalues --   -0.55336  -0.54800  -0.53168  -0.52923  -0.52190
 Alpha  occ. eigenvalues --   -0.51907  -0.49470  -0.48962  -0.48905  -0.47281
 Alpha  occ. eigenvalues --   -0.46085  -0.45592  -0.44970  -0.44292  -0.43178
 Alpha  occ. eigenvalues --   -0.37406  -0.36405
 Alpha virt. eigenvalues --    0.04935   0.11115   0.16364   0.20435   0.23423
 Alpha virt. eigenvalues --    0.24252   0.26314   0.27361   0.27647   0.28483
 Alpha virt. eigenvalues --    0.29447   0.30325   0.31765   0.32310   0.32500

 Mulliken charges:
               1
     1  C   -0.299261
     2  C   -0.298845
     3  C   -0.476191
     4  H    0.141985
     5  H    0.163941
     6  H    0.149213
     7  H    0.152844
     8  H    0.157805
     9  H    0.142161
    10  H    0.160595
    11  C   -0.299574
    12  C   -0.295376
    13  C   -0.476773
    14  H    0.143695
    15  H    0.147404
    16  H    0.144124
    17  H    0.170703
    18  H    0.151960
    19  H    0.149161
    20  H    0.163504
    21  C   -0.170419
    22  C   -0.218572
    23  C   -0.170767
    24  C    0.156792
    25  C   -0.173082
    26  C   -0.221467
    27  H    0.226008
    28  H    0.223770
    29  H    0.275789
    30  H    0.281728
    31  H    0.224571
    32  N    0.488949
    33  O   -0.456738
    34  O   -0.459637
 Sum of Mulliken charges =  -0.00000

 Dipole moment (field-independent basis, Debye):
    X=             -3.1840    Y=              3.1453    Z=             -2.3114  Tot=              5.0372
 Quadrupole moment (field-independent basis, Debye-Ang):
   XX=            -81.8022   YY=            -96.0955   ZZ=            -96.0913
   XY=             -2.6487   XZ=              6.5460   YZ=              3.1096

 Normal termination of Gaussian 16 at Thu May  6 10:40:22 2021.
