 Gaussian 16, Revision A.03,
 Gaussian 16:  EM64L-G16RevA.03 25-Dec-2016

 -------------
 #p 6-31g* mp2
 -------------

 ------------------------------------------------------
 Input file generated by CHIRIPA (05-May-2021 14:55:20)
 ------------------------------------------------------
 Symbolic Z-matrix:
 Charge =  0 Multiplicity = 1

                         Standard orientation:
 ---------------------------------------------------------------------
 Center     Atomic      Atomic             Coordinates (Angstroms)
 Number     Number       Type             X           Y           Z
 ---------------------------------------------------------------------
      1          6           0       -1.989014    1.285897    2.131125
      2          6           0       -2.834505    1.512820    1.040175
      3          6           0       -2.828002    0.644807   -0.055753
      4          6           0       -1.959413   -0.445164   -0.027310
      5          6           0       -1.105138   -0.698069    1.044858
      6          6           0       -1.128546    0.183121    2.129987
      7          1           0       -2.000631    1.965309    2.978274
      8          1           0       -3.503799    2.368441    1.038324
      9          1           0       -3.472060    0.796821   -0.913365
     10          1           0       -0.448949   -1.559524    1.017879
     11          1           0       -0.470827    0.004410    2.975866
     12          7           0       -1.943581   -1.371066   -1.181803
     13          8           0       -1.169070   -2.324129   -1.132409
     14          8           0       -2.705982   -1.126192   -2.114229
     15          6           0        2.838027   -0.067735    0.321673
     16          6           0        2.728816   -1.561984    0.016256
     17          6           0        3.386957   -2.433694    1.086195
     18          1           0        3.898222    0.204024    0.416950
     19          1           0        2.374538    0.134861    1.297136
     20          1           0        3.191146   -1.761481   -0.958971
     21          1           0        1.668765   -1.830179   -0.078495
     22          1           0        2.920519   -2.263857    2.061998
     23          1           0        4.451549   -2.194769    1.176519
     24          1           0        3.297174   -3.498127    0.847907
     25          6           0        2.184751    0.816699   -0.738862
     26          6           0        2.293962    2.310948   -0.433446
     27          6           0        1.635822    3.182658   -1.503385
     28          1           0        2.648240    0.614104   -1.714326
     29          1           0        1.124556    0.544939   -0.834140
     30          1           0        3.354013    2.579144   -0.338695
     31          1           0        1.831633    2.510445    0.541781
     32          1           0        0.571229    2.943733   -1.593710
     33          1           0        2.102259    3.012820   -2.479188
     34          1           0        1.725604    4.247090   -1.265097
 ---------------------------------------------------------------------

 SCF Done:  E(RHF) =  -669.535543145     A.U. after   15 cycles
 E2 =    -0.2094358311D+01 EUMP2 =    -0.67162990145599D+03

 The electronic state is 1-A.
 Alpha  occ. eigenvalues --  -20.60931 -20.60923 -15.85965 -11.31331 -11.27899
 Alpha  occ. eigenvalues --  -11.27892 -11.27636 -11.26913 -11.26899 -11.21655
 Alpha  occ. eigenvalues --  -11.21489 -11.21431 -11.21304 -11.21124 -11.21110
 Alpha  occ. eigenvalues --   -1.59991  -1.39546  -1.19510  -1.08898  -1.08440
 Alpha  occ. eigenvalues --   -1.04908  -1.03542  -0.96006  -0.95733  -0.87022
 Alpha  occ. eigenvalues --   -0.86307  -0.82562  -0.79591  -0.78248  -0.77608
 Alpha  occ. eigenvalues --   -0.72184  -0.71311  -0.70618  -0.65186  -0.65155
 Alpha  occ. eigenvalues --   -0.64846  -0.62280  -0.60911  -0.59358  -0.57599
 Alpha  occ. eigenvalues --   -0.55402  -0.55336  -0.53219  -0.53008  -0.52684
 Alpha  occ. eigenvalues --   -0.52415  -0.49959  -0.48963  -0.48940  -0.47893
 Alpha  occ. eigenvalues --   -0.46623  -0.45798  -0.45748  -0.44856  -0.43789
 Alpha  occ. eigenvalues --   -0.37462  -0.36478
 Alpha virt. eigenvalues --    0.04871   0.11052   0.16325   0.20116   0.23003
 Alpha virt. eigenvalues --    0.23914   0.26040   0.26597   0.27882   0.28104
 Alpha virt. eigenvalues --    0.28761   0.30377   0.31377   0.31751   0.31953

 Mulliken charges:
               1
     1  C   -0.170708
     2  C   -0.218365
     3  C   -0.171359
     4  C    0.157261
     5  C   -0.171512
     6  C   -0.219582
     7  H    0.226483
     8  H    0.224280
     9  H    0.276265
    10  H    0.281127
    11  H    0.224565
    12  N    0.488836
    13  O   -0.461340
    14  O   -0.459026
    15  C   -0.297892
    16  C   -0.310768
    17  C   -0.475300
    18  H    0.149945
    19  H    0.139555
    20  H    0.157475
    21  H    0.163258
    22  H    0.146082
    23  H    0.155595
    24  H    0.164742
    25  C   -0.299146
    26  C   -0.298654
    27  C   -0.475750
    28  H    0.152795
    29  H    0.151242
    30  H    0.151432
    31  H    0.147665
    32  H    0.155231
    33  H    0.157454
    34  H    0.158116
 Sum of Mulliken charges =  -0.00000

 Dipole moment (field-independent basis, Debye):
    X=             -0.1616    Y=              3.1992    Z=              3.9427  Tot=              5.0800
 Quadrupole moment (field-independent basis, Debye-Ang):
   XX=            -91.7660   YY=            -97.2655   ZZ=            -94.7089
   XY=             -8.5533   XZ=             -7.3747   YZ=             -2.5890

 Normal termination of Gaussian 16 at Wed May  5 22:11:21 2021.
