 Gaussian 16, Revision A.03,
 Gaussian 16:  EM64L-G16RevA.03 25-Dec-2016

 -------------
 #p 6-31g* mp2
 -------------

 ------------------------------------------------------
 Input file generated by CHIRIPA (05-May-2021 14:55:19)
 ------------------------------------------------------
 Symbolic Z-matrix:
 Charge =  0 Multiplicity = 1

                         Standard orientation:
 ---------------------------------------------------------------------
 Center     Atomic      Atomic             Coordinates (Angstroms)
 Number     Number       Type             X           Y           Z
 ---------------------------------------------------------------------
      1          6           0        4.107686    1.762878   -1.152646
      2          6           0        3.436726    2.215037   -0.011644
      3          6           0        2.722806    1.321934    0.792863
      4          6           0        2.700835   -0.022529    0.425131
      5          6           0        3.359156   -0.503647   -0.705545
      6          6           0        4.066832    0.407369   -1.495351
      7          1           0        4.659851    2.463620   -1.771896
      8          1           0        3.466721    3.267183    0.256936
      9          1           0        2.194394    1.644961    1.681599
     10          1           0        3.310999   -1.558388   -0.947661
     11          1           0        4.586968    0.053384   -2.380900
     12          7           0        1.948346   -0.977499    1.269045
     13          8           0        1.944403   -2.156983    0.923443
     14          8           0        1.376735   -0.528439    2.260127
     15          6           0       -3.285681   -0.701053   -0.807957
     16          6           0       -1.836905   -0.997488   -0.419165
     17          6           0       -1.190056   -2.056654   -1.312220
     18          1           0       -3.869376   -1.630468   -0.758643
     19          1           0       -3.316290   -0.367894   -1.854600
     20          1           0       -1.808879   -1.328664    0.626853
     21          1           0       -1.256633   -0.067221   -0.469224
     22          1           0       -1.188594   -1.730648   -2.357361
     23          1           0       -1.743979   -2.999258   -1.255056
     24          1           0       -0.154722   -2.253105   -1.016668
     25          6           0       -3.945948    0.355807    0.075685
     26          6           0       -5.394723    0.652241   -0.313108
     27          6           0       -6.041572    1.711408    0.579948
     28          1           0       -3.915338    0.022648    1.122328
     29          1           0       -3.362252    1.285223    0.026370
     30          1           0       -5.974995   -0.278024   -0.263048
     31          1           0       -5.422749    0.983419   -1.359126
     32          1           0       -5.487649    2.654013    0.522783
     33          1           0       -6.043034    1.385403    1.625088
     34          1           0       -7.076906    1.907859    0.284396
 ---------------------------------------------------------------------

 SCF Done:  E(RHF) =  -669.536433903     A.U. after   15 cycles
 E2 =    -0.2091672115D+01 EUMP2 =    -0.67162810601896D+03

 The electronic state is 1-A.
 Alpha  occ. eigenvalues --  -20.60953 -20.60937 -15.85962 -11.31276 -11.27836
 Alpha  occ. eigenvalues --  -11.27832 -11.27573 -11.26843 -11.26833 -11.21224
 Alpha  occ. eigenvalues --  -11.20894 -11.20834 -11.20774 -11.20761 -11.20190
 Alpha  occ. eigenvalues --   -1.59995  -1.39554  -1.19441  -1.08848  -1.07881
 Alpha  occ. eigenvalues --   -1.04836  -1.02956  -0.95693  -0.95410  -0.86431
 Alpha  occ. eigenvalues --   -0.86238  -0.82526  -0.79029  -0.77681  -0.77581
 Alpha  occ. eigenvalues --   -0.72188  -0.71306  -0.70551  -0.65098  -0.64840
 Alpha  occ. eigenvalues --   -0.64517  -0.62184  -0.60359  -0.58776  -0.57000
 Alpha  occ. eigenvalues --   -0.55343  -0.54713  -0.53166  -0.52929  -0.52089
 Alpha  occ. eigenvalues --   -0.51841  -0.49373  -0.48953  -0.48942  -0.47365
 Alpha  occ. eigenvalues --   -0.46072  -0.45273  -0.45139  -0.44886  -0.43165
 Alpha  occ. eigenvalues --   -0.37418  -0.36435
 Alpha virt. eigenvalues --    0.04916   0.11200   0.16374   0.21312   0.23369
 Alpha virt. eigenvalues --    0.24766   0.27162   0.27203   0.27791   0.28141
 Alpha virt. eigenvalues --    0.28675   0.30676   0.31821   0.31973   0.32299

 Mulliken charges:
               1
     1  C   -0.170574
     2  C   -0.218647
     3  C   -0.170951
     4  C    0.158796
     5  C   -0.170996
     6  C   -0.218528
     7  H    0.225929
     8  H    0.223748
     9  H    0.275936
    10  H    0.275978
    11  H    0.223891
    12  N    0.488985
    13  O   -0.459486
    14  O   -0.458170
    15  C   -0.297675
    16  C   -0.301190
    17  C   -0.483049
    18  H    0.149548
    19  H    0.145801
    20  H    0.164642
    21  H    0.144202
    22  H    0.146571
    23  H    0.154843
    24  H    0.172712
    25  C   -0.297775
    26  C   -0.299215
    27  C   -0.475314
    28  H    0.152554
    29  H    0.147069
    30  H    0.151936
    31  H    0.150031
    32  H    0.153596
    33  H    0.156001
    34  H    0.158802
 Sum of Mulliken charges =  -0.00000

 Dipole moment (field-independent basis, Debye):
    X=              2.8286    Y=              3.3126    Z=             -2.8212  Tot=              5.1898
 Quadrupole moment (field-independent basis, Debye-Ang):
   XX=            -81.4237   YY=            -92.3491   ZZ=            -95.9482
   XY=              8.9934   XZ=             -8.2212   YZ=              3.0543

 Normal termination of Gaussian 16 at Thu May  6 04:30:31 2021.
