 Gaussian 16, Revision A.03,
 Gaussian 16:  EM64L-G16RevA.03 25-Dec-2016

 -------------
 #p 6-31g* mp2
 -------------

 ------------------------------------------------------
 Input file generated by CHIRIPA (05-May-2021 14:53:17)
 ------------------------------------------------------
 Symbolic Z-matrix:
 Charge =  0 Multiplicity = 1

                         Standard orientation:
 ---------------------------------------------------------------------
 Center     Atomic      Atomic             Coordinates (Angstroms)
 Number     Number       Type             X           Y           Z
 ---------------------------------------------------------------------
      1          6           0        4.949775    0.469965    0.121385
      2          6           0        6.435285    0.325080   -0.210659
      3          6           0        7.181167    1.659395   -0.178146
      4          1           0        4.487739    1.167386   -0.590704
      5          1           0        4.846249    0.924813    1.116267
      6          1           0        6.535982   -0.130631   -1.204039
      7          1           0        6.893797   -0.372226    0.502185
      8          1           0        7.110384    2.116221    0.814276
      9          1           0        6.750536    2.359188   -0.901642
     10          1           0        8.241380    1.532628   -0.418435
     11          6           0        4.190584   -0.855384    0.092932
     12          6           0        2.705074   -0.710499    0.424976
     13          6           0        1.959191   -2.044814    0.392462
     14          1           0        4.294109   -1.310232   -0.901951
     15          1           0        4.652620   -1.552805    0.805020
     16          1           0        2.246561   -0.013194   -0.287868
     17          1           0        2.604376   -0.254788    1.418355
     18          1           0        2.389823   -2.744607    1.115959
     19          1           0        2.029975   -2.501640   -0.599960
     20          1           0        0.898978   -1.918047    0.632751
     21          6           0       -2.997485   -2.296616   -0.305050
     22          6           0       -2.016208   -1.325010   -0.527757
     23          6           0       -2.322383    0.033831   -0.407936
     24          6           0       -3.625845    0.387138   -0.062319
     25          6           0       -4.625460   -0.557301    0.165922
     26          6           0       -4.296689   -1.910342    0.040470
     27          1           0       -2.750865   -3.349944   -0.400317
     28          1           0       -1.006394   -1.622077   -0.796219
     29          1           0       -1.582076    0.806837   -0.574743
     30          1           0       -5.623289   -0.230425    0.432208
     31          1           0       -5.060790   -2.662722    0.214016
     32          7           0       -3.961939    1.822612    0.067510
     33          8           0       -5.117724    2.107918    0.373123
     34          8           0       -3.063221    2.635249   -0.138798
 ---------------------------------------------------------------------

 SCF Done:  E(RHF) =  -669.535569252     A.U. after   15 cycles
 E2 =    -0.2090950378D+01 EUMP2 =    -0.67162651962993D+03

 The electronic state is 1-A.
 Alpha  occ. eigenvalues --  -20.60747 -20.60741 -15.85800 -11.31165 -11.27742
 Alpha  occ. eigenvalues --  -11.27731 -11.27475 -11.26750 -11.26698 -11.22269
 Alpha  occ. eigenvalues --  -11.21976 -11.21872 -11.21857 -11.21695 -11.21245
 Alpha  occ. eigenvalues --   -1.59822  -1.39376  -1.19339  -1.08878  -1.08732
 Alpha  occ. eigenvalues --   -1.04742  -1.04018  -0.96482  -0.95567  -0.87507
 Alpha  occ. eigenvalues --   -0.86135  -0.82399  -0.80087  -0.78650  -0.77448
 Alpha  occ. eigenvalues --   -0.72018  -0.71145  -0.70444  -0.65508  -0.64988
 Alpha  occ. eigenvalues --   -0.64770  -0.62140  -0.61402  -0.59857  -0.58070
 Alpha  occ. eigenvalues --   -0.55763  -0.55237  -0.53353  -0.53055  -0.52947
 Alpha  occ. eigenvalues --   -0.52612  -0.50408  -0.48777  -0.48773  -0.48392
 Alpha  occ. eigenvalues --   -0.47108  -0.46202  -0.46101  -0.44781  -0.44256
 Alpha  occ. eigenvalues --   -0.37317  -0.36338
 Alpha virt. eigenvalues --    0.05083   0.11227   0.16513   0.20295   0.22671
 Alpha virt. eigenvalues --    0.23844   0.26080   0.26656   0.26907   0.28332
 Alpha virt. eigenvalues --    0.28828   0.30860   0.30979   0.31557   0.31674

 Mulliken charges:
               1
     1  C   -0.299012
     2  C   -0.300041
     3  C   -0.476057
     4  H    0.150912
     5  H    0.151294
     6  H    0.151880
     7  H    0.152150
     8  H    0.156131
     9  H    0.156158
    10  H    0.160960
    11  C   -0.298653
    12  C   -0.299601
    13  C   -0.483404
    14  H    0.149450
    15  H    0.150919
    16  H    0.149652
    17  H    0.156570
    18  H    0.160283
    19  H    0.152962
    20  H    0.157017
    21  C   -0.172059
    22  C   -0.223145
    23  C   -0.172438
    24  C    0.158602
    25  C   -0.170851
    26  C   -0.218531
    27  H    0.226078
    28  H    0.231055
    29  H    0.275705
    30  H    0.275564
    31  H    0.223338
    32  N    0.488110
    33  O   -0.460556
    34  O   -0.460441
 Sum of Mulliken charges =  -0.00000

 Dipole moment (field-independent basis, Debye):
    X=              1.3349    Y=             -5.0414    Z=             -0.4189  Tot=              5.2319
 Quadrupole moment (field-independent basis, Debye-Ang):
   XX=            -98.6842   YY=            -99.7727   ZZ=            -94.2555
   XY=             19.7803   XZ=              0.6681   YZ=             -0.3535

 Normal termination of Gaussian 16 at Thu May  6 07:34:37 2021.
