 Gaussian 16, Revision A.03,
 Gaussian 16:  EM64L-G16RevA.03 25-Dec-2016

 -------------
 #p 6-31g* mp2
 -------------

 ------------------------------------------------------
 Input file generated by CHIRIPA (05-May-2021 14:51:12)
 ------------------------------------------------------
 Symbolic Z-matrix:
 Charge =  0 Multiplicity = 1

                         Standard orientation:
 ---------------------------------------------------------------------
 Center     Atomic      Atomic             Coordinates (Angstroms)
 Number     Number       Type             X           Y           Z
 ---------------------------------------------------------------------
      1          6           0       -4.396046   -0.564176   -0.328828
      2          6           0       -5.368948    0.569731   -0.003716
      3          6           0       -6.655871    0.498529   -0.826245
      4          1           0       -4.150927   -0.532837   -1.399286
      5          1           0       -4.893661   -1.527432   -0.150186
      6          1           0       -4.869190    1.530573   -0.181596
      7          1           0       -5.611630    0.535806    1.066130
      8          1           0       -7.179285   -0.445183   -0.641732
      9          1           0       -6.432626    0.555236   -1.896548
     10          1           0       -7.336977    1.318438   -0.577844
     11          6           0       -3.104759   -0.506624    0.485417
     12          6           0       -2.131856   -1.640532    0.160304
     13          6           0       -0.844934   -1.569330    0.982834
     14          1           0       -2.607144    0.456632    0.306775
     15          1           0       -3.349878   -0.537963    1.555874
     16          1           0       -1.889174   -1.606606   -0.909542
     17          1           0       -2.631615   -2.601373    0.338185
     18          1           0       -1.068178   -1.626036    2.053136
     19          1           0       -0.321519   -0.625617    0.798320
     20          1           0       -0.163827   -2.389239    0.734432
     21          6           0        4.019063   -0.172443   -0.179349
     22          6           0        5.541117   -0.229899   -0.313639
     23          6           0        6.063486   -1.652667   -0.515278
     24          1           0        3.707852   -0.802004    0.665485
     25          1           0        3.561903   -0.607865   -1.078686
     26          1           0        5.995265    0.206763    0.585078
     27          1           0        5.848758    0.400025   -1.158133
     28          1           0        5.637738   -2.094473   -1.422000
     29          1           0        5.785078   -2.288833    0.331115
     30          1           0        7.153797   -1.670528   -0.608892
     31          6           0        3.481741    1.243243    0.022760
     32          6           0        1.959687    1.300699    0.157051
     33          6           0        1.437318    2.723466    0.358689
     34          1           0        3.938902    1.678666    0.922097
     35          1           0        3.792952    1.872805   -0.822073
     36          1           0        1.652047    0.670776    1.001545
     37          1           0        1.505540    0.864037   -0.741666
     38          1           0        1.715728    3.359634   -0.487704
     39          1           0        1.863067    3.165274    1.265411
     40          1           0        0.347008    2.741330    0.452304
 ---------------------------------------------------------------------

 SCF Done:  E(RHF) =  -470.733052748     A.U. after   11 cycles
 E2 =    -0.1582761025D+01 EUMP2 =    -0.47231581377272D+03

 The electronic state is 1-A.
 Alpha  occ. eigenvalues --  -11.21613 -11.21598 -11.21591 -11.21556 -11.21408
 Alpha  occ. eigenvalues --  -11.21388 -11.21347 -11.21328 -11.21115 -11.21067
 Alpha  occ. eigenvalues --  -11.21063 -11.20944  -1.08444  -1.08402  -1.03562
 Alpha  occ. eigenvalues --   -1.03482  -0.96001  -0.95937  -0.87025  -0.86948
 Alpha  occ. eigenvalues --   -0.79694  -0.79495  -0.78286  -0.78187  -0.65078
 Alpha  occ. eigenvalues --   -0.65030  -0.60980  -0.60877  -0.59381  -0.59302
 Alpha  occ. eigenvalues --   -0.57673  -0.57498  -0.55293  -0.55216  -0.52699
 Alpha  occ. eigenvalues --   -0.52631  -0.52445  -0.52349  -0.49987  -0.49877
 Alpha  occ. eigenvalues --   -0.48066  -0.47738  -0.46716  -0.46530  -0.45860
 Alpha  occ. eigenvalues --   -0.45737  -0.45714  -0.45520  -0.43795  -0.43752
 Alpha virt. eigenvalues --    0.21707   0.23023   0.23594   0.24849   0.26093
 Alpha virt. eigenvalues --    0.26424   0.27011   0.27217   0.28262   0.28980
 Alpha virt. eigenvalues --    0.30620   0.31181   0.31539   0.31755   0.31989

 Mulliken charges:
               1
     1  C   -0.298247
     2  C   -0.299638
     3  C   -0.475689
     4  H    0.149560
     5  H    0.149564
     6  H    0.151847
     7  H    0.151922
     8  H    0.155172
     9  H    0.155146
    10  H    0.160226
    11  C   -0.298291
    12  C   -0.299106
    13  C   -0.484015
    14  H    0.148972
    15  H    0.149594
    16  H    0.151472
    17  H    0.151561
    18  H    0.153926
    19  H    0.165593
    20  H    0.159764
    21  C   -0.298472
    22  C   -0.299660
    23  C   -0.475705
    24  H    0.150281
    25  H    0.149478
    26  H    0.151937
    27  H    0.151856
    28  H    0.155140
    29  H    0.155283
    30  H    0.160232
    31  C   -0.297472
    32  C   -0.304677
    33  C   -0.476392
    34  H    0.149570
    35  H    0.149486
    36  H    0.156933
    37  H    0.151917
    38  H    0.155428
    39  H    0.155673
    40  H    0.159832
 Sum of Mulliken charges =  -0.00000

 Dipole moment (field-independent basis, Debye):
    X=              0.0360    Y=              0.0142    Z=              0.0058  Tot=              0.0391
 Quadrupole moment (field-independent basis, Debye-Ang):
   XX=            -85.8956   YY=            -85.4600   ZZ=            -83.5063
   XY=              0.8186   XZ=             -0.6186   YZ=             -0.6209

 Normal termination of Gaussian 16 at Thu May  6 02:19:17 2021.
