 Gaussian 16, Revision A.03,
 Gaussian 16:  EM64L-G16RevA.03 25-Dec-2016

 -------------
 #p 6-31g* mp2
 -------------

 ------------------------------------------------------
 Input file generated by CHIRIPA (05-May-2021 14:53:16)
 ------------------------------------------------------
 Symbolic Z-matrix:
 Charge =  0 Multiplicity = 1

                         Standard orientation:
 ---------------------------------------------------------------------
 Center     Atomic      Atomic             Coordinates (Angstroms)
 Number     Number       Type             X           Y           Z
 ---------------------------------------------------------------------
      1          6           0        2.892198    0.721408   -0.262819
      2          6           0        1.847781    1.820462   -0.064682
      3          6           0        2.411961    3.221700   -0.301382
      4          1           0        3.735500    0.898630    0.418635
      5          1           0        3.295300    0.787902   -1.282860
      6          1           0        1.445772    1.751045    0.954232
      7          1           0        1.006781    1.640495   -0.746552
      8          1           0        2.795980    3.314971   -1.322377
      9          1           0        3.237465    3.426149    0.388071
     10          1           0        1.648482    3.991994   -0.154389
     11          6           0        2.343309   -0.685048   -0.029726
     12          6           0        3.387726   -1.784102   -0.227864
     13          6           0        2.823547   -3.185340    0.008836
     14          1           0        1.940207   -0.751542    0.990314
     15          1           0        1.500008   -0.862270   -0.711181
     16          1           0        4.228726   -1.604135    0.454006
     17          1           0        3.789736   -1.714685   -1.246778
     18          1           0        1.998043   -3.389789   -0.680616
     19          1           0        2.439527   -3.278611    1.029831
     20          1           0        3.587025   -3.955634   -0.138157
     21          6           0       -2.529663   -0.247759   -2.350799
     22          6           0       -1.987252    0.941847   -1.853656
     23          6           0       -1.714732    1.082402   -0.489646
     24          6           0       -1.998276    0.008376    0.352590
     25          6           0       -2.538777   -1.189506   -0.112415
     26          6           0       -2.803212   -1.307769   -1.480127
     27          1           0       -2.738223   -0.348288   -3.411832
     28          1           0       -1.773793    1.766721   -2.527497
     29          1           0       -1.294889    1.992194   -0.078029
     30          1           0       -2.740841   -1.994326    0.583898
     31          1           0       -3.224462   -2.232802   -1.863411
     32          7           0       -1.714050    0.145377    1.798566
     33          8           0       -1.972906   -0.815579    2.519812
     34          8           0       -1.237801    1.211119    2.183297
 ---------------------------------------------------------------------

 SCF Done:  E(RHF) =  -669.534982137     A.U. after   15 cycles
 E2 =    -0.2094072648D+01 EUMP2 =    -0.67162905478485D+03

 The electronic state is 1-A.
 Alpha  occ. eigenvalues --  -20.60867 -20.60860 -15.85898 -11.31203 -11.27806
 Alpha  occ. eigenvalues --  -11.27764 -11.27551 -11.26794 -11.26784 -11.21467
 Alpha  occ. eigenvalues --  -11.21333 -11.21230 -11.21168 -11.21013 -11.20950
 Alpha  occ. eigenvalues --   -1.59925  -1.39481  -1.19403  -1.08800  -1.08272
 Alpha  occ. eigenvalues --   -1.04810  -1.03397  -0.95861  -0.95643  -0.86876
 Alpha  occ. eigenvalues --   -0.86199  -0.82482  -0.79493  -0.78148  -0.77473
 Alpha  occ. eigenvalues --   -0.72121  -0.71231  -0.70520  -0.65080  -0.64902
 Alpha  occ. eigenvalues --   -0.64785  -0.62179  -0.60784  -0.59223  -0.57473
 Alpha  occ. eigenvalues --   -0.55311  -0.55138  -0.53183  -0.52896  -0.52541
 Alpha  occ. eigenvalues --   -0.52282  -0.49796  -0.48895  -0.48877  -0.47780
 Alpha  occ. eigenvalues --   -0.46483  -0.45678  -0.45554  -0.44755  -0.43642
 Alpha  occ. eigenvalues --   -0.37371  -0.36319
 Alpha virt. eigenvalues --    0.04962   0.11241   0.16355   0.21055   0.23079
 Alpha virt. eigenvalues --    0.24210   0.26559   0.26776   0.27679   0.27760
 Alpha virt. eigenvalues --    0.29078   0.30434   0.31579   0.31677   0.32177

 Mulliken charges:
               1
     1  C   -0.296447
     2  C   -0.314193
     3  C   -0.475386
     4  H    0.151322
     5  H    0.145890
     6  H    0.172512
     7  H    0.143695
     8  H    0.151480
     9  H    0.158488
    10  H    0.157137
    11  C   -0.302344
    12  C   -0.299177
    13  C   -0.476027
    14  H    0.155649
    15  H    0.147738
    16  H    0.153274
    17  H    0.149658
    18  H    0.151850
    19  H    0.159113
    20  H    0.159437
    21  C   -0.170193
    22  C   -0.221154
    23  C   -0.168097
    24  C    0.158067
    25  C   -0.170648
    26  C   -0.219296
    27  H    0.225792
    28  H    0.223886
    29  H    0.280466
    30  H    0.275805
    31  H    0.223538
    32  N    0.488409
    33  O   -0.459771
    34  O   -0.460471
 Sum of Mulliken charges =  -0.00000

 Dipole moment (field-independent basis, Debye):
    X=             -1.0674    Y=             -0.5125    Z=             -4.9233  Tot=              5.0637
 Quadrupole moment (field-independent basis, Debye-Ang):
   XX=            -90.9519   YY=            -91.9617   ZZ=            -97.9120
   XY=              2.5195   XZ=             10.3449   YZ=             -0.6830

 Normal termination of Gaussian 16 at Wed May  5 23:36:18 2021.
