 Gaussian 16, Revision A.03,
 Gaussian 16:  EM64L-G16RevA.03 25-Dec-2016

 -------------
 #p 6-31g* mp2
 -------------

 ------------------------------------------------------
 Input file generated by CHIRIPA (05-May-2021 14:57:20)
 ------------------------------------------------------
 Symbolic Z-matrix:
 Charge =  0 Multiplicity = 1

                         Standard orientation:
 ---------------------------------------------------------------------
 Center     Atomic      Atomic             Coordinates (Angstroms)
 Number     Number       Type             X           Y           Z
 ---------------------------------------------------------------------
      1          6           0       -4.173715    2.323965   -0.043770
      2          6           0       -4.389612    1.396890    0.981140
      3          6           0       -3.773657    0.142359    0.945109
      4          6           0       -2.944248   -0.153182   -0.135643
      5          6           0       -2.709355    0.749117   -1.171970
      6          6           0       -3.335753    1.997695   -1.115165
      7          1           0       -4.656260    3.296203   -0.007712
      8          1           0       -5.039879    1.647545    1.814429
      9          1           0       -3.923336   -0.594206    1.725164
     10          1           0       -2.055803    0.470472   -1.989677
     11          1           0       -3.166254    2.715697   -1.912529
     12          7           0       -2.286636   -1.478147   -0.184784
     13          8           0       -1.560428   -1.714222   -1.147867
     14          8           0       -2.509859   -2.255491    0.740713
     15          6           0        4.769867    1.780891    0.032610
     16          6           0        4.534815    0.984931   -1.093322
     17          6           0        3.585711   -0.040766   -1.052137
     18          6           0        2.886613   -0.243661    0.136723
     19          6           0        3.098176    0.532429    1.275237
     20          6           0        4.052063    1.552502    1.211217
     21          1           0        5.509011    2.575492   -0.008253
     22          1           0        5.090785    1.160020   -2.009992
     23          1           0        3.383775   -0.671923   -1.909040
     24          1           0        2.528296    0.333865    2.174809
     25          1           0        4.232515    2.169088    2.087176
     26          7           0        1.879308   -1.326542    0.192410
     27          8           0        1.276624   -1.485007    1.251795
     28          8           0        1.711539   -1.996336   -0.824382
 ---------------------------------------------------------------------

 SCF Done:  E(RHF) =  -868.334671714     A.U. after   16 cycles
 E2 =    -0.2601445035D+01 EUMP2 =    -0.87093611674963D+03

 The electronic state is 1-A.
 Alpha  occ. eigenvalues --  -20.59905 -20.59808 -20.59507 -20.59469 -15.84925
 Alpha  occ. eigenvalues --  -15.84562 -11.30712 -11.30434 -11.27335 -11.27315
 Alpha  occ. eigenvalues --  -11.27147 -11.27074 -11.27046 -11.26908 -11.26439
 Alpha  occ. eigenvalues --  -11.26425 -11.26209 -11.26183  -1.58920  -1.58540
 Alpha  occ. eigenvalues --   -1.38469  -1.38092  -1.18923  -1.18654  -1.08238
 Alpha  occ. eigenvalues --   -1.07954  -1.04386  -1.04135  -0.95001  -0.94700
 Alpha  occ. eigenvalues --   -0.85763  -0.85509  -0.81834  -0.81540  -0.76811
 Alpha  occ. eigenvalues --   -0.76498  -0.71150  -0.70778  -0.70358  -0.70025
 Alpha  occ. eigenvalues --   -0.69773  -0.69755  -0.64562  -0.64389  -0.64293
 Alpha  occ. eigenvalues --   -0.64147  -0.61726  -0.61478  -0.54872  -0.54626
 Alpha  occ. eigenvalues --   -0.52700  -0.52481  -0.52435  -0.52237  -0.47987
 Alpha  occ. eigenvalues --   -0.47863  -0.47510  -0.47423  -0.43876  -0.43268
 Alpha  occ. eigenvalues --   -0.36931  -0.36661  -0.36013  -0.35765
 Alpha virt. eigenvalues --    0.05707   0.06077   0.11635   0.11882   0.17137
 Alpha virt. eigenvalues --    0.17469   0.21737   0.21947   0.27620   0.27820
 Alpha virt. eigenvalues --    0.28665   0.28888   0.31254   0.31463   0.32925

 Mulliken charges:
               1
     1  C   -0.172815
     2  C   -0.218784
     3  C   -0.170960
     4  C    0.160861
     5  C   -0.173224
     6  C   -0.218727
     7  H    0.222026
     8  H    0.220814
     9  H    0.276056
    10  H    0.274639
    11  H    0.219715
    12  N    0.489653
    13  O   -0.452146
    14  O   -0.457409
    15  C   -0.172418
    16  C   -0.218851
    17  C   -0.172193
    18  C    0.158887
    19  C   -0.172430
    20  C   -0.218683
    21  H    0.223224
    22  H    0.221624
    23  H    0.276560
    24  H    0.274912
    25  H    0.221178
    26  N    0.486261
    27  O   -0.461373
    28  O   -0.446396
 Sum of Mulliken charges =  -0.00000

 Dipole moment (field-independent basis, Debye):
    X=              1.2690    Y=              8.0784    Z=             -0.0857  Tot=              8.1779
 Quadrupole moment (field-independent basis, Debye-Ang):
   XX=            -72.4778   YY=           -108.8971   ZZ=            -97.0018
   XY=             -2.7062   XZ=             -3.8439   YZ=              0.1394

 Normal termination of Gaussian 16 at Thu May  6 12:46:25 2021.
