 Gaussian 16, Revision A.03,
 Gaussian 16:  EM64L-G16RevA.03 25-Dec-2016

 -------------
 #p 6-31g* mp2
 -------------

 ------------------------------------------------------
 Input file generated by CHIRIPA (05-May-2021 14:55:19)
 ------------------------------------------------------
 Symbolic Z-matrix:
 Charge =  0 Multiplicity = 1

                         Standard orientation:
 ---------------------------------------------------------------------
 Center     Atomic      Atomic             Coordinates (Angstroms)
 Number     Number       Type             X           Y           Z
 ---------------------------------------------------------------------
      1          6           0       -1.570671   -1.081737    2.312556
      2          6           0       -1.145567   -1.672620    1.118126
      3          6           0       -1.514804   -1.126690   -0.114827
      4          6           0       -2.313508    0.015833   -0.116399
      5          6           0       -2.753009    0.627619    1.056566
      6          6           0       -2.371623    0.064476    2.278025
      7          1           0       -1.279120   -1.512514    3.265879
      8          1           0       -0.523473   -2.562832    1.141906
      9          1           0       -1.199785   -1.563772   -1.054583
     10          1           0       -3.372465    1.514518    1.000863
     11          1           0       -2.703240    0.525498    3.204057
     12          7           0       -2.710834    0.602896   -1.415587
     13          8           0       -3.415066    1.609890   -1.389957
     14          8           0       -2.310502    0.044926   -2.434920
     15          6           0        3.148047   -0.541114   -0.432640
     16          6           0        2.220455   -1.741158   -0.239113
     17          6           0        2.775480   -3.023501   -0.859869
     18          1           0        3.317794   -0.386462   -1.506984
     19          1           0        4.128037   -0.769043    0.009018
     20          1           0        1.242077   -1.510505   -0.679785
     21          1           0        2.052742   -1.892853    0.834887
     22          1           0        3.741468   -3.280818   -0.413487
     23          1           0        2.926196   -2.896296   -1.936765
     24          1           0        2.096506   -3.868689   -0.709828
     25          6           0        2.606895    0.748275    0.182470
     26          6           0        3.534487    1.948319   -0.011058
     27          6           0        2.979462    3.230662    0.609698
     28          1           0        1.626905    0.976204   -0.259189
     29          1           0        2.437147    0.593623    1.256812
     30          1           0        3.702199    2.100014   -1.085059
     31          1           0        4.512864    1.717665    0.429613
     32          1           0        2.828745    3.103456    1.686593
     33          1           0        2.013474    3.487978    0.163315
     34          1           0        3.658436    4.075850    0.459656
 ---------------------------------------------------------------------

 SCF Done:  E(RHF) =  -669.534080180     A.U. after   15 cycles
 E2 =    -0.2093629064D+01 EUMP2 =    -0.67162770924388D+03

 The electronic state is 1-A.
 Alpha  occ. eigenvalues --  -20.60793 -20.60786 -15.85844 -11.31196 -11.27732
 Alpha  occ. eigenvalues --  -11.27728 -11.27464 -11.26762 -11.26719 -11.22145
 Alpha  occ. eigenvalues --  -11.21713 -11.21700 -11.21621 -11.21553 -11.21139
 Alpha  occ. eigenvalues --   -1.59868  -1.39422  -1.19356  -1.08768  -1.08715
 Alpha  occ. eigenvalues --   -1.04767  -1.03849  -0.96282  -0.95595  -0.87299
 Alpha  occ. eigenvalues --   -0.86154  -0.82447  -0.79969  -0.78548  -0.77441
 Alpha  occ. eigenvalues --   -0.72062  -0.71193  -0.70471  -0.65397  -0.64997
 Alpha  occ. eigenvalues --   -0.64744  -0.62159  -0.61227  -0.59669  -0.57897
 Alpha  occ. eigenvalues --   -0.55548  -0.55251  -0.53198  -0.52931  -0.52850
 Alpha  occ. eigenvalues --   -0.52695  -0.50210  -0.48821  -0.48820  -0.48241
 Alpha  occ. eigenvalues --   -0.46974  -0.46058  -0.45964  -0.44828  -0.44089
 Alpha  occ. eigenvalues --   -0.37329  -0.36246
 Alpha virt. eigenvalues --    0.05028   0.11192   0.16495   0.20345   0.22807
 Alpha virt. eigenvalues --    0.23927   0.25826   0.26199   0.27287   0.28141
 Alpha virt. eigenvalues --    0.29086   0.29928   0.31091   0.31764   0.32210

 Mulliken charges:
               1
     1  C   -0.172866
     2  C   -0.211608
     3  C   -0.173308
     4  C    0.157366
     5  C   -0.171767
     6  C   -0.217735
     7  H    0.225242
     8  H    0.226575
     9  H    0.275120
    10  H    0.275398
    11  H    0.223348
    12  N    0.487956
    13  O   -0.460221
    14  O   -0.460937
    15  C   -0.298223
    16  C   -0.304206
    17  C   -0.476354
    18  H    0.153646
    19  H    0.149548
    20  H    0.153016
    21  H    0.145341
    22  H    0.157395
    23  H    0.160464
    24  H    0.154276
    25  C   -0.298561
    26  C   -0.300148
    27  C   -0.476059
    28  H    0.152979
    29  H    0.146759
    30  H    0.154515
    31  H    0.150983
    32  H    0.152890
    33  H    0.158030
    34  H    0.161145
 Sum of Mulliken charges =  -0.00000

 Dipole moment (field-independent basis, Debye):
    X=              1.4527    Y=             -1.9992    Z=              4.5375  Tot=              5.1668
 Quadrupole moment (field-independent basis, Debye-Ang):
   XX=           -100.3549   YY=            -93.7075   ZZ=            -94.5103
   XY=              2.9836   XZ=            -11.9932   YZ=              1.6373

 Normal termination of Gaussian 16 at Thu May  6 19:02:51 2021.
