 Gaussian 16, Revision A.03,
 Gaussian 16:  EM64L-G16RevA.03 25-Dec-2016

 -------------
 #p 6-31g* mp2
 -------------

 ------------------------------------------------------
 Input file generated by CHIRIPA (05-May-2021 14:53:16)
 ------------------------------------------------------
 Symbolic Z-matrix:
 Charge =  0 Multiplicity = 1

                         Standard orientation:
 ---------------------------------------------------------------------
 Center     Atomic      Atomic             Coordinates (Angstroms)
 Number     Number       Type             X           Y           Z
 ---------------------------------------------------------------------
      1          6           0        3.825733    0.518531   -0.319375
      2          6           0        3.325029    1.787881    0.370575
      3          6           0        2.081804    2.373765   -0.299445
      4          1           0        4.046285    0.743541   -1.371835
      5          1           0        3.021875   -0.230603   -0.321716
      6          1           0        4.130047    2.533908    0.372842
      7          1           0        3.105825    1.559868    1.421563
      8          1           0        1.260880    1.649494   -0.288648
      9          1           0        2.290921    2.629068   -1.343328
     10          1           0        1.740918    3.280558    0.209852
     11          6           0        5.068038   -0.079005    0.338924
     12          6           0        5.568742   -1.348355   -0.351026
     13          6           0        6.811967   -1.934238    0.318994
     14          1           0        5.871896    0.670129    0.341266
     15          1           0        4.847485   -0.304015    1.391384
     16          1           0        5.787946   -1.120342   -1.402014
     17          1           0        4.763724   -2.094382   -0.353293
     18          1           0        6.602849   -2.189542    1.362877
     19          1           0        7.632890   -1.209967    0.308197
     20          1           0        7.152852   -2.841031   -0.190303
     21          6           0       -5.887993   -0.888435    0.151929
     22          6           0       -4.883967   -1.845636   -0.027575
     23          6           0       -3.543169   -1.459953   -0.117328
     24          6           0       -3.240765   -0.102398   -0.023063
     25          6           0       -4.218446    0.875064    0.155820
     26          6           0       -5.552619    0.466471    0.242894
     27          1           0       -6.926984   -1.196942    0.220610
     28          1           0       -5.141487   -2.898579   -0.098555
     29          1           0       -2.745895   -2.180003   -0.256259
     30          1           0       -3.930806    1.917256    0.223035
     31          1           0       -6.330263    1.212044    0.382302
     32          7           0       -1.824829    0.318034   -0.116661
     33          8           0       -1.584526    1.520319   -0.030623
     34          8           0       -0.982132   -0.562676   -0.274290
 ---------------------------------------------------------------------

 SCF Done:  E(RHF) =  -669.536852205     A.U. after   15 cycles
 E2 =    -0.2091477076D+01 EUMP2 =    -0.67162832928102D+03

 The electronic state is 1-A.
 Alpha  occ. eigenvalues --  -20.61114 -20.61109 -15.86101 -11.31381 -11.27932
 Alpha  occ. eigenvalues --  -11.27927 -11.27660 -11.26926 -11.26916 -11.20750
 Alpha  occ. eigenvalues --  -11.20392 -11.20345 -11.20072 -11.19993 -11.18938
 Alpha  occ. eigenvalues --   -1.60145  -1.39702  -1.19539  -1.08954  -1.07233
 Alpha  occ. eigenvalues --   -1.04926  -1.02258  -0.95803  -0.94679  -0.86329
 Alpha  occ. eigenvalues --   -0.85690  -0.82636  -0.78377  -0.77699  -0.76982
 Alpha  occ. eigenvalues --   -0.72304  -0.71445  -0.70647  -0.65193  -0.64929
 Alpha  occ. eigenvalues --   -0.63871  -0.62272  -0.59658  -0.58150  -0.56292
 Alpha  occ. eigenvalues --   -0.55439  -0.53968  -0.53261  -0.53016  -0.51386
 Alpha  occ. eigenvalues --   -0.51127  -0.49296  -0.49076  -0.48385  -0.46634
 Alpha  occ. eigenvalues --   -0.45391  -0.45123  -0.44537  -0.44353  -0.42518
 Alpha  occ. eigenvalues --   -0.37515  -0.36523
 Alpha virt. eigenvalues --    0.04837   0.11133   0.16350   0.21275   0.23980
 Alpha virt. eigenvalues --    0.25660   0.27197   0.27815   0.28167   0.28655
 Alpha virt. eigenvalues --    0.29406   0.30844   0.32391   0.32680   0.32825

 Mulliken charges:
               1
     1  C   -0.299696
     2  C   -0.298214
     3  C   -0.484886
     4  H    0.145982
     5  H    0.158692
     6  H    0.143806
     7  H    0.148679
     8  H    0.187438
     9  H    0.145237
    10  H    0.153679
    11  C   -0.297179
    12  C   -0.298860
    13  C   -0.474963
    14  H    0.146300
    15  H    0.147854
    16  H    0.150416
    17  H    0.152274
    18  H    0.153915
    19  H    0.153710
    20  H    0.157458
    21  C   -0.170388
    22  C   -0.218611
    23  C   -0.170674
    24  C    0.159234
    25  C   -0.170661
    26  C   -0.218595
    27  H    0.226310
    28  H    0.224110
    29  H    0.275913
    30  H    0.276237
    31  H    0.224171
    32  N    0.488337
    33  O   -0.456607
    34  O   -0.460419
 Sum of Mulliken charges =  -0.00000

 Dipole moment (field-independent basis, Debye):
    X=             -5.5274    Y=             -1.5705    Z=              0.3218  Tot=              5.7552
 Quadrupole moment (field-independent basis, Debye-Ang):
   XX=            -64.6007   YY=            -90.4256   ZZ=            -95.5558
   XY=              4.4007   XZ=             -1.9248   YZ=              0.5169

 Normal termination of Gaussian 16 at Wed May  5 17:11:20 2021.
