 Gaussian 16, Revision A.03,
 Gaussian 16:  EM64L-G16RevA.03 25-Dec-2016

 -------------
 #p 6-31g* mp2
 -------------

 ------------------------------------------------------
 Input file generated by CHIRIPA (05-May-2021 14:51:11)
 ------------------------------------------------------
 Symbolic Z-matrix:
 Charge =  0 Multiplicity = 1

                         Standard orientation:
 ---------------------------------------------------------------------
 Center     Atomic      Atomic             Coordinates (Angstroms)
 Number     Number       Type             X           Y           Z
 ---------------------------------------------------------------------
      1          6           0        2.738692   -0.247223   -0.620340
      2          6           0        3.109585   -1.629509   -0.082094
      3          6           0        2.635075   -2.764367   -0.990242
      4          1           0        1.648528   -0.188995   -0.743217
      5          1           0        3.173221   -0.122701   -1.621875
      6          1           0        2.675644   -1.750853    0.918699
      7          1           0        4.198975   -1.684387    0.039697
      8          1           0        3.078390   -2.671171   -1.986931
      9          1           0        1.546403   -2.738014   -1.102935
     10          1           0        2.910754   -3.743589   -0.586529
     11          6           0        3.206277    0.897616    0.276564
     12          6           0        2.835384    2.279902   -0.261682
     13          6           0        3.309893    3.414759    0.646467
     14          1           0        2.771748    0.773094    1.278100
     15          1           0        4.296440    0.839388    0.399441
     16          1           0        1.745994    2.334780   -0.383473
     17          1           0        3.269325    2.401245   -1.262475
     18          1           0        4.398565    3.388407    0.759159
     19          1           0        2.866579    3.321564    1.643155
     20          1           0        3.034215    4.393982    0.242753
     21          6           0       -3.224687    0.298684   -0.189498
     22          6           0       -4.722980    0.542023   -0.005401
     23          6           0       -5.212530    1.793759   -0.734299
     24          1           0       -2.670156    1.175559    0.171790
     25          1           0       -3.003882    0.209409   -1.262191
     26          1           0       -4.941106    0.629433    1.066697
     27          1           0       -5.273999   -0.335613   -0.366993
     28          1           0       -5.023632    1.712049   -1.809586
     29          1           0       -4.688847    2.682578   -0.367749
     30          1           0       -6.286228    1.948676   -0.589271
     31          6           0       -2.720282   -0.949076    0.533274
     32          6           0       -1.221989   -1.192416    0.349178
     33          6           0       -0.732438   -2.444151    1.078074
     34          1           0       -2.941087   -0.859802    1.605967
     35          1           0       -3.274813   -1.825951    0.171986
     36          1           0       -0.670969   -0.314780    0.710770
     37          1           0       -1.003863   -1.279825   -0.722921
     38          1           0       -1.256121   -3.332970    0.711525
     39          1           0       -0.921337   -2.362442    2.153362
     40          1           0        0.341260   -2.599068    0.933047
 ---------------------------------------------------------------------

 SCF Done:  E(RHF) =  -470.732383199     A.U. after   11 cycles
 E2 =    -0.1584382208D+01 EUMP2 =    -0.47231676540656D+03

 The electronic state is 1-A.
 Alpha  occ. eigenvalues --  -11.21697 -11.21637 -11.21591 -11.21590 -11.21461
 Alpha  occ. eigenvalues --  -11.21400 -11.21371 -11.21294 -11.21097 -11.21069
 Alpha  occ. eigenvalues --  -11.21063 -11.21038  -1.08505  -1.08397  -1.03636
 Alpha  occ. eigenvalues --   -1.03479  -0.96069  -0.95930  -0.87072  -0.86957
 Alpha  occ. eigenvalues --   -0.79678  -0.79568  -0.78353  -0.78168  -0.65136
 Alpha  occ. eigenvalues --   -0.65091  -0.61178  -0.60969  -0.59337  -0.59256
 Alpha  occ. eigenvalues --   -0.57595  -0.57573  -0.55404  -0.55198  -0.52689
 Alpha  occ. eigenvalues --   -0.52660  -0.52485  -0.52308  -0.49994  -0.49885
 Alpha  occ. eigenvalues --   -0.47987  -0.47879  -0.46684  -0.46626  -0.46015
 Alpha  occ. eigenvalues --   -0.45766  -0.45735  -0.45479  -0.43818  -0.43757
 Alpha virt. eigenvalues --    0.20178   0.23122   0.23293   0.25195   0.25895
 Alpha virt. eigenvalues --    0.26204   0.26925   0.27474   0.28442   0.29296
 Alpha virt. eigenvalues --    0.30257   0.31029   0.31604   0.31818   0.32372

 Mulliken charges:
               1
     1  C   -0.304236
     2  C   -0.303070
     3  C   -0.481038
     4  H    0.157404
     5  H    0.149216
     6  H    0.152877
     7  H    0.152787
     8  H    0.155736
     9  H    0.159750
    10  H    0.160290
    11  C   -0.298266
    12  C   -0.299792
    13  C   -0.475661
    14  H    0.149158
    15  H    0.149556
    16  H    0.151902
    17  H    0.152010
    18  H    0.155234
    19  H    0.154914
    20  H    0.160213
    21  C   -0.298398
    22  C   -0.299695
    23  C   -0.475755
    24  H    0.149368
    25  H    0.149688
    26  H    0.152010
    27  H    0.152097
    28  H    0.155295
    29  H    0.155216
    30  H    0.160400
    31  C   -0.298036
    32  C   -0.302866
    33  C   -0.484961
    34  H    0.149850
    35  H    0.150083
    36  H    0.152481
    37  H    0.152646
    38  H    0.155399
    39  H    0.155067
    40  H    0.171129
 Sum of Mulliken charges =  -0.00000

 Dipole moment (field-independent basis, Debye):
    X=             -0.0262    Y=             -0.0107    Z=             -0.0094  Tot=              0.0298
 Quadrupole moment (field-independent basis, Debye-Ang):
   XX=            -84.3465   YY=            -86.0914   ZZ=            -84.3654
   XY=              0.3318   XZ=             -0.6672   YZ=              0.3533

 Normal termination of Gaussian 16 at Thu May  6 03:50:18 2021.
