 Gaussian 16, Revision A.03,
 Gaussian 16:  EM64L-G16RevA.03 25-Dec-2016

 -------------
 #p 6-31g* mp2
 -------------

 ------------------------------------------------------
 Input file generated by CHIRIPA (05-May-2021 14:53:12)
 ------------------------------------------------------
 Symbolic Z-matrix:
 Charge =  0 Multiplicity = 1

                         Standard orientation:
 ---------------------------------------------------------------------
 Center     Atomic      Atomic             Coordinates (Angstroms)
 Number     Number       Type             X           Y           Z
 ---------------------------------------------------------------------
      1          6           0       -3.984852   -0.269000    0.334411
      2          6           0       -4.322473   -0.386110   -1.152291
      3          6           0       -5.693964   -1.015243   -1.399265
      4          1           0       -4.019542   -1.267393    0.791526
      5          1           0       -4.759294    0.330156    0.833054
      6          1           0       -3.546889   -0.983707   -1.648239
      7          1           0       -4.286787    0.612652   -1.605960
      8          1           0       -6.482163   -0.417262   -0.930478
      9          1           0       -5.738061   -2.022692   -0.972997
     10          1           0       -5.914967   -1.089355   -2.468623
     11          6           0       -2.616886    0.358074    0.597426
     12          6           0       -2.279266    0.475184    2.084128
     13          6           0       -0.907774    1.104317    2.331102
     14          1           0       -1.842444   -0.241083    0.098783
     15          1           0       -2.582197    1.356466    0.140311
     16          1           0       -2.314951   -0.523579    2.537798
     17          1           0       -3.054849    1.072780    2.580076
     18          1           0       -0.863677    2.111765    1.904834
     19          1           0       -0.119575    0.506335    1.862315
     20          1           0       -0.686771    1.178429    3.400460
     21          6           0        1.571735    2.166178   -1.076359
     22          6           0        0.761338    1.032761   -0.953300
     23          6           0        1.308541   -0.191945   -0.559331
     24          6           0        2.676164   -0.247576   -0.295130
     25          6           0        3.509734    0.863979   -0.408698
     26          6           0        2.940933    2.078324   -0.804145
     27          1           0        1.138266    3.113535   -1.382978
     28          1           0       -0.302319    1.098040   -1.164057
     29          1           0        0.704233   -1.085013   -0.456088
     30          1           0        4.566670    0.767817   -0.191770
     31          1           0        3.572717    2.956914   -0.898878
     32          7           0        3.266895   -1.538634    0.122729
     33          8           0        4.474617   -1.561398    0.349720
     34          8           0        2.511002   -2.503354    0.215345
 ---------------------------------------------------------------------

 SCF Done:  E(RHF) =  -669.533532415     A.U. after   15 cycles
 E2 =    -0.2094471632D+01 EUMP2 =    -0.67162800404743D+03

 The electronic state is 1-A.
 Alpha  occ. eigenvalues --  -20.60759 -20.60753 -15.85809 -11.31171 -11.27691
 Alpha  occ. eigenvalues --  -11.27680 -11.27406 -11.26733 -11.26619 -11.22301
 Alpha  occ. eigenvalues --  -11.22227 -11.22106 -11.21996 -11.21525 -11.21346
 Alpha  occ. eigenvalues --   -1.59833  -1.39387  -1.19320  -1.09108  -1.08707
 Alpha  occ. eigenvalues --   -1.04737  -1.04050  -0.96514  -0.95557  -0.87530
 Alpha  occ. eigenvalues --   -0.86114  -0.82414  -0.80139  -0.79025  -0.77399
 Alpha  occ. eigenvalues --   -0.72028  -0.71157  -0.70429  -0.65747  -0.64955
 Alpha  occ. eigenvalues --   -0.64719  -0.62112  -0.61432  -0.59874  -0.58166
 Alpha  occ. eigenvalues --   -0.55823  -0.55211  -0.53353  -0.53162  -0.52896
 Alpha  occ. eigenvalues --   -0.52571  -0.50447  -0.48788  -0.48786  -0.48411
 Alpha  occ. eigenvalues --   -0.47167  -0.46427  -0.46421  -0.44793  -0.44364
 Alpha  occ. eigenvalues --   -0.37288  -0.36199
 Alpha virt. eigenvalues --    0.05058   0.11237   0.16518   0.20192   0.22726
 Alpha virt. eigenvalues --    0.24025   0.24817   0.25495   0.27500   0.28315
 Alpha virt. eigenvalues --    0.29713   0.30433   0.31059   0.31578   0.31708

 Mulliken charges:
               1
     1  C   -0.297572
     2  C   -0.300846
     3  C   -0.475986
     4  H    0.154220
     5  H    0.152209
     6  H    0.150488
     7  H    0.149373
     8  H    0.156345
     9  H    0.157869
    10  H    0.161678
    11  C   -0.303223
    12  C   -0.299809
    13  C   -0.479244
    14  H    0.143208
    15  H    0.144467
    16  H    0.156788
    17  H    0.153455
    18  H    0.149629
    19  H    0.162509
    20  H    0.162897
    21  C   -0.173015
    22  C   -0.213982
    23  C   -0.180197
    24  C    0.160510
    25  C   -0.171891
    26  C   -0.217563
    27  H    0.225115
    28  H    0.231776
    29  H    0.275205
    30  H    0.275304
    31  H    0.223236
    32  N    0.488464
    33  O   -0.460201
    34  O   -0.461215
 Sum of Mulliken charges =  -0.00000

 Dipole moment (field-independent basis, Debye):
    X=             -2.2060    Y=              4.5149    Z=             -1.4001  Tot=              5.2165
 Quadrupole moment (field-independent basis, Debye-Ang):
   XX=           -102.1134   YY=            -95.9848   ZZ=            -94.6540
   XY=             14.5062   XZ=             -3.4807   YZ=             -1.0517

 Normal termination of Gaussian 16 at Thu May  6 11:58:52 2021.
