 Gaussian 16, Revision A.03,
 Gaussian 16:  EM64L-G16RevA.03 25-Dec-2016

 -------------
 #p 6-31g* mp2
 -------------

 ------------------------------------------------------
 Input file generated by CHIRIPA (05-May-2021 14:51:11)
 ------------------------------------------------------
 Symbolic Z-matrix:
 Charge =  0 Multiplicity = 1

                         Standard orientation:
 ---------------------------------------------------------------------
 Center     Atomic      Atomic             Coordinates (Angstroms)
 Number     Number       Type             X           Y           Z
 ---------------------------------------------------------------------
      1          6           0        2.272711    0.963269   -0.507406
      2          6           0        1.867175    2.419802   -0.279294
      3          6           0        1.660711    3.187451   -1.585388
      4          1           0        3.196814    0.935238   -1.100865
      5          1           0        1.499880    0.464622   -1.108637
      6          1           0        2.639872    2.915183    0.322498
      7          1           0        0.944035    2.444372    0.313855
      8          1           0        0.875299    2.719186   -2.187430
      9          1           0        2.580771    3.192672   -2.178738
     10          1           0        1.371326    4.226381   -1.398995
     11          6           0        2.482792    0.182769    0.788902
     12          6           0        2.888329   -1.273765    0.560790
     13          6           0        3.094792   -2.041414    1.866884
     14          1           0        3.255623    0.681416    1.390133
     15          1           0        1.558690    0.210800    1.382362
     16          1           0        3.811469   -1.298334   -0.032359
     17          1           0        2.115632   -1.769145   -0.041002
     18          1           0        2.174733   -2.046634    2.460234
     19          1           0        3.880205   -1.573148    2.468927
     20          1           0        3.384178   -3.080343    1.680491
     21          6           0       -2.370882   -1.200145   -0.576751
     22          6           0       -0.961895   -1.678769   -0.928402
     23          6           0       -0.964649   -2.934265   -1.801051
     24          1           0       -2.906814   -2.007259   -0.058784
     25          1           0       -2.925407   -1.001807   -1.504414
     26          1           0       -0.409741   -1.874822   -0.000337
     27          1           0       -0.429190   -0.870355   -1.445421
     28          1           0       -1.491781   -2.748002   -2.742347
     29          1           0       -1.472221   -3.758176   -1.289053
     30          1           0        0.052741   -3.259005   -2.040467
     31          6           0       -2.384622    0.054107    0.295254
     32          6           0       -3.793609    0.532731    0.646906
     33          6           0       -3.790854    1.788228    1.519554
     34          1           0       -1.830097   -0.144231    1.222918
     35          1           0       -1.848690    0.861221   -0.222711
     36          1           0       -4.326314   -0.275682    1.163925
     37          1           0       -4.345762    0.728785   -0.281159
     38          1           0       -3.283283    2.612138    1.007557
     39          1           0       -3.263723    1.601964    2.460852
     40          1           0       -4.808245    2.112967    1.758971
 ---------------------------------------------------------------------

 SCF Done:  E(RHF) =  -470.732863997     A.U. after   11 cycles
 E2 =    -0.1584686326D+01 EUMP2 =    -0.47231755032301D+03

 The electronic state is 1-A.
 Alpha  occ. eigenvalues --  -11.21694 -11.21673 -11.21559 -11.21518 -11.21504
 Alpha  occ. eigenvalues --  -11.21444 -11.21331 -11.21267 -11.21157 -11.21125
 Alpha  occ. eigenvalues --  -11.21074 -11.21053  -1.08542  -1.08361  -1.03623
 Alpha  occ. eigenvalues --   -1.03489  -0.96061  -0.95945  -0.87076  -0.86963
 Alpha  occ. eigenvalues --   -0.79712  -0.79551  -0.78403  -0.78131  -0.65173
 Alpha  occ. eigenvalues --   -0.65013  -0.61115  -0.60819  -0.59432  -0.59302
 Alpha  occ. eigenvalues --   -0.57674  -0.57555  -0.55375  -0.55216  -0.52753
 Alpha  occ. eigenvalues --   -0.52643  -0.52490  -0.52370  -0.50047  -0.49866
 Alpha  occ. eigenvalues --   -0.48076  -0.47892  -0.46885  -0.46439  -0.46175
 Alpha  occ. eigenvalues --   -0.45816  -0.45619  -0.45251  -0.43866  -0.43735
 Alpha virt. eigenvalues --    0.19857   0.22240   0.23456   0.23890   0.25669
 Alpha virt. eigenvalues --    0.26148   0.27171   0.27683   0.28333   0.30124
 Alpha virt. eigenvalues --    0.30704   0.31143   0.31488   0.31775   0.32422

 Mulliken charges:
               1
     1  C   -0.304704
     2  C   -0.300749
     3  C   -0.475544
     4  H    0.149067
     5  H    0.156430
     6  H    0.151839
     7  H    0.153198
     8  H    0.153779
     9  H    0.155349
    10  H    0.160195
    11  C   -0.298192
    12  C   -0.305747
    13  C   -0.475770
    14  H    0.149231
    15  H    0.150269
    16  H    0.151547
    17  H    0.158714
    18  H    0.154206
    19  H    0.155294
    20  H    0.160026
    21  C   -0.297774
    22  C   -0.308339
    23  C   -0.476768
    24  H    0.150109
    25  H    0.149802
    26  H    0.154819
    27  H    0.157218
    28  H    0.155667
    29  H    0.155711
    30  H    0.161225
    31  C   -0.300221
    32  C   -0.299685
    33  C   -0.475899
    34  H    0.149468
    35  H    0.150419
    36  H    0.152302
    37  H    0.152281
    38  H    0.155349
    39  H    0.155249
    40  H    0.160629
 Sum of Mulliken charges =  -0.00000

 Dipole moment (field-independent basis, Debye):
    X=             -0.0525    Y=             -0.0244    Z=             -0.0146  Tot=              0.0598
 Quadrupole moment (field-independent basis, Debye-Ang):
   XX=            -83.8933   YY=            -85.6694   ZZ=            -85.2240
   XY=              0.5500   XZ=             -0.0713   YZ=             -0.4065

 Normal termination of Gaussian 16 at Thu May  6 02:17:25 2021.
