 Gaussian 16, Revision A.03,
 Gaussian 16:  EM64L-G16RevA.03 25-Dec-2016

 -------------
 #p 6-31g* mp2
 -------------

 ------------------------------------------------------
 Input file generated by CHIRIPA (05-May-2021 14:55:24)
 ------------------------------------------------------
 Symbolic Z-matrix:
 Charge =  0 Multiplicity = 1

                         Standard orientation:
 ---------------------------------------------------------------------
 Center     Atomic      Atomic             Coordinates (Angstroms)
 Number     Number       Type             X           Y           Z
 ---------------------------------------------------------------------
      1          6           0        3.496907    2.467571   -0.061476
      2          6           0        3.997340    1.625533   -1.060005
      3          6           0        3.805380    0.242770   -0.984750
      4          6           0        3.105209   -0.266323    0.107896
      5          6           0        2.594447    0.546576    1.118642
      6          6           0        2.798289    1.926359    1.022749
      7          1           0        3.650641    3.540577   -0.127951
      8          1           0        4.540277    2.043059   -1.903176
      9          1           0        4.182061   -0.432088   -1.743760
     10          1           0        2.057235    0.101002    1.947065
     11          1           0        2.408520    2.577888    1.799689
     12          7           0        2.895700   -1.728615    0.198489
     13          8           0        2.275459   -2.152335    1.171320
     14          8           0        3.355694   -2.423351   -0.705050
     15          6           0       -3.379578   -0.308808   -0.360479
     16          6           0       -2.103884    0.380933    0.124132
     17          6           0       -0.833304   -0.313351   -0.367182
     18          1           0       -3.375895   -1.353420   -0.020304
     19          1           0       -3.377806   -0.337778   -1.458912
     20          1           0       -2.108718    0.409827    1.221291
     21          1           0       -2.110694    1.424076   -0.217075
     22          1           0       -0.801591   -0.329363   -1.461411
     23          1           0       -0.799604   -1.349374   -0.014874
     24          1           0        0.066700    0.196197   -0.009115
     25          6           0       -4.658153    0.373625    0.122488
     26          6           0       -5.933847   -0.316115   -0.362123
     27          6           0       -7.204427    0.378169    0.129190
     28          1           0       -4.659926    0.402595    1.220920
     29          1           0       -4.661836    1.418236   -0.217687
     30          1           0       -5.927037   -1.359259   -0.020917
     31          1           0       -5.929013   -0.345009   -1.459282
     32          1           0       -7.238127    1.414192   -0.223117
     33          1           0       -7.236140    0.394180    1.223420
     34          1           0       -8.104433   -0.131380   -0.228876
 ---------------------------------------------------------------------

 SCF Done:  E(RHF) =  -669.534979173     A.U. after   15 cycles
 E2 =    -0.2092597557D+01 EUMP2 =    -0.67162757673023D+03

 The electronic state is 1-A.
 Alpha  occ. eigenvalues --  -20.60781 -20.60766 -15.85821 -11.31198 -11.27785
 Alpha  occ. eigenvalues --  -11.27771 -11.27539 -11.26813 -11.26798 -11.21491
 Alpha  occ. eigenvalues --  -11.21469 -11.21280 -11.21190 -11.20996 -11.20686
 Alpha  occ. eigenvalues --   -1.59840  -1.39395  -1.19400  -1.08780  -1.08289
 Alpha  occ. eigenvalues --   -1.04812  -1.03376  -0.95823  -0.95607  -0.86844
 Alpha  occ. eigenvalues --   -0.86192  -0.82446  -0.79453  -0.78107  -0.77487
 Alpha  occ. eigenvalues --   -0.72045  -0.71158  -0.70505  -0.65048  -0.64918
 Alpha  occ. eigenvalues --   -0.64802  -0.62155  -0.60766  -0.59240  -0.57468
 Alpha  occ. eigenvalues --   -0.55302  -0.55081  -0.53410  -0.52892  -0.52346
 Alpha  occ. eigenvalues --   -0.52120  -0.49739  -0.48806  -0.48796  -0.47756
 Alpha  occ. eigenvalues --   -0.46483  -0.45645  -0.45576  -0.44784  -0.43643
 Alpha  occ. eigenvalues --   -0.37339  -0.36360
 Alpha virt. eigenvalues --    0.05022   0.11201   0.16520   0.21344   0.23020
 Alpha virt. eigenvalues --    0.24481   0.26778   0.27220   0.27654   0.27949
 Alpha virt. eigenvalues --    0.28616   0.30940   0.31602   0.31993   0.32113

 Mulliken charges:
               1
     1  C   -0.170705
     2  C   -0.218273
     3  C   -0.170891
     4  C    0.164273
     5  C   -0.177025
     6  C   -0.217291
     7  H    0.225817
     8  H    0.223605
     9  H    0.275857
    10  H    0.276683
    11  H    0.223990
    12  N    0.489424
    13  O   -0.460461
    14  O   -0.460350
    15  C   -0.298556
    16  C   -0.298601
    17  C   -0.485694
    18  H    0.152811
    19  H    0.149468
    20  H    0.149378
    21  H    0.147863
    22  H    0.153800
    23  H    0.167384
    24  H    0.159453
    25  C   -0.298025
    26  C   -0.299678
    27  C   -0.475600
    28  H    0.148965
    29  H    0.147824
    30  H    0.153180
    31  H    0.151870
    32  H    0.154223
    33  H    0.154966
    34  H    0.160314
 Sum of Mulliken charges =  -0.00000

 Dipole moment (field-independent basis, Debye):
    X=              0.8345    Y=              5.0777    Z=             -0.3176  Tot=              5.1556
 Quadrupole moment (field-independent basis, Debye-Ang):
   XX=            -90.6701   YY=            -97.8055   ZZ=            -90.7278
   XY=             16.2738   XZ=             -3.1748   YZ=              0.6439

 Normal termination of Gaussian 16 at Thu May  6 20:55:13 2021.
