 Gaussian 16, Revision A.03,
 Gaussian 16:  EM64L-G16RevA.03 25-Dec-2016

 -------------
 #p 6-31g* mp2
 -------------

 ------------------------------------------------------
 Input file generated by CHIRIPA (05-May-2021 14:51:08)
 ------------------------------------------------------
 Symbolic Z-matrix:
 Charge =  0 Multiplicity = 1

                         Standard orientation:
 ---------------------------------------------------------------------
 Center     Atomic      Atomic             Coordinates (Angstroms)
 Number     Number       Type             X           Y           Z
 ---------------------------------------------------------------------
      1          6           0       -1.997612    1.299082    0.333651
      2          6           0       -2.079984    2.697260   -0.279781
      3          6           0       -1.096536    3.680500    0.355721
      4          1           0       -2.190882    1.367181    1.412981
      5          1           0       -0.973132    0.917508    0.223022
      6          1           0       -3.104347    3.075520   -0.169260
      7          1           0       -1.886684    2.625798   -1.357809
      8          1           0       -0.066951    3.329083    0.232989
      9          1           0       -1.291533    3.781360    1.428290
     10          1           0       -1.172341    4.673714   -0.097753
     11          6           0       -2.974737    0.304848   -0.291213
     12          6           0       -2.892364   -1.093330    0.322218
     13          6           0       -3.875813   -2.076570   -0.313283
     14          1           0       -3.999216    0.686421   -0.180584
     15          1           0       -2.781466    0.236749   -1.370543
     16          1           0       -3.085664   -1.021868    1.400246
     17          1           0       -1.868001   -1.471590    0.211698
     18          1           0       -3.680816   -2.177431   -1.385852
     19          1           0       -4.905397   -1.725154   -0.190551
     20          1           0       -3.800007   -3.069784    0.140191
     21          6           0        1.825500   -1.179257   -0.088989
     22          6           0        1.943447   -2.670367    0.228292
     23          6           0        0.613471   -3.411551    0.088279
     24          1           0        1.079788   -0.726643    0.578843
     25          1           0        1.443202   -1.058307   -1.112030
     26          1           0        2.326719   -2.788468    1.249944
     27          1           0        2.689104   -3.119444   -0.440243
     28          1           0        0.228963   -3.323372   -0.932984
     29          1           0       -0.135481   -2.990515    0.766806
     30          1           0        0.720717   -4.475886    0.319693
     31          6           0        3.146848   -0.424672    0.046551
     32          6           0        3.028901    1.066437   -0.270730
     33          6           0        4.358877    1.807622   -0.130717
     34          1           0        3.529145   -0.545623    1.069593
     35          1           0        3.892560   -0.877287   -0.621280
     36          1           0        2.283244    1.515515    0.397806
     37          1           0        2.645630    1.184538   -1.292381
     38          1           0        5.107830    1.386585   -0.809243
     39          1           0        4.743386    1.719442    0.890546
     40          1           0        4.251632    2.871956   -0.362130
 ---------------------------------------------------------------------

 SCF Done:  E(RHF) =  -470.733021990     A.U. after   11 cycles
 E2 =    -0.1584366761D+01 EUMP2 =    -0.47231738875147D+03

 The electronic state is 1-A.
 Alpha  occ. eigenvalues --  -11.21679 -11.21662 -11.21558 -11.21484 -11.21481
 Alpha  occ. eigenvalues --  -11.21421 -11.21337 -11.21278 -11.21116 -11.21106
 Alpha  occ. eigenvalues --  -11.21038 -11.21003  -1.08511  -1.08362  -1.03603
 Alpha  occ. eigenvalues --   -1.03462  -0.96050  -0.95914  -0.87066  -0.86933
 Alpha  occ. eigenvalues --   -0.79716  -0.79490  -0.78435  -0.78084  -0.65191
 Alpha  occ. eigenvalues --   -0.64944  -0.61052  -0.60833  -0.59434  -0.59263
 Alpha  occ. eigenvalues --   -0.57753  -0.57455  -0.55365  -0.55170  -0.52730
 Alpha  occ. eigenvalues --   -0.52617  -0.52501  -0.52320  -0.50051  -0.49790
 Alpha  occ. eigenvalues --   -0.48188  -0.47722  -0.46792  -0.46461  -0.46331
 Alpha  occ. eigenvalues --   -0.45800  -0.45701  -0.45038  -0.43847  -0.43716
 Alpha virt. eigenvalues --    0.20628   0.22204   0.23496   0.24397   0.25349
 Alpha virt. eigenvalues --    0.26434   0.26720   0.27243   0.28185   0.29757
 Alpha virt. eigenvalues --    0.30952   0.31130   0.31724   0.31944   0.32172

 Mulliken charges:
               1
     1  C   -0.305029
     2  C   -0.298922
     3  C   -0.478596
     4  H    0.148678
     5  H    0.156061
     6  H    0.151789
     7  H    0.151855
     8  H    0.157789
     9  H    0.154755
    10  H    0.160141
    11  C   -0.297006
    12  C   -0.308983
    13  C   -0.475138
    14  H    0.149123
    15  H    0.149205
    16  H    0.150490
    17  H    0.161830
    18  H    0.154784
    19  H    0.154843
    20  H    0.160328
    21  C   -0.304375
    22  C   -0.299378
    23  C   -0.480563
    24  H    0.155320
    25  H    0.148991
    26  H    0.152169
    27  H    0.152172
    28  H    0.155067
    29  H    0.160707
    30  H    0.160791
    31  C   -0.297952
    32  C   -0.303394
    33  C   -0.475667
    34  H    0.149904
    35  H    0.150112
    36  H    0.154675
    37  H    0.151822
    38  H    0.155399
    39  H    0.155503
    40  H    0.160700
 Sum of Mulliken charges =  -0.00000

 Dipole moment (field-independent basis, Debye):
    X=              0.0664    Y=             -0.0367    Z=              0.0044  Tot=              0.0760
 Quadrupole moment (field-independent basis, Debye-Ang):
   XX=            -85.5296   YY=            -85.8121   ZZ=            -83.4593
   XY=             -1.3327   XZ=             -0.9454   YZ=              0.0005

 Normal termination of Gaussian 16 at Wed May  5 18:07:59 2021.
