 Gaussian 16, Revision A.03,
 Gaussian 16:  EM64L-G16RevA.03 25-Dec-2016

 -------------
 #p 6-31g* mp2
 -------------

 ------------------------------------------------------
 Input file generated by CHIRIPA (05-May-2021 14:53:16)
 ------------------------------------------------------
 Symbolic Z-matrix:
 Charge =  0 Multiplicity = 1

                         Standard orientation:
 ---------------------------------------------------------------------
 Center     Atomic      Atomic             Coordinates (Angstroms)
 Number     Number       Type             X           Y           Z
 ---------------------------------------------------------------------
      1          6           0       -3.464204   -0.376026    0.180975
      2          6           0       -3.916693   -1.467266   -0.789815
      3          6           0       -3.942146   -2.855205   -0.148901
      4          1           0       -2.463853   -0.624255    0.561274
      5          1           0       -4.135850   -0.367095    1.050576
      6          1           0       -3.245218   -1.473214   -1.657976
      7          1           0       -4.916002   -1.216312   -1.167994
      8          1           0       -4.626507   -2.872512    0.705471
      9          1           0       -2.946230   -3.130874    0.212705
     10          1           0       -4.268439   -3.620078   -0.860493
     11          6           0       -3.433596    1.017111   -0.445092
     12          6           0       -2.981107    2.108351    0.525698
     13          6           0       -2.955654    3.496291   -0.115216
     14          1           0       -2.761950    1.008181   -1.314693
     15          1           0       -4.433947    1.265341   -0.825391
     16          1           0       -1.981798    1.857398    0.903877
     17          1           0       -3.652582    2.114300    1.393859
     18          1           0       -3.951570    3.771959   -0.476822
     19          1           0       -2.271293    3.513598   -0.969588
     20          1           0       -2.629361    4.261164    0.596376
     21          6           0        4.921350    0.463516   -0.844007
     22          6           0        3.884721    0.083672   -1.702868
     23          6           0        2.646682   -0.313713   -1.189165
     24          6           0        2.479165   -0.319445    0.194740
     25          6           0        3.492582    0.053428    1.076354
     26          6           0        4.722322    0.447211    0.540422
     27          1           0        5.879864    0.770815   -1.251698
     28          1           0        4.036442    0.095363   -2.778456
     29          1           0        1.827041   -0.612695   -1.831206
     30          1           0        3.311343    0.031528    2.144104
     31          1           0        5.525586    0.741688    1.209821
     32          7           0        1.172901   -0.738232    0.750340
     33          8           0        1.050643   -0.734632    1.973319
     34          8           0        0.296043   -1.062148   -0.047679
 ---------------------------------------------------------------------

 SCF Done:  E(RHF) =  -669.536702945     A.U. after   15 cycles
 E2 =    -0.2091465603D+01 EUMP2 =    -0.67162816854789D+03

 The electronic state is 1-A.
 Alpha  occ. eigenvalues --  -20.61127 -20.61112 -15.86134 -11.31395 -11.27949
 Alpha  occ. eigenvalues --  -11.27944 -11.27674 -11.26940 -11.26931 -11.20587
 Alpha  occ. eigenvalues --  -11.20357 -11.20285 -11.20202 -11.19791 -11.19714
 Alpha  occ. eigenvalues --   -1.60171  -1.39728  -1.19555  -1.08972  -1.07152
 Alpha  occ. eigenvalues --   -1.04941  -1.02386  -0.95823  -0.94836  -0.86345
 Alpha  occ. eigenvalues --   -0.85861  -0.82658  -0.78466  -0.77719  -0.76924
 Alpha  occ. eigenvalues --   -0.72354  -0.71479  -0.70663  -0.65213  -0.64945
 Alpha  occ. eigenvalues --   -0.63757  -0.62289  -0.59779  -0.58233  -0.56452
 Alpha  occ. eigenvalues --   -0.55449  -0.54116  -0.53276  -0.53032  -0.51603
 Alpha  occ. eigenvalues --   -0.51273  -0.49200  -0.49106  -0.48710  -0.46789
 Alpha  occ. eigenvalues --   -0.45491  -0.45174  -0.44502  -0.44219  -0.42591
 Alpha  occ. eigenvalues --   -0.37530  -0.36539
 Alpha virt. eigenvalues --    0.04793   0.11117   0.16299   0.21247   0.24066
 Alpha virt. eigenvalues --    0.25399   0.27179   0.27753   0.28270   0.28811
 Alpha virt. eigenvalues --    0.29127   0.30880   0.32339   0.32486   0.32722

 Mulliken charges:
               1
     1  C   -0.310217
     2  C   -0.296268
     3  C   -0.477358
     4  H    0.181469
     5  H    0.142590
     6  H    0.150930
     7  H    0.144408
     8  H    0.151331
     9  H    0.165311
    10  H    0.153417
    11  C   -0.295846
    12  C   -0.299614
    13  C   -0.474779
    14  H    0.147281
    15  H    0.143394
    16  H    0.156516
    17  H    0.150286
    18  H    0.153012
    19  H    0.151507
    20  H    0.156827
    21  C   -0.170327
    22  C   -0.218528
    23  C   -0.170678
    24  C    0.157800
    25  C   -0.170510
    26  C   -0.218579
    27  H    0.226425
    28  H    0.224230
    29  H    0.275774
    30  H    0.276123
    31  H    0.224220
    32  N    0.488919
    33  O   -0.458133
    34  O   -0.460933
 Sum of Mulliken charges =  -0.00000

 Dipole moment (field-independent basis, Debye):
    X=              5.0386    Y=              1.3615    Z=             -1.8485  Tot=              5.5370
 Quadrupole moment (field-independent basis, Debye-Ang):
   XX=            -72.2962   YY=            -98.3039   ZZ=            -91.3677
   XY=              2.5171   XZ=             -2.8305   YZ=              2.0286

 Normal termination of Gaussian 16 at Thu May  6 18:53:08 2021.
