 Gaussian 16, Revision A.03,
 Gaussian 16:  EM64L-G16RevA.03 25-Dec-2016

 -------------
 #p 6-31g* mp2
 -------------

 ------------------------------------------------------
 Input file generated by CHIRIPA (05-May-2021 14:57:25)
 ------------------------------------------------------
 Symbolic Z-matrix:
 Charge =  0 Multiplicity = 1

                         Standard orientation:
 ---------------------------------------------------------------------
 Center     Atomic      Atomic             Coordinates (Angstroms)
 Number     Number       Type             X           Y           Z
 ---------------------------------------------------------------------
      1          6           0       -5.725208    1.574777    0.087834
      2          6           0       -5.815688    0.482632   -0.781392
      3          6           0       -4.796300   -0.472923   -0.829436
      4          6           0       -3.695733   -0.304416    0.009401
      5          6           0       -3.576531    0.772787    0.886165
      6          6           0       -4.607888    1.716120    0.917376
      7          1           0       -6.521742    2.312328    0.118618
      8          1           0       -6.682244    0.370304   -1.426766
      9          1           0       -4.840710   -1.328068   -1.492892
     10          1           0       -2.700380    0.857781    1.517476
     11          1           0       -4.534932    2.563283    1.593421
     12          7           0       -2.610216   -1.309550   -0.032551
     13          8           0       -1.651021   -1.138317    0.716622
     14          8           0       -2.739139   -2.249576   -0.813812
     15          6           0        3.527235   -2.330557    0.368030
     16          6           0        2.436717   -1.455552    0.408763
     17          6           0        2.617447   -0.085460    0.197263
     18          6           0        3.908224    0.377482   -0.053473
     19          6           0        5.014771   -0.469065   -0.100387
     20          6           0        4.810519   -1.835393    0.114033
     21          1           0        3.377703   -3.393415    0.533462
     22          1           0        1.438972   -1.837290    0.605805
     23          1           0        1.790884    0.614212    0.223210
     24          1           0        5.997475   -0.058900   -0.299078
     25          1           0        5.659283   -2.512598    0.081814
     26          7           0        4.112006    1.825945   -0.278923
     27          8           0        5.259229    2.208783   -0.497905
     28          8           0        3.120649    2.550985   -0.232380
 ---------------------------------------------------------------------

 SCF Done:  E(RHF) =  -868.340856563     A.U. after   16 cycles
 E2 =    -0.2598117798D+01 EUMP2 =    -0.87093897436101D+03

 The electronic state is 1-A.
 Alpha  occ. eigenvalues --  -20.61596 -20.61566 -20.60146 -20.60140 -15.86600
 Alpha  occ. eigenvalues --  -15.85186 -11.31638 -11.30321 -11.28167 -11.28163
 Alpha  occ. eigenvalues --  -11.27848 -11.27112 -11.27093 -11.26891 -11.26745
 Alpha  occ. eigenvalues --  -11.26498 -11.25893 -11.25564  -1.60636  -1.59224
 Alpha  occ. eigenvalues --   -1.40200  -1.38784  -1.19778  -1.18445  -1.09235
 Alpha  occ. eigenvalues --   -1.07885  -1.05132  -1.03781  -0.96125  -0.94766
 Alpha  occ. eigenvalues --   -0.86546  -0.85194  -0.82973  -0.81583  -0.78052
 Alpha  occ. eigenvalues --   -0.76662  -0.72841  -0.71928  -0.71414  -0.70884
 Alpha  occ. eigenvalues --   -0.70542  -0.69560  -0.65437  -0.65131  -0.64081
 Alpha  occ. eigenvalues --   -0.63735  -0.62483  -0.61107  -0.55645  -0.54306
 Alpha  occ. eigenvalues --   -0.53477  -0.53220  -0.52166  -0.51834  -0.49599
 Alpha  occ. eigenvalues --   -0.49556  -0.48180  -0.48142  -0.45675  -0.44241
 Alpha  occ. eigenvalues --   -0.37738  -0.36717  -0.36433  -0.35385
 Alpha virt. eigenvalues --    0.04453   0.05814   0.10941   0.12259   0.16010
 Alpha virt. eigenvalues --    0.17381   0.21089   0.22514   0.27036   0.27799
 Alpha virt. eigenvalues --    0.28633   0.29220   0.30741   0.32051   0.32259

 Mulliken charges:
               1
     1  C   -0.169545
     2  C   -0.218507
     3  C   -0.170212
     4  C    0.157656
     5  C   -0.170010
     6  C   -0.218157
     7  H    0.227872
     8  H    0.225051
     9  H    0.275870
    10  H    0.275213
    11  H    0.226315
    12  N    0.490957
    13  O   -0.471754
    14  O   -0.457547
    15  C   -0.172198
    16  C   -0.226389
    17  C   -0.173782
    18  C    0.158149
    19  C   -0.173476
    20  C   -0.218574
    21  H    0.225377
    22  H    0.248870
    23  H    0.275255
    24  H    0.272016
    25  H    0.219962
    26  N    0.488257
    27  O   -0.463190
    28  O   -0.463479
 Sum of Mulliken charges =  -0.00000

 Dipole moment (field-independent basis, Debye):
    X=             -5.0945    Y=             -1.6227    Z=              0.9504  Tot=              5.4305
 Quadrupole moment (field-independent basis, Debye-Ang):
   XX=            -76.8973   YY=           -110.4634   ZZ=           -103.6467
   XY=            -32.4821   XZ=              4.1116   YZ=              2.8630

 Normal termination of Gaussian 16 at Thu May  6 01:54:33 2021.
