 Gaussian 16, Revision A.03,
 Gaussian 16:  EM64L-G16RevA.03 25-Dec-2016

 -------------
 #p 6-31g* mp2
 -------------

 ------------------------------------------------------
 Input file generated by CHIRIPA (05-May-2021 14:57:27)
 ------------------------------------------------------
 Symbolic Z-matrix:
 Charge =  0 Multiplicity = 1

                         Standard orientation:
 ---------------------------------------------------------------------
 Center     Atomic      Atomic             Coordinates (Angstroms)
 Number     Number       Type             X           Y           Z
 ---------------------------------------------------------------------
      1          6           0        6.060370    0.311994    0.812451
      2          6           0        5.795122   -0.798376    0.004217
      3          6           0        4.493498   -1.065383   -0.430561
      4          6           0        3.476506   -0.197231   -0.036445
      5          6           0        3.708956    0.917160    0.768160
      6          6           0        5.018278    1.164715    1.191176
      7          1           0        7.074492    0.511856    1.145629
      8          1           0        6.602457   -1.462327   -0.291458
      9          1           0        4.260073   -1.917845   -1.056851
     10          1           0        2.883436    1.560926    1.046547
     11          1           0        5.221329    2.027792    1.818801
     12          7           0        2.094460   -0.469603   -0.490499
     13          8           0        1.215989    0.310515   -0.129473
     14          8           0        1.915854   -1.458049   -1.198814
     15          6           0       -5.162827   -1.625666    0.999524
     16          6           0       -4.053914   -1.991521    0.229470
     17          6           0       -3.238778   -1.014868   -0.350399
     18          6           0       -3.563277    0.324232   -0.138730
     19          6           0       -4.661247    0.720446    0.623349
     20          6           0       -5.462426   -0.273234    1.193663
     21          1           0       -5.790623   -2.390968    1.446270
     22          1           0       -3.818838   -3.041064    0.077011
     23          1           0       -2.374236   -1.270126   -0.951089
     24          1           0       -4.870245    1.774832    0.757548
     25          1           0       -6.322987    0.013825    1.791222
     26          7           0       -2.707716    1.367184   -0.747555
     27          8           0       -3.014993    2.540053   -0.546063
     28          8           0       -1.746053    0.992035   -1.414713
 ---------------------------------------------------------------------

 SCF Done:  E(RHF) =  -868.336597316     A.U. after   16 cycles
 E2 =    -0.2599920137D+01 EUMP2 =    -0.87093651745224D+03

 The electronic state is 1-A.
 Alpha  occ. eigenvalues --  -20.60248 -20.60161 -20.59536 -20.59360 -15.85256
 Alpha  occ. eigenvalues --  -15.84489 -11.30780 -11.30107 -11.27390 -11.27344
 Alpha  occ. eigenvalues --  -11.27155 -11.26781 -11.26622 -11.26572 -11.26439
 Alpha  occ. eigenvalues --  -11.26410 -11.25857 -11.25773  -1.59277  -1.58520
 Alpha  occ. eigenvalues --   -1.38826  -1.38058  -1.18972  -1.18323  -1.08340
 Alpha  occ. eigenvalues --   -1.07686  -1.04398  -1.03761  -0.95146  -0.94469
 Alpha  occ. eigenvalues --   -0.85790  -0.85149  -0.81977  -0.81293  -0.76997
 Alpha  occ. eigenvalues --   -0.76284  -0.71492  -0.70713  -0.70591  -0.70084
 Alpha  occ. eigenvalues --   -0.69830  -0.69441  -0.64622  -0.64406  -0.63972
 Alpha  occ. eigenvalues --   -0.63780  -0.61742  -0.61090  -0.54902  -0.54292
 Alpha  occ. eigenvalues --   -0.52721  -0.52494  -0.52089  -0.51857  -0.48264
 Alpha  occ. eigenvalues --   -0.48218  -0.47518  -0.47441  -0.44200  -0.43358
 Alpha  occ. eigenvalues --   -0.36967  -0.36344  -0.36010  -0.35378
 Alpha virt. eigenvalues --    0.05540   0.06257   0.11642   0.12272   0.16999
 Alpha virt. eigenvalues --    0.17675   0.21754   0.22340   0.27653   0.28239
 Alpha virt. eigenvalues --    0.28667   0.29305   0.31290   0.31852   0.32925

 Mulliken charges:
               1
     1  C   -0.171378
     2  C   -0.218639
     3  C   -0.171470
     4  C    0.158739
     5  C   -0.170939
     6  C   -0.218685
     7  H    0.224192
     8  H    0.221796
     9  H    0.274118
    10  H    0.278153
    11  H    0.222930
    12  N    0.487397
    13  O   -0.449161
    14  O   -0.466789
    15  C   -0.171990
    16  C   -0.219932
    17  C   -0.169916
    18  C    0.158265
    19  C   -0.172253
    20  C   -0.219350
    21  H    0.221517
    22  H    0.221809
    23  H    0.286887
    24  H    0.272596
    25  H    0.219182
    26  N    0.486775
    27  O   -0.470721
    28  O   -0.443135
 Sum of Mulliken charges =  -0.00000

 Dipole moment (field-independent basis, Debye):
    X=              2.0736    Y=             -2.6730    Z=              3.6057  Tot=              4.9443
 Quadrupole moment (field-independent basis, Debye-Ang):
   XX=            -50.9647   YY=           -102.8862   ZZ=           -104.9576
   XY=             11.2160   XZ=             -3.7042   YZ=              4.8629

 Normal termination of Gaussian 16 at Wed May  5 18:03:21 2021.
