 Gaussian 16, Revision A.03,
 Gaussian 16:  EM64L-G16RevA.03 25-Dec-2016

 -------------
 #p 6-31g* mp2
 -------------

 ------------------------------------------------------
 Input file generated by CHIRIPA (05-May-2021 14:57:21)
 ------------------------------------------------------
 Symbolic Z-matrix:
 Charge =  0 Multiplicity = 1

                         Standard orientation:
 ---------------------------------------------------------------------
 Center     Atomic      Atomic             Coordinates (Angstroms)
 Number     Number       Type             X           Y           Z
 ---------------------------------------------------------------------
      1          6           0       -1.097078   -0.073047   -1.093387
      2          6           0       -1.680507   -1.273076   -0.673788
      3          6           0       -2.966658   -1.283772   -0.125838
      4          6           0       -3.643894   -0.070670   -0.011716
      5          6           0       -3.089602    1.141283   -0.420643
      6          6           0       -1.802245    1.128184   -0.965700
      7          1           0       -0.097497   -0.073981   -1.517924
      8          1           0       -1.135209   -2.207475   -0.771740
      9          1           0       -3.442146   -2.198381    0.207057
     10          1           0       -3.657876    2.056866   -0.310237
     11          1           0       -1.351643    2.061653   -1.290722
     12          7           0       -5.006124   -0.069398    0.566842
     13          8           0       -5.581921    1.012746    0.656609
     14          8           0       -5.472247   -1.150569    0.919595
     15          6           0        3.765179   -2.427594    0.043981
     16          6           0        3.137247   -1.780604   -1.025424
     17          6           0        2.940375   -0.396695   -1.001238
     18          6           0        3.385952    0.312423    0.113169
     19          6           0        4.014907   -0.303412    1.194119
     20          6           0        4.201236   -1.688236    1.148392
     21          1           0        3.914018   -3.503004    0.016826
     22          1           0        2.797570   -2.352254   -1.884425
     23          1           0        2.457190    0.129575   -1.815480
     24          1           0        4.342674    0.293260    2.036718
     25          1           0        4.689204   -2.188035    1.980338
     26          7           0        3.183114    1.777989    0.150176
     27          8           0        3.584819    2.380078    1.143534
     28          8           0        2.626263    2.296862   -0.814876
 ---------------------------------------------------------------------

 SCF Done:  E(RHF) =  -868.337736172     A.U. after   16 cycles
 E2 =    -0.2600205598D+01 EUMP2 =    -0.87093794177005D+03

 The electronic state is 1-A.
 Alpha  occ. eigenvalues --  -20.61738 -20.61687 -20.60652 -20.60640 -15.86768
 Alpha  occ. eigenvalues --  -15.85700 -11.32180 -11.31051 -11.28838 -11.28666
 Alpha  occ. eigenvalues --  -11.28430 -11.27815 -11.27679 -11.27649 -11.27552
 Alpha  occ. eigenvalues --  -11.27362 -11.26709 -11.26516  -1.60782  -1.59724
 Alpha  occ. eigenvalues --   -1.40340  -1.39277  -1.20341  -1.19216  -1.09711
 Alpha  occ. eigenvalues --   -1.08620  -1.05761  -1.04609  -0.96550  -0.95461
 Alpha  occ. eigenvalues --   -0.87146  -0.86006  -0.83386  -0.82289  -0.78445
 Alpha  occ. eigenvalues --   -0.77329  -0.72985  -0.72105  -0.71919  -0.71464
 Alpha  occ. eigenvalues --   -0.71046  -0.70341  -0.65991  -0.65745  -0.64867
 Alpha  occ. eigenvalues --   -0.64603  -0.63114  -0.61948  -0.56226  -0.55196
 Alpha  occ. eigenvalues --   -0.54029  -0.53809  -0.52946  -0.52692  -0.49753
 Alpha  occ. eigenvalues --   -0.49728  -0.48676  -0.48673  -0.45736  -0.44686
 Alpha  occ. eigenvalues --   -0.38288  -0.37419  -0.37142  -0.36207
 Alpha virt. eigenvalues --    0.04052   0.05190   0.10212   0.11444   0.15563
 Alpha virt. eigenvalues --    0.16691   0.19463   0.21945   0.25363   0.26768
 Alpha virt. eigenvalues --    0.27609   0.29248   0.30117   0.30843   0.32621

 Mulliken charges:
               1
     1  C   -0.170909
     2  C   -0.219430
     3  C   -0.171515
     4  C    0.158578
     5  C   -0.170980
     6  C   -0.219932
     7  H    0.221844
     8  H    0.217745
     9  H    0.273889
    10  H    0.276889
    11  H    0.233877
    12  N    0.488016
    13  O   -0.459495
    14  O   -0.461826
    15  C   -0.170406
    16  C   -0.220617
    17  C   -0.177996
    18  C    0.161811
    19  C   -0.169577
    20  C   -0.217037
    21  H    0.228790
    22  H    0.223369
    23  H    0.270011
    24  H    0.279068
    25  H    0.227671
    26  N    0.488830
    27  O   -0.454563
    28  O   -0.466104
 Sum of Mulliken charges =  -0.00000

 Dipole moment (field-independent basis, Debye):
    X=              5.7842    Y=             -5.0730    Z=             -1.9709  Tot=              7.9421
 Quadrupole moment (field-independent basis, Debye-Ang):
   XX=           -134.4267   YY=           -103.3971   ZZ=           -101.6548
   XY=            -18.5134   XZ=             10.0358   YZ=             -1.0959

 Normal termination of Gaussian 16 at Thu May  6 17:50:14 2021.
