 Gaussian 16, Revision A.03,
 Gaussian 16:  EM64L-G16RevA.03 25-Dec-2016

 -------------
 #p 6-31g* mp2
 -------------

 ------------------------------------------------------
 Input file generated by CHIRIPA (05-May-2021 14:53:14)
 ------------------------------------------------------
 Symbolic Z-matrix:
 Charge =  0 Multiplicity = 1

                         Standard orientation:
 ---------------------------------------------------------------------
 Center     Atomic      Atomic             Coordinates (Angstroms)
 Number     Number       Type             X           Y           Z
 ---------------------------------------------------------------------
      1          6           0       -3.330227    0.971668    0.337427
      2          6           0       -2.340378    2.072314   -0.045667
      3          6           0       -2.302682    3.213571    0.971144
      4          1           0       -4.333326    1.408250    0.438098
      5          1           0       -3.061569    0.574428    1.326072
      6          1           0       -2.610001    2.466407   -1.033903
      7          1           0       -1.339553    1.633026   -0.145625
      8          1           0       -2.011702    2.840454    1.958421
      9          1           0       -3.289368    3.678570    1.065096
     10          1           0       -1.588597    3.989332    0.677652
     11          6           0       -3.379294   -0.176241   -0.669362
     12          6           0       -4.369144   -1.276887   -0.286268
     13          6           0       -4.406840   -2.418144   -1.303080
     14          1           0       -3.647952    0.220998   -1.658007
     15          1           0       -2.376196   -0.612824   -0.770033
     16          1           0       -5.369968   -0.837599   -0.186311
     17          1           0       -4.099521   -1.670980    0.701968
     18          1           0       -3.420153   -2.883143   -1.397031
     19          1           0       -4.697819   -2.045027   -2.290356
     20          1           0       -5.120924   -3.193905   -1.009587
     21          6           0        0.974021   -1.653646    1.489891
     22          6           0        0.654848   -0.351694    1.090427
     23          6           0        1.559673    0.401614    0.336526
     24          6           0        2.780122   -0.180884   -0.001840
     25          6           0        3.127219   -1.475545    0.381130
     26          6           0        2.207014   -2.210434    1.134594
     27          1           0        0.265157   -2.231680    2.075369
     28          1           0       -0.301970    0.083282    1.364909
     29          1           0        1.338255    1.411752    0.014016
     30          1           0        4.088831   -1.882100    0.092285
     31          1           0        2.457579   -3.221316    1.443433
     32          7           0        3.746161    0.606860   -0.799730
     33          8           0        4.814785    0.070842   -1.084973
     34          8           0        3.416425    1.745396   -1.124764
 ---------------------------------------------------------------------

 SCF Done:  E(RHF) =  -669.535130533     A.U. after   15 cycles
 E2 =    -0.2092700510D+01 EUMP2 =    -0.67162783104319D+03

 The electronic state is 1-A.
 Alpha  occ. eigenvalues --  -20.60773 -20.60768 -15.85827 -11.31207 -11.27784
 Alpha  occ. eigenvalues --  -11.27773 -11.27528 -11.26797 -11.26766 -11.22475
 Alpha  occ. eigenvalues --  -11.22270 -11.22260 -11.22070 -11.21813 -11.21611
 Alpha  occ. eigenvalues --   -1.59848  -1.39401  -1.19385  -1.09226  -1.08773
 Alpha  occ. eigenvalues --   -1.04799  -1.04262  -0.96692  -0.95608  -0.87704
 Alpha  occ. eigenvalues --   -0.86186  -0.82451  -0.80332  -0.79019  -0.77487
 Alpha  occ. eigenvalues --   -0.72045  -0.71171  -0.70496  -0.66030  -0.65037
 Alpha  occ. eigenvalues --   -0.64709  -0.62294  -0.61489  -0.60049  -0.58293
 Alpha  occ. eigenvalues --   -0.55993  -0.55288  -0.53366  -0.53114  -0.53097
 Alpha  occ. eigenvalues --   -0.52873  -0.50635  -0.48806  -0.48800  -0.48622
 Alpha  occ. eigenvalues --   -0.47399  -0.46532  -0.46498  -0.44803  -0.44517
 Alpha  occ. eigenvalues --   -0.37363  -0.36375
 Alpha virt. eigenvalues --    0.05031   0.11195   0.16413   0.18785   0.22836
 Alpha virt. eigenvalues --    0.23534   0.25410   0.25652   0.27218   0.28426
 Alpha virt. eigenvalues --    0.29127   0.29880   0.31118   0.31231   0.32163

 Mulliken charges:
               1
     1  C   -0.300357
     2  C   -0.307147
     3  C   -0.477280
     4  H    0.155128
     5  H    0.141580
     6  H    0.160051
     7  H    0.146030
     8  H    0.151350
     9  H    0.159734
    10  H    0.165568
    11  C   -0.301104
    12  C   -0.299302
    13  C   -0.476131
    14  H    0.154039
    15  H    0.149978
    16  H    0.154216
    17  H    0.147716
    18  H    0.155062
    19  H    0.157864
    20  H    0.161449
    21  C   -0.172519
    22  C   -0.223328
    23  C   -0.174117
    24  C    0.158801
    25  C   -0.170785
    26  C   -0.218526
    27  H    0.225815
    28  H    0.231819
    29  H    0.277375
    30  H    0.275775
    31  H    0.223583
    32  N    0.488408
    33  O   -0.460431
    34  O   -0.460315
 Sum of Mulliken charges =  -0.00000

 Dipole moment (field-independent basis, Debye):
    X=             -3.5404    Y=             -2.7167    Z=              2.7109  Tot=              5.2215
 Quadrupole moment (field-independent basis, Debye-Ang):
   XX=           -110.8428   YY=            -91.1907   ZZ=            -95.7098
   XY=            -10.7620   XZ=              8.5667   YZ=             -1.5123

 Normal termination of Gaussian 16 at Thu May  6 17:09:10 2021.
