 Gaussian 16, Revision A.03,
 Gaussian 16:  EM64L-G16RevA.03 25-Dec-2016

 -------------
 #p 6-31g* mp2
 -------------

 ------------------------------------------------------
 Input file generated by CHIRIPA (05-May-2021 14:53:13)
 ------------------------------------------------------
 Symbolic Z-matrix:
 Charge =  0 Multiplicity = 1

                         Standard orientation:
 ---------------------------------------------------------------------
 Center     Atomic      Atomic             Coordinates (Angstroms)
 Number     Number       Type             X           Y           Z
 ---------------------------------------------------------------------
      1          6           0        3.431228   -0.701231    0.323979
      2          6           0        3.566771   -1.628238   -0.884438
      3          6           0        3.800183   -3.086301   -0.487743
      4          1           0        4.339139   -0.774780    0.938172
      5          1           0        2.599651   -1.048818    0.952515
      6          1           0        4.396964   -1.278195   -1.511228
      7          1           0        2.658512   -1.552330   -1.495927
      8          1           0        2.968231   -3.458414    0.118877
      9          1           0        4.716561   -3.182721    0.103490
     10          1           0        3.894176   -3.731427   -1.366855
     11          6           0        3.197503    0.759726   -0.056421
     12          6           0        3.061960    1.686733    1.151995
     13          6           0        2.828548    3.144796    0.755301
     14          1           0        4.029080    1.107313   -0.684957
     15          1           0        2.289592    0.833275   -0.670615
     16          1           0        3.970219    1.610825    1.763485
     17          1           0        2.231766    1.336690    1.778785
     18          1           0        1.912170    3.241217    0.164068
     19          1           0        3.660500    3.516909    0.148680
     20          1           0        2.734555    3.789922    1.634412
     21          6           0       -1.920389    2.253677   -0.962327
     22          6           0       -0.983644    1.215475   -0.928167
     23          6           0       -1.343183   -0.049943   -0.454885
     24          6           0       -2.654021   -0.242936   -0.021584
     25          6           0       -3.610106    0.771325   -0.043185
     26          6           0       -3.228324    2.028685   -0.520507
     27          1           0       -1.632451    3.233555   -1.331553
     28          1           0        0.032828    1.387324   -1.270654
     29          1           0       -0.638091   -0.871444   -0.417469
     30          1           0       -4.615862    0.569638    0.304943
     31          1           0       -3.957919    2.833105   -0.545886
     32          7           0       -3.046422   -1.578312    0.481596
     33          8           0       -4.207615   -1.722690    0.857661
     34          8           0       -2.185364   -2.455318    0.490395
 ---------------------------------------------------------------------

 SCF Done:  E(RHF) =  -669.535490701     A.U. after   15 cycles
 E2 =    -0.2091955041D+01 EUMP2 =    -0.67162744574182D+03

 The electronic state is 1-A.
 Alpha  occ. eigenvalues --  -20.60792 -20.60787 -15.85846 -11.31214 -11.27786
 Alpha  occ. eigenvalues --  -11.27781 -11.27522 -11.26793 -11.26774 -11.22237
 Alpha  occ. eigenvalues --  -11.22156 -11.22019 -11.21868 -11.21809 -11.21226
 Alpha  occ. eigenvalues --   -1.59867  -1.39421  -1.19385  -1.09021  -1.08778
 Alpha  occ. eigenvalues --   -1.04790  -1.04037  -0.96494  -0.95613  -0.87504
 Alpha  occ. eigenvalues --   -0.86189  -0.82450  -0.80112  -0.78835  -0.77493
 Alpha  occ. eigenvalues --   -0.72064  -0.71190  -0.70493  -0.65730  -0.65035
 Alpha  occ. eigenvalues --   -0.64770  -0.62142  -0.61415  -0.59865  -0.58097
 Alpha  occ. eigenvalues --   -0.55801  -0.55283  -0.53152  -0.53114  -0.52965
 Alpha  occ. eigenvalues --   -0.52847  -0.50432  -0.48828  -0.48819  -0.48413
 Alpha  occ. eigenvalues --   -0.47147  -0.46367  -0.46264  -0.44826  -0.44315
 Alpha  occ. eigenvalues --   -0.37362  -0.36388
 Alpha virt. eigenvalues --    0.05034   0.11197   0.16469   0.18490   0.22591
 Alpha virt. eigenvalues --    0.23520   0.24883   0.26447   0.26923   0.28458
 Alpha virt. eigenvalues --    0.29624   0.30558   0.31296   0.31465   0.32089

 Mulliken charges:
               1
     1  C   -0.300575
     2  C   -0.299399
     3  C   -0.476956
     4  H    0.153312
     5  H    0.152696
     6  H    0.152600
     7  H    0.146936
     8  H    0.160829
     9  H    0.155903
    10  H    0.162118
    11  C   -0.301238
    12  C   -0.300746
    13  C   -0.474957
    14  H    0.152404
    15  H    0.139039
    16  H    0.156005
    17  H    0.155457
    18  H    0.146124
    19  H    0.156749
    20  H    0.163801
    21  C   -0.171717
    22  C   -0.224201
    23  C   -0.173998
    24  C    0.158711
    25  C   -0.170797
    26  C   -0.218495
    27  H    0.226397
    28  H    0.231704
    29  H    0.275805
    30  H    0.275725
    31  H    0.223609
    32  N    0.488112
    33  O   -0.460284
    34  O   -0.460670
 Sum of Mulliken charges =  -0.00000

 Dipole moment (field-independent basis, Debye):
    X=              1.5161    Y=              4.6380    Z=             -1.6647  Tot=              5.1557
 Quadrupole moment (field-independent basis, Debye-Ang):
   XX=            -96.1303   YY=            -97.9459   ZZ=            -95.3383
   XY=            -14.6172   XZ=              4.0952   YZ=              0.8349

 Normal termination of Gaussian 16 at Wed May  5 17:03:07 2021.
