 Gaussian 16, Revision A.03,
 Gaussian 16:  EM64L-G16RevA.03 25-Dec-2016

 -------------
 #p 6-31g* mp2
 -------------

 ------------------------------------------------------
 Input file generated by CHIRIPA (05-May-2021 14:55:21)
 ------------------------------------------------------
 Symbolic Z-matrix:
 Charge =  0 Multiplicity = 1

                         Standard orientation:
 ---------------------------------------------------------------------
 Center     Atomic      Atomic             Coordinates (Angstroms)
 Number     Number       Type             X           Y           Z
 ---------------------------------------------------------------------
      1          6           0        0.189913   -1.033765    0.646689
      2          6           0        0.946039   -1.737266   -0.296646
      3          6           0        2.258095   -1.350806   -0.585968
      4          6           0        2.784853   -0.251182    0.089785
      5          6           0        2.056812    0.470019    1.034832
      6          6           0        0.746731    0.065694    1.308251
      7          1           0       -0.828556   -1.340916    0.865264
      8          1           0        0.516198   -2.591509   -0.811962
      9          1           0        2.865792   -1.877533   -1.311696
     10          1           0        2.512599    1.317473    1.532325
     11          1           0        0.161854    0.613918    2.041336
     12          7           0        4.172822    0.167402   -0.208089
     13          8           0        4.613847    1.139634    0.400927
     14          8           0        4.793406   -0.484668   -1.044938
     15          6           0       -3.185073    1.105957    0.124392
     16          6           0       -2.586517    2.120055   -0.850966
     17          6           0       -2.419138    3.508039   -0.231872
     18          1           0       -4.159897    1.473445    0.473127
     19          1           0       -2.541131    1.037286    1.012096
     20          1           0       -3.230664    2.185770   -1.737178
     21          1           0       -1.613091    1.750018   -1.197567
     22          1           0       -1.759189    3.463697    0.640539
     23          1           0       -3.385952    3.901924    0.097863
     24          1           0       -1.989736    4.217211   -0.946399
     25          6           0       -3.358540   -0.286323   -0.479920
     26          6           0       -3.957096   -1.300420    0.495437
     27          6           0       -4.124475   -2.688405   -0.123656
     28          1           0       -4.002481   -0.217652   -1.367625
     29          1           0       -2.383716   -0.653811   -0.828656
     30          1           0       -4.930521   -0.930384    0.842039
     31          1           0       -3.312949   -1.366136    1.381650
     32          1           0       -3.157660   -3.082291   -0.453392
     33          1           0       -4.784423   -2.644063   -0.996068
     34          1           0       -4.553877   -3.397577    0.590870
 ---------------------------------------------------------------------

 SCF Done:  E(RHF) =  -669.534876564     A.U. after   15 cycles
 E2 =    -0.2093682832D+01 EUMP2 =    -0.67162855939567D+03

 The electronic state is 1-A.
 Alpha  occ. eigenvalues --  -20.60793 -20.60788 -15.85848 -11.31231 -11.27811
 Alpha  occ. eigenvalues --  -11.27806 -11.27512 -11.26826 -11.26815 -11.22801
 Alpha  occ. eigenvalues --  -11.22413 -11.22337 -11.22235 -11.22183 -11.21654
 Alpha  occ. eigenvalues --   -1.59868  -1.39421  -1.19413  -1.09437  -1.08790
 Alpha  occ. eigenvalues --   -1.04817  -1.04444  -0.96888  -0.95632  -0.87903
 Alpha  occ. eigenvalues --   -0.86213  -0.82467  -0.80515  -0.79200  -0.77507
 Alpha  occ. eigenvalues --   -0.72065  -0.71192  -0.70629  -0.66089  -0.65062
 Alpha  occ. eigenvalues --   -0.64760  -0.62180  -0.61852  -0.60255  -0.58479
 Alpha  occ. eigenvalues --   -0.56247  -0.55236  -0.53553  -0.53307  -0.53118
 Alpha  occ. eigenvalues --   -0.52904  -0.50836  -0.48846  -0.48819  -0.48789
 Alpha  occ. eigenvalues --   -0.47592  -0.46726  -0.46662  -0.44823  -0.44698
 Alpha  occ. eigenvalues --   -0.37350  -0.36419
 Alpha virt. eigenvalues --    0.04998   0.11120   0.16388   0.18328   0.22270
 Alpha virt. eigenvalues --    0.23526   0.24784   0.25979   0.27174   0.27899
 Alpha virt. eigenvalues --    0.29505   0.29909   0.30820   0.31691   0.31853

 Mulliken charges:
               1
     1  C   -0.173802
     2  C   -0.222357
     3  C   -0.170170
     4  C    0.158283
     5  C   -0.170733
     6  C   -0.223009
     7  H    0.237379
     8  H    0.223954
     9  H    0.275897
    10  H    0.275949
    11  H    0.224217
    12  N    0.488023
    13  O   -0.460246
    14  O   -0.460269
    15  C   -0.296756
    16  C   -0.302193
    17  C   -0.475269
    18  H    0.153391
    19  H    0.139988
    20  H    0.154254
    21  H    0.157007
    22  H    0.151626
    23  H    0.156192
    24  H    0.164521
    25  C   -0.305833
    26  C   -0.304767
    27  C   -0.474788
    28  H    0.155937
    29  H    0.147905
    30  H    0.159258
    31  H    0.143295
    32  H    0.148023
    33  H    0.160722
    34  H    0.164373
 Sum of Mulliken charges =  -0.00000

 Dipole moment (field-independent basis, Debye):
    X=             -5.0390    Y=             -1.4118    Z=              0.9429  Tot=              5.3173
 Quadrupole moment (field-independent basis, Debye-Ang):
   XX=           -120.8913   YY=            -92.3651   ZZ=            -92.8461
   XY=             -3.6688   XZ=              2.7119   YZ=              1.9819

 Normal termination of Gaussian 16 at Thu May  6 04:36:24 2021.
