 Gaussian 16, Revision A.03,
 Gaussian 16:  EM64L-G16RevA.03 25-Dec-2016

 -------------
 #p 6-31g* mp2
 -------------

 ------------------------------------------------------
 Input file generated by CHIRIPA (05-May-2021 14:55:19)
 ------------------------------------------------------
 Symbolic Z-matrix:
 Charge =  0 Multiplicity = 1

                         Standard orientation:
 ---------------------------------------------------------------------
 Center     Atomic      Atomic             Coordinates (Angstroms)
 Number     Number       Type             X           Y           Z
 ---------------------------------------------------------------------
      1          6           0        3.812082    0.390226   -1.642821
      2          6           0        2.880425   -0.619175   -1.906730
      3          6           0        2.014952   -1.066410   -0.903992
      4          6           0        2.108909   -0.479486    0.356953
      5          6           0        3.026447    0.527993    0.650895
      6          6           0        3.881996    0.959584   -0.367100
      7          1           0        4.480548    0.731573   -2.427698
      8          1           0        2.823882   -1.063164   -2.896539
      9          1           0        1.284257   -1.846276   -1.080946
     10          1           0        3.059130    0.951425    1.647416
     11          1           0        4.604543    1.743663   -0.159277
     12          7           0        1.197925   -0.944673    1.426582
     13          8           0        1.300696   -0.411417    2.529176
     14          8           0        0.398373   -1.833734    1.142111
     15          6           0       -3.354255    0.006233   -0.562775
     16          6           0       -3.104487   -1.430055   -0.101603
     17          6           0       -4.037835   -2.437494   -0.773705
     18          1           0       -4.398591    0.275446   -0.353417
     19          1           0       -3.230000    0.060681   -1.653183
     20          1           0       -3.227821   -1.481486    0.987782
     21          1           0       -2.060572   -1.695815   -0.311907
     22          1           0       -3.909802   -2.415552   -1.860778
     23          1           0       -5.083683   -2.200005   -0.553703
     24          1           0       -3.841996   -3.457824   -0.429561
     25          6           0       -2.428915    1.024980    0.100272
     26          6           0       -2.678683    2.461268   -0.360899
     27          6           0       -1.745335    3.468707    0.311202
     28          1           0       -2.553170    0.970531    1.190681
     29          1           0       -1.384578    0.755766   -0.109085
     30          1           0       -3.722598    2.727027   -0.150595
     31          1           0       -2.555349    2.512698   -1.450285
     32          1           0       -0.699487    3.231217    0.091201
     33          1           0       -1.873367    3.446765    1.398276
     34          1           0       -1.941175    4.489036   -0.032941
 ---------------------------------------------------------------------

 SCF Done:  E(RHF) =  -669.535985852     A.U. after   15 cycles
 E2 =    -0.2092226673D+01 EUMP2 =    -0.67162821252488D+03

 The electronic state is 1-A.
 Alpha  occ. eigenvalues --  -20.60915 -20.60904 -15.85937 -11.31302 -11.27868
 Alpha  occ. eigenvalues --  -11.27851 -11.27595 -11.26872 -11.26861 -11.21188
 Alpha  occ. eigenvalues --  -11.20781 -11.20750 -11.20697 -11.20520 -11.20331
 Alpha  occ. eigenvalues --   -1.59967  -1.39524  -1.19465  -1.08862  -1.07778
 Alpha  occ. eigenvalues --   -1.04864  -1.02889  -0.95699  -0.95389  -0.86408
 Alpha  occ. eigenvalues --   -0.86263  -0.82533  -0.78945  -0.77648  -0.77474
 Alpha  occ. eigenvalues --   -0.72162  -0.71276  -0.70569  -0.65121  -0.64865
 Alpha  occ. eigenvalues --   -0.64420  -0.62211  -0.60297  -0.58752  -0.56966
 Alpha  occ. eigenvalues --   -0.55363  -0.54702  -0.53194  -0.52955  -0.52091
 Alpha  occ. eigenvalues --   -0.51800  -0.49356  -0.48928  -0.48922  -0.47265
 Alpha  occ. eigenvalues --   -0.45990  -0.45403  -0.45029  -0.44525  -0.43150
 Alpha  occ. eigenvalues --   -0.37440  -0.36466
 Alpha virt. eigenvalues --    0.04923   0.11157   0.16381   0.21174   0.23294
 Alpha virt. eigenvalues --    0.24788   0.26400   0.27380   0.27744   0.28500
 Alpha virt. eigenvalues --    0.28575   0.30806   0.31624   0.32185   0.32554

 Mulliken charges:
               1
     1  C   -0.170657
     2  C   -0.218481
     3  C   -0.171971
     4  C    0.157863
     5  C   -0.171033
     6  C   -0.218508
     7  H    0.226075
     8  H    0.223907
     9  H    0.275844
    10  H    0.276186
    11  H    0.224021
    12  N    0.490334
    13  O   -0.458810
    14  O   -0.460127
    15  C   -0.298776
    16  C   -0.302826
    17  C   -0.476035
    18  H    0.147232
    19  H    0.143314
    20  H    0.158149
    21  H    0.164699
    22  H    0.148953
    23  H    0.152181
    24  H    0.161191
    25  C   -0.295977
    26  C   -0.299079
    27  C   -0.475023
    28  H    0.156488
    29  H    0.143609
    30  H    0.151561
    31  H    0.148264
    32  H    0.151730
    33  H    0.158255
    34  H    0.157449
 Sum of Mulliken charges =  -0.00000

 Dipole moment (field-independent basis, Debye):
    X=              3.3772    Y=              1.5520    Z=             -3.5894  Tot=              5.1670
 Quadrupole moment (field-independent basis, Debye-Ang):
   XX=            -81.2640   YY=            -95.7160   ZZ=            -95.4224
   XY=              3.0493   XZ=             -6.7833   YZ=              4.5289

 Normal termination of Gaussian 16 at Thu May  6 01:18:29 2021.
