 Gaussian 16, Revision A.03,
 Gaussian 16:  EM64L-G16RevA.03 25-Dec-2016

 -------------
 #p 6-31g* mp2
 -------------

 ------------------------------------------------------
 Input file generated by CHIRIPA (05-May-2021 14:55:23)
 ------------------------------------------------------
 Symbolic Z-matrix:
 Charge =  0 Multiplicity = 1

                         Standard orientation:
 ---------------------------------------------------------------------
 Center     Atomic      Atomic             Coordinates (Angstroms)
 Number     Number       Type             X           Y           Z
 ---------------------------------------------------------------------
      1          6           0        3.801958    1.866015   -0.754024
      2          6           0        2.419200    1.660829   -0.705032
      3          6           0        1.898459    0.422153   -0.318949
      4          6           0        2.793394   -0.593822    0.012977
      5          6           0        4.176026   -0.420329   -0.025985
      6          6           0        4.674420    0.826613   -0.414942
      7          1           0        4.197802    2.831458   -1.055059
      8          1           0        1.739260    2.466228   -0.967821
      9          1           0        0.832348    0.236007   -0.272330
     10          1           0        4.828798   -1.242298    0.241735
     11          1           0        5.748746    0.983102   -0.452079
     12          7           0        2.253938   -1.909528    0.423226
     13          8           0        3.063506   -2.788473    0.710791
     14          8           0        1.031760   -2.036921    0.449447
     15          6           0       -3.513717    1.069231    0.526411
     16          6           0       -2.202885    1.760003    0.148864
     17          6           0       -1.865110    2.931708    1.071257
     18          1           0       -4.329177    1.804964    0.500591
     19          1           0       -3.446840    0.713025    1.563735
     20          1           0       -2.271702    2.113581   -0.887893
     21          1           0       -1.390481    1.022498    0.175400
     22          1           0       -1.769342    2.591176    2.107339
     23          1           0       -2.655570    3.688458    1.038006
     24          1           0       -0.924246    3.411017    0.783337
     25          6           0       -3.864980   -0.104168   -0.386539
     26          6           0       -5.175811   -0.794939   -0.008992
     27          6           0       -5.513585   -1.966644   -0.931385
     28          1           0       -3.931856    0.252039   -1.423863
     29          1           0       -3.049520   -0.839900   -0.360719
     30          1           0       -5.988214   -0.057434   -0.035528
     31          1           0       -5.106994   -1.148517    1.027765
     32          1           0       -4.723126   -2.723393   -0.898134
     33          1           0       -5.609354   -1.626112   -1.967467
     34          1           0       -6.454449   -2.445953   -0.643465
 ---------------------------------------------------------------------

 SCF Done:  E(RHF) =  -669.535720766     A.U. after   15 cycles
 E2 =    -0.2091379807D+01 EUMP2 =    -0.67162710057305D+03

 The electronic state is 1-A.
 Alpha  occ. eigenvalues --  -20.60788 -20.60781 -15.85838 -11.31173 -11.27748
 Alpha  occ. eigenvalues --  -11.27723 -11.27490 -11.26762 -11.26745 -11.22062
 Alpha  occ. eigenvalues --  -11.21546 -11.21492 -11.21424 -11.21248 -11.20816
 Alpha  occ. eigenvalues --   -1.59861  -1.39416  -1.19349  -1.08751  -1.08495
 Alpha  occ. eigenvalues --   -1.04749  -1.03634  -0.96057  -0.95589  -0.87078
 Alpha  occ. eigenvalues --   -0.86150  -0.82422  -0.79744  -0.78268  -0.77467
 Alpha  occ. eigenvalues --   -0.72060  -0.71182  -0.70469  -0.65139  -0.65001
 Alpha  occ. eigenvalues --   -0.64739  -0.62136  -0.60996  -0.59476  -0.57671
 Alpha  occ. eigenvalues --   -0.55328  -0.55244  -0.53080  -0.52873  -0.52796
 Alpha  occ. eigenvalues --   -0.52467  -0.49983  -0.48817  -0.48813  -0.48035
 Alpha  occ. eigenvalues --   -0.46757  -0.45809  -0.45684  -0.44827  -0.43865
 Alpha  occ. eigenvalues --   -0.37333  -0.36348
 Alpha virt. eigenvalues --    0.05055   0.11293   0.16539   0.19658   0.23041
 Alpha virt. eigenvalues --    0.23961   0.25153   0.26413   0.27055   0.28358
 Alpha virt. eigenvalues --    0.29474   0.29906   0.31453   0.31680   0.32790

 Mulliken charges:
               1
     1  C   -0.170550
     2  C   -0.223289
     3  C   -0.180304
     4  C    0.158989
     5  C   -0.170063
     6  C   -0.218968
     7  H    0.225635
     8  H    0.224799
     9  H    0.288733
    10  H    0.275546
    11  H    0.223410
    12  N    0.486939
    13  O   -0.460150
    14  O   -0.461506
    15  C   -0.296897
    16  C   -0.308887
    17  C   -0.474776
    18  H    0.149640
    19  H    0.153511
    20  H    0.150235
    21  H    0.152878
    22  H    0.160065
    23  H    0.157846
    24  H    0.151720
    25  C   -0.301579
    26  C   -0.299822
    27  C   -0.476568
    28  H    0.147289
    29  H    0.158575
    30  H    0.150125
    31  H    0.154011
    32  H    0.159711
    33  H    0.153742
    34  H    0.159961
 Sum of Mulliken charges =  -0.00000

 Dipole moment (field-independent basis, Debye):
    X=              1.8081    Y=              4.5600    Z=             -1.3919  Tot=              5.0991
 Quadrupole moment (field-independent basis, Debye-Ang):
   XX=            -79.3835   YY=           -100.7053   ZZ=            -95.5112
   XY=              9.6525   XZ=             -3.5653   YZ=             -0.2012

 Normal termination of Gaussian 16 at Thu May  6 11:01:10 2021.
