 Gaussian 16, Revision A.03,
 Gaussian 16:  EM64L-G16RevA.03 25-Dec-2016

 -------------
 #p 6-31g* mp2
 -------------

 ------------------------------------------------------
 Input file generated by CHIRIPA (05-May-2021 14:57:24)
 ------------------------------------------------------
 Symbolic Z-matrix:
 Charge =  0 Multiplicity = 1

                         Standard orientation:
 ---------------------------------------------------------------------
 Center     Atomic      Atomic             Coordinates (Angstroms)
 Number     Number       Type             X           Y           Z
 ---------------------------------------------------------------------
      1          6           0        2.624244    2.470153    0.554078
      2          6           0        1.969501    2.111979   -0.628945
      3          6           0        1.794924    0.766021   -0.964307
      4          6           0        2.289893   -0.200067   -0.089681
      5          6           0        2.946539    0.125048    1.096239
      6          6           0        3.109817    1.477295    1.411383
      7          1           0        2.755470    3.518169    0.806743
      8          1           0        1.591364    2.880907   -1.296633
      9          1           0        1.291847    0.460724   -1.873772
     10          1           0        3.312589   -0.663992    1.741872
     11          1           0        3.618697    1.752522    2.330805
     12          7           0        2.111057   -1.628301   -0.434011
     13          8           0        2.556324   -2.460400    0.353380
     14          8           0        1.529004   -1.888608   -1.484769
     15          6           0       -2.589557    2.427827   -0.442265
     16          6           0       -3.065290    1.890212    0.758222
     17          6           0       -2.921038    0.526861    1.032111
     18          6           0       -2.293246   -0.273452    0.078871
     19          6           0       -1.808737    0.232455   -1.126366
     20          6           0       -1.963902    1.598694   -1.379076
     21          1           0       -2.705854    3.488032   -0.646803
     22          1           0       -3.551592    2.531743    1.487600
     23          1           0       -3.280048    0.084423    1.953402
     24          1           0       -1.328290   -0.432172   -1.834082
     25          1           0       -1.593468    2.013463   -2.312238
     26          7           0       -2.134758   -1.718299    0.357614
     27          8           0       -1.578021   -2.402171   -0.498542
     28          8           0       -2.570270   -2.139540    1.426969
 ---------------------------------------------------------------------

 SCF Done:  E(RHF) =  -868.334676156     A.U. after   16 cycles
 E2 =    -0.2604391406D+01 EUMP2 =    -0.87093906756201D+03

 The electronic state is 1-A.
 Alpha  occ. eigenvalues --  -20.60457 -20.60410 -20.60365 -20.60262 -15.85481
 Alpha  occ. eigenvalues --  -15.85369 -11.31171 -11.31116 -11.27869 -11.27753
 Alpha  occ. eigenvalues --  -11.27733 -11.27716 -11.27614 -11.27581 -11.26921
 Alpha  occ. eigenvalues --  -11.26907 -11.26837 -11.26817  -1.59478  -1.59396
 Alpha  occ. eigenvalues --   -1.39038  -1.38925  -1.19398  -1.19331  -1.08714
 Alpha  occ. eigenvalues --   -1.08677  -1.04907  -1.04753  -0.95520  -0.95417
 Alpha  occ. eigenvalues --   -0.86268  -0.86156  -0.82381  -0.82227  -0.77429
 Alpha  occ. eigenvalues --   -0.77152  -0.71756  -0.71542  -0.70968  -0.70567
 Alpha  occ. eigenvalues --   -0.70556  -0.70401  -0.65059  -0.65014  -0.64906
 Alpha  occ. eigenvalues --   -0.64751  -0.62373  -0.61981  -0.55360  -0.55295
 Alpha  occ. eigenvalues --   -0.53455  -0.53027  -0.52861  -0.52777  -0.48495
 Alpha  occ. eigenvalues --   -0.48460  -0.48358  -0.48303  -0.44601  -0.43960
 Alpha  occ. eigenvalues --   -0.37561  -0.37218  -0.36938  -0.35850
 Alpha virt. eigenvalues --    0.04842   0.05651   0.10617   0.11756   0.16363
 Alpha virt. eigenvalues --    0.16932   0.19915   0.22059   0.25559   0.27175
 Alpha virt. eigenvalues --    0.28119   0.29328   0.30268   0.31274   0.31988

 Mulliken charges:
               1
     1  C   -0.171902
     2  C   -0.215273
     3  C   -0.167123
     4  C    0.158199
     5  C   -0.170227
     6  C   -0.218339
     7  H    0.223534
     8  H    0.216144
     9  H    0.266447
    10  H    0.277912
    11  H    0.223550
    12  N    0.489388
    13  O   -0.456153
    14  O   -0.456097
    15  C   -0.171586
    16  C   -0.218613
    17  C   -0.170319
    18  C    0.156974
    19  C   -0.176455
    20  C   -0.220711
    21  H    0.222341
    22  H    0.222349
    23  H    0.276298
    24  H    0.286912
    25  H    0.216744
    26  N    0.484703
    27  O   -0.445350
    28  O   -0.463348
 Sum of Mulliken charges =  -0.00000

 Dipole moment (field-independent basis, Debye):
    X=              0.1236    Y=              9.6953    Z=              0.2962  Tot=              9.7006
 Quadrupole moment (field-independent basis, Debye-Ang):
   XX=            -98.6513   YY=           -110.4274   ZZ=            -98.3133
   XY=             -1.1729   XZ=              5.1669   YZ=             -0.2355

 Normal termination of Gaussian 16 at Thu May  6 16:22:51 2021.
