 Gaussian 16, Revision A.03,
 Gaussian 16:  EM64L-G16RevA.03 25-Dec-2016

 -------------
 #p 6-31g* mp2
 -------------

 ------------------------------------------------------
 Input file generated by CHIRIPA (05-May-2021 14:55:21)
 ------------------------------------------------------
 Symbolic Z-matrix:
 Charge =  0 Multiplicity = 1

                         Standard orientation:
 ---------------------------------------------------------------------
 Center     Atomic      Atomic             Coordinates (Angstroms)
 Number     Number       Type             X           Y           Z
 ---------------------------------------------------------------------
      1          6           0       -5.057745    0.005407   -0.792237
      2          6           0       -4.845163   -0.218267    0.572058
      3          6           0       -3.549877   -0.386168    1.070647
      4          6           0       -2.485448   -0.324159    0.172629
      5          6           0       -2.664869   -0.102787   -1.191956
      6          6           0       -3.968839    0.062333   -1.668345
      7          1           0       -6.067327    0.134757   -1.170930
      8          1           0       -5.688928   -0.262966    1.254779
      9          1           0       -3.356733   -0.560635    2.122158
     10          1           0       -1.803809   -0.063386   -1.848035
     11          1           0       -4.130938    0.235905   -2.728365
     12          7           0       -1.109591   -0.500436    0.688712
     13          8           0       -0.188674   -0.441453   -0.123120
     14          8           0       -0.978162   -0.694248    1.895278
     15          6           0        3.789306   -0.243423    0.198828
     16          6           0        4.213417   -1.288791   -0.833315
     17          6           0        4.847275   -2.525624   -0.195930
     18          1           0        4.665691    0.055383    0.790105
     19          1           0        3.078720   -0.699701    0.901873
     20          1           0        4.921931   -0.830292   -1.535030
     21          1           0        3.335957   -1.585001   -1.422332
     22          1           0        4.143887   -3.008940    0.489820
     23          1           0        5.738872   -2.249942    0.376482
     24          1           0        5.142975   -3.259885   -0.951762
     25          6           0        3.153942    0.998896   -0.423013
     26          6           0        2.729832    2.044264    0.609130
     27          6           0        2.095973    3.281098   -0.028255
     28          1           0        3.864528    1.455174   -1.126058
     29          1           0        2.277557    0.700091   -1.014290
     30          1           0        3.607291    2.340474    1.198147
     31          1           0        2.021317    1.585765    1.310845
     32          1           0        1.204376    3.005415   -0.600667
     33          1           0        2.799361    3.764413   -0.714004
     34          1           0        1.800273    4.015358    0.727577
 ---------------------------------------------------------------------

 SCF Done:  E(RHF) =  -669.536691224     A.U. after   15 cycles
 E2 =    -0.2091734794D+01 EUMP2 =    -0.67162842601796D+03

 The electronic state is 1-A.
 Alpha  occ. eigenvalues --  -20.61117 -20.61109 -15.86134 -11.31391 -11.27947
 Alpha  occ. eigenvalues --  -11.27941 -11.27671 -11.26938 -11.26928 -11.20351
 Alpha  occ. eigenvalues --  -11.20190 -11.20051 -11.20019 -11.19850 -11.19776
 Alpha  occ. eigenvalues --   -1.60164  -1.39723  -1.19552  -1.08968  -1.06988
 Alpha  occ. eigenvalues --   -1.04938  -1.02275  -0.95821  -0.94736  -0.86342
 Alpha  occ. eigenvalues --   -0.85769  -0.82659  -0.78334  -0.77722  -0.76793
 Alpha  occ. eigenvalues --   -0.72366  -0.71472  -0.70661  -0.65214  -0.64943
 Alpha  occ. eigenvalues --   -0.63556  -0.62286  -0.59660  -0.58125  -0.56365
 Alpha  occ. eigenvalues --   -0.55445  -0.54011  -0.53272  -0.53029  -0.51508
 Alpha  occ. eigenvalues --   -0.51193  -0.49123  -0.49112  -0.48651  -0.46676
 Alpha  occ. eigenvalues --   -0.45329  -0.45154  -0.44341  -0.44175  -0.42471
 Alpha  occ. eigenvalues --   -0.37526  -0.36536
 Alpha virt. eigenvalues --    0.04789   0.11119   0.16287   0.21213   0.24280
 Alpha virt. eigenvalues --    0.25440   0.27149   0.27668   0.28447   0.28925
 Alpha virt. eigenvalues --    0.29204   0.30881   0.32196   0.32656   0.33003

 Mulliken charges:
               1
     1  C   -0.170351
     2  C   -0.218572
     3  C   -0.170418
     4  C    0.157677
     5  C   -0.170536
     6  C   -0.218489
     7  H    0.226412
     8  H    0.224186
     9  H    0.276056
    10  H    0.275491
    11  H    0.224260
    12  N    0.492904
    13  O   -0.465123
    14  O   -0.458727
    15  C   -0.299599
    16  C   -0.299157
    17  C   -0.475366
    18  H    0.141993
    19  H    0.164631
    20  H    0.145824
    21  H    0.154784
    22  H    0.157438
    23  H    0.152054
    24  H    0.155082
    25  C   -0.298667
    26  C   -0.300651
    27  C   -0.475150
    28  H    0.138915
    29  H    0.164909
    30  H    0.145382
    31  H    0.164215
    32  H    0.152925
    33  H    0.150453
    34  H    0.155213
 Sum of Mulliken charges =  -0.00000

 Dipole moment (field-independent basis, Debye):
    X=             -5.2798    Y=              0.4643    Z=             -1.7339  Tot=              5.5766
 Quadrupole moment (field-independent basis, Debye-Ang):
   XX=            -71.3331   YY=            -97.6573   ZZ=            -91.2831
   XY=              0.8346   XZ=              1.9659   YZ=              0.2665

 Normal termination of Gaussian 16 at Thu May  6 04:37:17 2021.
