 Gaussian 16, Revision A.03,
 Gaussian 16:  EM64L-G16RevA.03 25-Dec-2016

 -------------
 #p 6-31g* mp2
 -------------

 ------------------------------------------------------
 Input file generated by CHIRIPA (05-May-2021 14:53:16)
 ------------------------------------------------------
 Symbolic Z-matrix:
 Charge =  0 Multiplicity = 1

                         Standard orientation:
 ---------------------------------------------------------------------
 Center     Atomic      Atomic             Coordinates (Angstroms)
 Number     Number       Type             X           Y           Z
 ---------------------------------------------------------------------
      1          6           0       -3.489390    0.084958   -0.018321
      2          6           0       -2.969804   -1.291081   -0.436092
      3          6           0       -4.053559   -2.368936   -0.397394
      4          1           0       -3.907553    0.019659    0.995493
      5          1           0       -4.317899    0.372795   -0.680225
      6          1           0       -2.141612   -1.575628    0.225532
      7          1           0       -2.552655   -1.222455   -1.448956
      8          1           0       -4.877225   -2.111423   -1.071086
      9          1           0       -4.463846   -2.466603    0.612916
     10          1           0       -3.660402   -3.344594   -0.699684
     11          6           0       -2.417618    1.173032   -0.051923
     12          6           0       -2.937204    2.549070    0.365848
     13          6           0       -1.853449    3.626926    0.327149
     14          1           0       -1.589108    0.885195    0.609981
     15          1           0       -1.999455    1.238331   -1.065738
     16          1           0       -3.354353    2.480445    1.378712
     17          1           0       -3.765396    2.833618   -0.295777
     18          1           0       -1.443162    3.724593   -0.683161
     19          1           0       -1.029783    3.369413    1.000842
     20          1           0       -2.246606    4.602584    0.629439
     21          6           0        0.547529   -2.192035    0.641064
     22          6           0        1.372965   -1.650220    1.631828
     23          6           0        2.351438   -0.707231    1.303332
     24          6           0        2.477565   -0.326991   -0.031884
     25          6           0        1.670411   -0.848606   -1.041691
     26          6           0        0.698620   -1.790207   -0.690186
     27          1           0       -0.209977   -2.924033    0.905185
     28          1           0        1.257883   -1.960424    2.666513
     29          1           0        3.003918   -0.271706    2.050331
     30          1           0        1.808919   -0.519778   -2.064484
     31          1           0        0.058986   -2.209305   -1.461723
     32          7           0        3.509894    0.670574   -0.391827
     33          8           0        3.600929    0.989018   -1.575442
     34          8           0        4.208451    1.115135    0.516480
 ---------------------------------------------------------------------

 SCF Done:  E(RHF) =  -669.534201123     A.U. after   15 cycles
 E2 =    -0.2093666955D+01 EUMP2 =    -0.67162786807783D+03

 The electronic state is 1-A.
 Alpha  occ. eigenvalues --  -20.60767 -20.60761 -15.85820 -11.31196 -11.27767
 Alpha  occ. eigenvalues --  -11.27738 -11.27494 -11.26802 -11.26747 -11.22368
 Alpha  occ. eigenvalues --  -11.21916 -11.21877 -11.21808 -11.21679 -11.21126
 Alpha  occ. eigenvalues --   -1.59842  -1.39395  -1.19373  -1.08930  -1.08747
 Alpha  occ. eigenvalues --   -1.04774  -1.04004  -0.96425  -0.95607  -0.87442
 Alpha  occ. eigenvalues --   -0.86176  -0.82434  -0.80126  -0.78681  -0.77463
 Alpha  occ. eigenvalues --   -0.72039  -0.71164  -0.70512  -0.65547  -0.65020
 Alpha  occ. eigenvalues --   -0.64780  -0.62125  -0.61410  -0.59841  -0.58034
 Alpha  occ. eigenvalues --   -0.55712  -0.55282  -0.53279  -0.53019  -0.52892
 Alpha  occ. eigenvalues --   -0.52809  -0.50360  -0.48803  -0.48794  -0.48393
 Alpha  occ. eigenvalues --   -0.47150  -0.46207  -0.46105  -0.44799  -0.44235
 Alpha  occ. eigenvalues --   -0.37266  -0.36345
 Alpha virt. eigenvalues --    0.05011   0.11243   0.16375   0.20333   0.22734
 Alpha virt. eigenvalues --    0.24007   0.25449   0.26478   0.27345   0.27892
 Alpha virt. eigenvalues --    0.29042   0.29850   0.31209   0.31418   0.31879

 Mulliken charges:
               1
     1  C   -0.297578
     2  C   -0.305251
     3  C   -0.476017
     4  H    0.149783
     5  H    0.151235
     6  H    0.151069
     7  H    0.147787
     8  H    0.159381
     9  H    0.156482
    10  H    0.155132
    11  C   -0.299587
    12  C   -0.300245
    13  C   -0.476007
    14  H    0.152518
    15  H    0.149277
    16  H    0.151177
    17  H    0.152046
    18  H    0.157470
    19  H    0.156518
    20  H    0.161240
    21  C   -0.173369
    22  C   -0.220477
    23  C   -0.171550
    24  C    0.158983
    25  C   -0.172100
    26  C   -0.211904
    27  H    0.226388
    28  H    0.223398
    29  H    0.275546
    30  H    0.275376
    31  H    0.226012
    32  N    0.488103
    33  O   -0.460337
    34  O   -0.460500
 Sum of Mulliken charges =  -0.00000

 Dipole moment (field-independent basis, Debye):
    X=             -3.6487    Y=             -3.4225    Z=              1.2702  Tot=              5.1614
 Quadrupole moment (field-independent basis, Debye-Ang):
   XX=           -113.5950   YY=            -93.9061   ZZ=            -89.3474
   XY=             -8.2767   XZ=              5.0149   YZ=             -0.2653

 Normal termination of Gaussian 16 at Wed May  5 17:11:44 2021.
