 Gaussian 16, Revision A.03,
 Gaussian 16:  EM64L-G16RevA.03 25-Dec-2016

 -------------
 #p 6-31g* mp2
 -------------

 ------------------------------------------------------
 Input file generated by CHIRIPA (05-May-2021 14:51:09)
 ------------------------------------------------------
 Symbolic Z-matrix:
 Charge =  0 Multiplicity = 1

                         Standard orientation:
 ---------------------------------------------------------------------
 Center     Atomic      Atomic             Coordinates (Angstroms)
 Number     Number       Type             X           Y           Z
 ---------------------------------------------------------------------
      1          6           0        2.706631    0.693457   -0.206289
      2          6           0        3.307317    2.065488   -0.514009
      3          6           0        2.311784    3.207003   -0.305078
      4          1           0        1.825655    0.534746   -0.843186
      5          1           0        2.347618    0.682651    0.832165
      6          1           0        3.666342    2.073250   -1.551148
      7          1           0        4.187078    2.220871    0.123559
      8          1           0        1.961665    3.227836    0.732026
      9          1           0        1.437970    3.079376   -0.952196
     10          1           0        2.762033    4.178710   -0.530733
     11          6           0        3.689714   -0.457883   -0.410483
     12          6           0        3.089028   -1.829914   -0.102763
     13          6           0        4.084561   -2.971428   -0.311694
     14          1           0        4.048727   -0.447077   -1.448937
     15          1           0        4.570690   -0.299172    0.226414
     16          1           0        2.209267   -1.985297   -0.740331
     17          1           0        2.730003   -1.837675    0.934375
     18          1           0        4.958375   -2.843802    0.335424
     19          1           0        4.434680   -2.992262   -1.348798
     20          1           0        3.634312   -3.943136   -0.086039
     21          6           0       -2.549147   -0.439242    0.551007
     22          6           0       -1.596931    0.550140    1.223609
     23          6           0       -0.302965   -0.107927    1.703600
     24          1           0       -2.786781   -1.247084    1.256601
     25          1           0       -2.037540   -0.908564   -0.300691
     26          1           0       -2.110649    1.018473    2.072948
     27          1           0       -1.361688    1.355824    0.516396
     28          1           0        0.234081   -0.559845    0.863392
     29          1           0       -0.519135   -0.899113    2.428787
     30          1           0        0.363088    0.617373    2.181277
     31          6           0       -3.847198    0.203667    0.065765
     32          6           0       -4.799413   -0.785715   -0.606837
     33          6           0       -6.093380   -0.127648   -1.086829
     34          1           0       -4.358805    0.672989    0.917463
     35          1           0       -3.609563    1.011511   -0.639830
     36          1           0       -5.034658   -1.591398    0.100376
     37          1           0       -4.285697   -1.254048   -1.456176
     38          1           0       -5.877211    0.663539   -1.812015
     39          1           0       -6.630427    0.324272   -0.246619
     40          1           0       -6.759432   -0.852948   -1.564504
 ---------------------------------------------------------------------

 SCF Done:  E(RHF) =  -470.731412721     A.U. after   11 cycles
 E2 =    -0.1584347965D+01 EUMP2 =    -0.47231576068653D+03

 The electronic state is 1-A.
 Alpha  occ. eigenvalues --  -11.21594 -11.21589 -11.21563 -11.21536 -11.21380
 Alpha  occ. eigenvalues --  -11.21353 -11.21320 -11.21238 -11.21079 -11.21064
 Alpha  occ. eigenvalues --  -11.21062 -11.20899  -1.08441  -1.08364  -1.03523
 Alpha  occ. eigenvalues --   -1.03480  -0.96023  -0.95886  -0.87036  -0.86919
 Alpha  occ. eigenvalues --   -0.79615  -0.79574  -0.78302  -0.78104  -0.65051
 Alpha  occ. eigenvalues --   -0.65025  -0.60922  -0.60897  -0.59423  -0.59242
 Alpha  occ. eigenvalues --   -0.57604  -0.57543  -0.55295  -0.55205  -0.52765
 Alpha  occ. eigenvalues --   -0.52649  -0.52349  -0.52333  -0.49947  -0.49871
 Alpha  occ. eigenvalues --   -0.47971  -0.47813  -0.46721  -0.46596  -0.45860
 Alpha  occ. eigenvalues --   -0.45720  -0.45683  -0.45308  -0.43762  -0.43656
 Alpha virt. eigenvalues --    0.21405   0.23124   0.23525   0.24287   0.25434
 Alpha virt. eigenvalues --    0.26186   0.26906   0.27598   0.28243   0.29686
 Alpha virt. eigenvalues --    0.30248   0.31080   0.31591   0.31943   0.32522

 Mulliken charges:
               1
     1  C   -0.303473
     2  C   -0.299173
     3  C   -0.475902
     4  H    0.147769
     5  H    0.158700
     6  H    0.151286
     7  H    0.151559
     8  H    0.154960
     9  H    0.154685
    10  H    0.160354
    11  C   -0.297140
    12  C   -0.302334
    13  C   -0.475541
    14  H    0.148826
    15  H    0.149314
    16  H    0.150815
    17  H    0.155015
    18  H    0.155259
    19  H    0.155059
    20  H    0.160316
    21  C   -0.298427
    22  C   -0.300553
    23  C   -0.480370
    24  H    0.149671
    25  H    0.148957
    26  H    0.151421
    27  H    0.152306
    28  H    0.165032
    29  H    0.153156
    30  H    0.158720
    31  C   -0.298219
    32  C   -0.299595
    33  C   -0.475676
    34  H    0.149585
    35  H    0.149477
    36  H    0.151935
    37  H    0.151721
    38  H    0.155121
    39  H    0.155204
    40  H    0.160180
 Sum of Mulliken charges =  -0.00000

 Dipole moment (field-independent basis, Debye):
    X=              0.0249    Y=             -0.0114    Z=              0.0183  Tot=              0.0329
 Quadrupole moment (field-independent basis, Debye-Ang):
   XX=            -85.9631   YY=            -85.7959   ZZ=            -83.2557
   XY=              0.9592   XZ=             -0.3012   YZ=             -0.0548

 Normal termination of Gaussian 16 at Thu May  6 05:19:45 2021.
