 Gaussian 16, Revision A.03,
 Gaussian 16:  EM64L-G16RevA.03 25-Dec-2016

 -------------
 #p 6-31g* mp2
 -------------

 ------------------------------------------------------
 Input file generated by CHIRIPA (05-May-2021 14:55:22)
 ------------------------------------------------------
 Symbolic Z-matrix:
 Charge =  0 Multiplicity = 1

                         Standard orientation:
 ---------------------------------------------------------------------
 Center     Atomic      Atomic             Coordinates (Angstroms)
 Number     Number       Type             X           Y           Z
 ---------------------------------------------------------------------
      1          6           0        2.720931   -2.299249    1.114975
      2          6           0        1.469299   -1.677808    1.053742
      3          6           0        1.323362   -0.435070    0.430161
      4          6           0        2.455314    0.160463   -0.124199
      5          6           0        3.715707   -0.433413   -0.079349
      6          6           0        3.838170   -1.676167    0.549232
      7          1           0        2.825181   -3.264644    1.601330
      8          1           0        0.599896   -2.159365    1.492246
      9          1           0        0.366180    0.068337    0.368500
     10          1           0        4.564031    0.071244   -0.525538
     11          1           0        4.811439   -2.156449    0.595291
     12          7           0        2.313242    1.476102   -0.787002
     13          8           0        3.325977    1.979985   -1.267739
     14          8           0        1.191842    1.978507   -0.813221
     15          6           0       -3.438184   -0.639942    0.096017
     16          6           0       -3.238125   -1.499693   -1.152499
     17          6           0       -3.774206   -2.921579   -0.983242
     18          1           0       -2.940720   -1.121794    0.948832
     19          1           0       -4.509098   -0.602515    0.339192
     20          1           0       -2.168046   -1.534352   -1.394051
     21          1           0       -3.735960   -1.015641   -2.002482
     22          1           0       -4.846938   -2.905422   -0.765092
     23          1           0       -3.270116   -3.427080   -0.153204
     24          1           0       -3.620855   -3.518744   -1.887530
     25          6           0       -2.907364    0.784250   -0.057717
     26          6           0       -3.107421    1.644001    1.190799
     27          6           0       -2.571340    3.065887    1.021541
     28          1           0       -1.836448    0.746823   -0.300892
     29          1           0       -3.404827    1.266101   -0.910532
     30          1           0       -2.609587    1.159949    2.040782
     31          1           0       -4.177500    1.678660    1.432351
     32          1           0       -3.075432    3.571387    0.191504
     33          1           0       -1.498610    3.049730    0.803392
     34          1           0       -2.724692    3.663052    1.925830
 ---------------------------------------------------------------------

 SCF Done:  E(RHF) =  -669.535837663     A.U. after   15 cycles
 E2 =    -0.2092233424D+01 EUMP2 =    -0.67162807108683D+03

 The electronic state is 1-A.
 Alpha  occ. eigenvalues --  -20.60890 -20.60883 -15.85930 -11.31262 -11.27827
 Alpha  occ. eigenvalues --  -11.27821 -11.27567 -11.26843 -11.26833 -11.21829
 Alpha  occ. eigenvalues --  -11.21617 -11.21491 -11.21360 -11.21359 -11.20540
 Alpha  occ. eigenvalues --   -1.59953  -1.39509  -1.19434  -1.08835  -1.08523
 Alpha  occ. eigenvalues --   -1.04835  -1.03530  -0.95966  -0.95675  -0.86972
 Alpha  occ. eigenvalues --   -0.86236  -0.82507  -0.79609  -0.78314  -0.77550
 Alpha  occ. eigenvalues --   -0.72150  -0.71268  -0.70553  -0.65253  -0.65089
 Alpha  occ. eigenvalues --   -0.64796  -0.62180  -0.60932  -0.59356  -0.57562
 Alpha  occ. eigenvalues --   -0.55382  -0.55217  -0.53163  -0.52942  -0.52641
 Alpha  occ. eigenvalues --   -0.52350  -0.49896  -0.48918  -0.48899  -0.47897
 Alpha  occ. eigenvalues --   -0.46667  -0.45832  -0.45742  -0.44913  -0.43809
 Alpha  occ. eigenvalues --   -0.37412  -0.36434
 Alpha virt. eigenvalues --    0.04948   0.11202   0.16443   0.19091   0.23019
 Alpha virt. eigenvalues --    0.23814   0.25646   0.26621   0.27803   0.28214
 Alpha virt. eigenvalues --    0.30072   0.30657   0.31604   0.31864   0.31973

 Mulliken charges:
               1
     1  C   -0.170245
     2  C   -0.222852
     3  C   -0.177675
     4  C    0.155889
     5  C   -0.169718
     6  C   -0.218967
     7  H    0.226037
     8  H    0.224344
     9  H    0.289662
    10  H    0.275861
    11  H    0.223791
    12  N    0.488545
    13  O   -0.458987
    14  O   -0.464400
    15  C   -0.297890
    16  C   -0.299770
    17  C   -0.474853
    18  H    0.140018
    19  H    0.151774
    20  H    0.149551
    21  H    0.156107
    22  H    0.156764
    23  H    0.150101
    24  H    0.161473
    25  C   -0.308375
    26  C   -0.299361
    27  C   -0.480943
    28  H    0.156999
    29  H    0.155336
    30  H    0.145055
    31  H    0.151217
    32  H    0.156401
    33  H    0.171593
    34  H    0.157518
 Sum of Mulliken charges =  -0.00000

 Dipole moment (field-independent basis, Debye):
    X=              0.5469    Y=             -4.5112    Z=              2.2180  Tot=              5.0567
 Quadrupole moment (field-independent basis, Debye-Ang):
   XX=            -86.5258   YY=            -97.7646   ZZ=            -95.8936
   XY=            -12.3158   XZ=              5.2981   YZ=              0.6458

 Normal termination of Gaussian 16 at Wed May  5 17:30:06 2021.
