 Gaussian 16, Revision A.03,
 Gaussian 16:  EM64L-G16RevA.03 25-Dec-2016

 -------------
 #p 6-31g* mp2
 -------------

 ------------------------------------------------------
 Input file generated by CHIRIPA (05-May-2021 14:57:25)
 ------------------------------------------------------
 Symbolic Z-matrix:
 Charge =  0 Multiplicity = 1

                         Standard orientation:
 ---------------------------------------------------------------------
 Center     Atomic      Atomic             Coordinates (Angstroms)
 Number     Number       Type             X           Y           Z
 ---------------------------------------------------------------------
      1          6           0        1.292976    2.557758    0.208149
      2          6           0        0.761136    1.439161   -0.441779
      3          6           0        1.516091    0.270104   -0.575554
      4          6           0        2.805160    0.254405   -0.045136
      5          6           0        3.363003    1.352506    0.607761
      6          6           0        2.589926    2.510943    0.729925
      7          1           0        0.699470    3.461785    0.307559
      8          1           0       -0.245805    1.472656   -0.847974
      9          1           0        1.129026   -0.610333   -1.073981
     10          1           0        4.369807    1.288960    1.002384
     11          1           0        3.005547    3.378145    1.235163
     12          7           0        3.613990   -0.977602   -0.180611
     13          8           0        4.747099   -0.965973    0.295377
     14          8           0        3.099526   -1.931550   -0.760221
     15          6           0       -1.474188   -2.641955    0.422147
     16          6           0       -2.234491   -2.063529    1.443854
     17          6           0       -2.902342   -0.853404    1.233807
     18          6           0       -2.787641   -0.246265   -0.015799
     19          6           0       -2.037811   -0.797576   -1.053634
     20          6           0       -1.378443   -2.008250   -0.821143
     21          1           0       -0.958680   -3.582222    0.594034
     22          1           0       -2.310633   -2.553431    2.410416
     23          1           0       -3.497720   -0.383557    2.007233
     24          1           0       -1.980727   -0.285598   -2.006544
     25          1           0       -0.788692   -2.455152   -1.616453
     26          7           0       -3.490175    1.035131   -0.250046
     27          8           0       -3.373236    1.550079   -1.359907
     28          8           0       -4.144457    1.500277    0.680648
 ---------------------------------------------------------------------

 SCF Done:  E(RHF) =  -868.338262577     A.U. after   16 cycles
 E2 =    -0.2603100916D+01 EUMP2 =    -0.87094136349296D+03

 The electronic state is 1-A.
 Alpha  occ. eigenvalues --  -20.61713 -20.61695 -20.61062 -20.61025 -15.86718
 Alpha  occ. eigenvalues --  -15.86089 -11.31928 -11.31223 -11.28508 -11.28432
 Alpha  occ. eigenvalues --  -11.28049 -11.27768 -11.27739 -11.27395 -11.27386
 Alpha  occ. eigenvalues --  -11.27349 -11.26717 -11.26619  -1.60771  -1.60120
 Alpha  occ. eigenvalues --   -1.40328  -1.39684  -1.20087  -1.19365  -1.09468
 Alpha  occ. eigenvalues --   -1.08789  -1.05491  -1.04720  -0.96334  -0.95669
 Alpha  occ. eigenvalues --   -0.86866  -0.86126  -0.83178  -0.82521  -0.78300
 Alpha  occ. eigenvalues --   -0.77602  -0.72928  -0.72320  -0.72106  -0.71438
 Alpha  occ. eigenvalues --   -0.71108  -0.70463  -0.65719  -0.65455  -0.65012
 Alpha  occ. eigenvalues --   -0.64680  -0.62877  -0.62077  -0.55847  -0.55233
 Alpha  occ. eigenvalues --   -0.53781  -0.53543  -0.52998  -0.52798  -0.49716
 Alpha  occ. eigenvalues --   -0.49673  -0.49087  -0.49040  -0.45742  -0.45141
 Alpha  occ. eigenvalues --   -0.37996  -0.37294  -0.37148  -0.36211
 Alpha virt. eigenvalues --    0.04208   0.04916   0.10334   0.11411   0.15689
 Alpha virt. eigenvalues --    0.16458   0.20243   0.22080   0.25795   0.27084
 Alpha virt. eigenvalues --    0.28245   0.29446   0.29597   0.31304   0.32103

 Mulliken charges:
               1
     1  C   -0.171476
     2  C   -0.225534
     3  C   -0.169787
     4  C    0.156808
     5  C   -0.171342
     6  C   -0.219078
     7  H    0.231608
     8  H    0.230061
     9  H    0.268637
    10  H    0.274697
    11  H    0.223979
    12  N    0.488560
    13  O   -0.459098
    14  O   -0.467933
    15  C   -0.167494
    16  C   -0.217584
    17  C   -0.169410
    18  C    0.160810
    19  C   -0.186180
    20  C   -0.225542
    21  H    0.235570
    22  H    0.227682
    23  H    0.277157
    24  H    0.274708
    25  H    0.232859
    26  N    0.487114
    27  O   -0.464198
    28  O   -0.455595
 Sum of Mulliken charges =  -0.00000

 Dipole moment (field-independent basis, Debye):
    X=             -0.6014    Y=             -0.3093    Z=              1.5342  Tot=              1.6766
 Quadrupole moment (field-independent basis, Debye-Ang):
   XX=           -132.1701   YY=            -99.5452   ZZ=           -100.0255
   XY=             26.0319   XZ=             -0.9590   YZ=              0.7685

 Normal termination of Gaussian 16 at Thu May  6 03:30:06 2021.
