 Gaussian 16, Revision A.03,
 Gaussian 16:  EM64L-G16RevA.03 25-Dec-2016

 -------------
 #p 6-31g* mp2
 -------------

 ------------------------------------------------------
 Input file generated by CHIRIPA (05-May-2021 14:57:22)
 ------------------------------------------------------
 Symbolic Z-matrix:
 Charge =  0 Multiplicity = 1

                         Standard orientation:
 ---------------------------------------------------------------------
 Center     Atomic      Atomic             Coordinates (Angstroms)
 Number     Number       Type             X           Y           Z
 ---------------------------------------------------------------------
      1          6           0       -1.945461   -2.138798   -0.862628
      2          6           0       -1.288971   -1.094696   -0.202785
      3          6           0       -1.995066    0.038536    0.211657
      4          6           0       -3.362913    0.094763   -0.051256
      5          6           0       -4.045342   -0.929062   -0.706514
      6          6           0       -3.319130   -2.052800   -1.111947
      7          1           0       -1.389136   -3.015433   -1.181077
      8          1           0       -0.222233   -1.158759   -0.007818
      9          1           0       -1.511850    0.861350    0.724392
     10          1           0       -5.109473   -0.836495   -0.886724
     11          1           0       -3.831591   -2.862143   -1.624189
     12          7           0       -4.121073    1.289440    0.382726
     13          8           0       -5.325511    1.314742    0.139159
     14          8           0       -3.496524    2.177905    0.958231
     15          6           0        3.759380    2.139732   -1.270860
     16          6           0        4.033873    0.861892   -1.769154
     17          6           0        3.749115   -0.274172   -1.005728
     18          6           0        3.187550   -0.094854    0.257515
     19          6           0        2.902496    1.165012    0.781701
     20          6           0        3.195561    2.286954    0.000736
     21          1           0        3.983813    3.016769   -1.870720
     22          1           0        4.471725    0.744539   -2.756352
     23          1           0        3.951411   -1.275149   -1.367028
     24          1           0        2.465847    1.250190    1.769375
     25          1           0        2.981316    3.278114    0.390283
     26          7           0        2.881692   -1.290078    1.075003
     27          8           0        2.387101   -1.105246    2.184892
     28          8           0        3.142344   -2.389097    0.590383
 ---------------------------------------------------------------------

 SCF Done:  E(RHF) =  -868.338652408     A.U. after   16 cycles
 E2 =    -0.2599233180D+01 EUMP2 =    -0.87093788558778D+03

 The electronic state is 1-A.
 Alpha  occ. eigenvalues --  -20.61669 -20.61650 -20.60608 -20.60599 -15.86704
 Alpha  occ. eigenvalues --  -15.85656 -11.31919 -11.30913 -11.28451 -11.28431
 Alpha  occ. eigenvalues --  -11.28103 -11.27473 -11.27463 -11.27398 -11.27364
 Alpha  occ. eigenvalues --  -11.27141 -11.26460 -11.26413  -1.60761  -1.59682
 Alpha  occ. eigenvalues --   -1.40306  -1.39240  -1.20059  -1.19067  -1.09477
 Alpha  occ. eigenvalues --   -1.08472  -1.05416  -1.04454  -0.96335  -0.95329
 Alpha  occ. eigenvalues --   -0.86820  -0.85853  -0.83154  -0.82168  -0.78239
 Alpha  occ. eigenvalues --   -0.77241  -0.72899  -0.72124  -0.71877  -0.71126
 Alpha  occ. eigenvalues --   -0.71003  -0.70156  -0.65691  -0.65389  -0.64715
 Alpha  occ. eigenvalues --   -0.64446  -0.62756  -0.61809  -0.55890  -0.54929
 Alpha  occ. eigenvalues --   -0.53774  -0.53485  -0.52785  -0.52543  -0.49677
 Alpha  occ. eigenvalues --   -0.49653  -0.48639  -0.48623  -0.45730  -0.44670
 Alpha  occ. eigenvalues --   -0.38023  -0.37026  -0.37016  -0.36052
 Alpha virt. eigenvalues --    0.04244   0.05295   0.10623   0.11606   0.15788
 Alpha virt. eigenvalues --    0.16824   0.20839   0.21571   0.26671   0.26937
 Alpha virt. eigenvalues --    0.27844   0.28672   0.30425   0.30974   0.31907

 Mulliken charges:
               1
     1  C   -0.171415
     2  C   -0.215309
     3  C   -0.170899
     4  C    0.158176
     5  C   -0.171681
     6  C   -0.218741
     7  H    0.229166
     8  H    0.224861
     9  H    0.272318
    10  H    0.274395
    11  H    0.222767
    12  N    0.488340
    13  O   -0.461046
    14  O   -0.462794
    15  C   -0.169638
    16  C   -0.218013
    17  C   -0.172494
    18  C    0.151785
    19  C   -0.175315
    20  C   -0.217713
    21  H    0.229337
    22  H    0.225756
    23  H    0.275538
    24  H    0.277531
    25  H    0.228493
    26  N    0.485809
    27  O   -0.458424
    28  O   -0.460792
 Sum of Mulliken charges =  -0.00000

 Dipole moment (field-independent basis, Debye):
    X=              3.9799    Y=              0.0674    Z=             -4.4667  Tot=              5.9830
 Quadrupole moment (field-independent basis, Debye-Ang):
   XX=           -112.5284   YY=           -104.4166   ZZ=           -103.6611
   XY=             29.3773   XZ=             -3.8590   YZ=              4.6987

 Normal termination of Gaussian 16 at Fri May  7 00:11:40 2021.
