 Gaussian 16, Revision A.03,
 Gaussian 16:  EM64L-G16RevA.03 25-Dec-2016

 -------------
 #p 6-31g* mp2
 -------------

 ------------------------------------------------------
 Input file generated by CHIRIPA (05-May-2021 14:51:10)
 ------------------------------------------------------
 Symbolic Z-matrix:
 Charge =  0 Multiplicity = 1

                         Standard orientation:
 ---------------------------------------------------------------------
 Center     Atomic      Atomic             Coordinates (Angstroms)
 Number     Number       Type             X           Y           Z
 ---------------------------------------------------------------------
      1          6           0       -4.469351   -0.479099   -0.243845
      2          6           0       -5.781613    0.178909    0.183916
      3          6           0       -6.995028   -0.387630   -0.553954
      4          1           0       -4.336354   -0.347426   -1.326397
      5          1           0       -4.535095   -1.561492   -0.066371
      6          1           0       -5.712902    1.259921    0.006975
      7          1           0       -5.911408    0.045821    1.265608
      8          1           0       -7.091651   -1.462236   -0.368243
      9          1           0       -6.892017   -0.241237   -1.634027
     10          1           0       -7.922386    0.096884   -0.232841
     11          6           0       -3.247202    0.076657    0.485000
     12          6           0       -1.934941   -0.581351    0.057238
     13          6           0       -0.721526   -0.014811    0.795108
     14          1           0       -3.181458    1.159051    0.307525
     15          1           0       -3.380200   -0.055016    1.567552
     16          1           0       -1.805145   -0.448262   -1.024453
     17          1           0       -2.003652   -1.662362    0.234179
     18          1           0       -0.824537   -0.161204    1.875181
     19          1           0       -0.624903    1.059794    0.609398
     20          1           0        0.205832   -0.499326    0.473995
     21          6           0        3.335409    0.714862   -0.335549
     22          6           0        3.646490    2.133450    0.142805
     23          6           0        2.591364    3.149680   -0.295120
     24          1           0        3.255446    0.713485   -1.431245
     25          1           0        2.351791    0.412813    0.050013
     26          1           0        4.629838    2.432213   -0.242401
     27          1           0        3.725910    2.131414    1.237476
     28          1           0        1.607523    2.878656    0.101370
     29          1           0        2.516587    3.181165   -1.386915
     30          1           0        2.833497    4.157083    0.057543
     31          6           0        4.381145   -0.312420    0.094394
     32          6           0        4.070064   -1.731008   -0.383959
     33          6           0        5.125190   -2.747239    0.053965
     34          1           0        5.364762   -0.010371   -0.291168
     35          1           0        4.461108   -0.311043    1.190090
     36          1           0        3.990644   -1.728971   -1.478631
     37          1           0        3.086716   -2.029771    0.001246
     38          1           0        5.199967   -2.778723    1.145761
     39          1           0        6.109031   -2.476214   -0.342524
     40          1           0        4.883057   -3.754643   -0.298697
 ---------------------------------------------------------------------

 SCF Done:  E(RHF) =  -470.733180731     A.U. after   11 cycles
 E2 =    -0.1582910737D+01 EUMP2 =    -0.47231609146855D+03

 The electronic state is 1-A.
 Alpha  occ. eigenvalues --  -11.21645 -11.21615 -11.21595 -11.21546 -11.21430
 Alpha  occ. eigenvalues --  -11.21369 -11.21346 -11.21261 -11.21144 -11.21081
 Alpha  occ. eigenvalues --  -11.21060 -11.21029  -1.08459  -1.08384  -1.03567
 Alpha  occ. eigenvalues --   -1.03492  -0.96023  -0.95939  -0.87047  -0.86954
 Alpha  occ. eigenvalues --   -0.79651  -0.79542  -0.78276  -0.78189  -0.65097
 Alpha  occ. eigenvalues --   -0.65020  -0.60992  -0.60863  -0.59414  -0.59300
 Alpha  occ. eigenvalues --   -0.57687  -0.57503  -0.55314  -0.55224  -0.52789
 Alpha  occ. eigenvalues --   -0.52631  -0.52478  -0.52301  -0.49978  -0.49869
 Alpha  occ. eigenvalues --   -0.47950  -0.47871  -0.46709  -0.46546  -0.45814
 Alpha  occ. eigenvalues --   -0.45767  -0.45717  -0.45641  -0.43766  -0.43709
 Alpha virt. eigenvalues --    0.21238   0.23017   0.23580   0.24175   0.25821
 Alpha virt. eigenvalues --    0.26253   0.26898   0.27166   0.27804   0.29146
 Alpha virt. eigenvalues --    0.30147   0.31624   0.31748   0.31905   0.32399

 Mulliken charges:
               1
     1  C   -0.298309
     2  C   -0.299668
     3  C   -0.475722
     4  H    0.149812
     5  H    0.149557
     6  H    0.152032
     7  H    0.151935
     8  H    0.155189
     9  H    0.155240
    10  H    0.160311
    11  C   -0.298808
    12  C   -0.299184
    13  C   -0.483230
    14  H    0.149756
    15  H    0.149634
    16  H    0.152734
    17  H    0.152040
    18  H    0.155329
    19  H    0.157027
    20  H    0.165181
    21  C   -0.307605
    22  C   -0.298732
    23  C   -0.478062
    24  H    0.148810
    25  H    0.159859
    26  H    0.151566
    27  H    0.151870
    28  H    0.157360
    29  H    0.154818
    30  H    0.159960
    31  C   -0.297688
    32  C   -0.300373
    33  C   -0.475641
    34  H    0.149345
    35  H    0.149531
    36  H    0.151954
    37  H    0.151487
    38  H    0.155238
    39  H    0.155303
    40  H    0.160144
 Sum of Mulliken charges =  -0.00000

 Dipole moment (field-independent basis, Debye):
    X=             -0.0390    Y=             -0.0094    Z=              0.0057  Tot=              0.0405
 Quadrupole moment (field-independent basis, Debye-Ang):
   XX=            -85.9979   YY=            -85.1402   ZZ=            -83.7564
   XY=              0.4242   XZ=             -1.1033   YZ=             -0.6060

 Normal termination of Gaussian 16 at Wed May  5 16:41:14 2021.
