 Gaussian 16, Revision A.03,
 Gaussian 16:  EM64L-G16RevA.03 25-Dec-2016

 -------------
 #p 6-31g* mp2
 -------------

 ------------------------------------------------------
 Input file generated by CHIRIPA (05-May-2021 14:53:14)
 ------------------------------------------------------
 Symbolic Z-matrix:
 Charge =  0 Multiplicity = 1

                         Standard orientation:
 ---------------------------------------------------------------------
 Center     Atomic      Atomic             Coordinates (Angstroms)
 Number     Number       Type             X           Y           Z
 ---------------------------------------------------------------------
      1          6           0       -4.837161    0.059320   -0.353177
      2          6           0       -6.099296   -0.802994   -0.390796
      3          6           0       -6.980337   -0.508692   -1.605270
      4          1           0       -5.125059    1.119535   -0.350814
      5          1           0       -4.260938   -0.106044   -1.274056
      6          1           0       -6.672273   -0.637093    0.530502
      7          1           0       -5.808364   -1.861280   -0.392876
      8          1           0       -6.430269   -0.692457   -2.533848
      9          1           0       -7.299087    0.538685   -1.605223
     10          1           0       -7.877019   -1.136204   -1.612267
     11          6           0       -3.946161   -0.223292    0.855118
     12          6           0       -2.684026    0.639022    0.892736
     13          6           0       -1.802985    0.344720    2.107210
     14          1           0       -4.522383   -0.057928    1.775996
     15          1           0       -3.658262   -1.283506    0.852755
     16          1           0       -2.974958    1.697308    0.894817
     17          1           0       -2.111049    0.473121   -0.028562
     18          1           0       -1.484234   -0.702657    2.107164
     19          1           0       -2.353052    0.528485    3.035789
     20          1           0       -0.906302    0.972232    2.114207
     21          6           0        5.154785   -1.777387   -0.136570
     22          6           0        5.525429   -0.483621   -0.517773
     23          6           0        4.578708    0.544450   -0.554355
     24          6           0        3.264334    0.242075   -0.201823
     25          6           0        2.864099   -1.036823    0.182263
     26          6           0        3.827644   -2.049379    0.211618
     27          1           0        5.896755   -2.569990   -0.110959
     28          1           0        6.555376   -0.269486   -0.788700
     29          1           0        4.838336    1.554962   -0.845689
     30          1           0        1.829708   -1.219699    0.446855
     31          1           0        3.536934   -3.053198    0.508061
     32          7           0        2.253178    1.322235   -0.236725
     33          8           0        1.101705    1.030021    0.078484
     34          8           0        2.631255    2.440626   -0.578629
 ---------------------------------------------------------------------

 SCF Done:  E(RHF) =  -669.536025312     A.U. after   15 cycles
 E2 =    -0.2091041517D+01 EUMP2 =    -0.67162706682857D+03

 The electronic state is 1-A.
 Alpha  occ. eigenvalues --  -20.60930 -20.60920 -15.85964 -11.31281 -11.27846
 Alpha  occ. eigenvalues --  -11.27840 -11.27585 -11.26854 -11.26844 -11.21103
 Alpha  occ. eigenvalues --  -11.20723 -11.20650 -11.20576 -11.20413 -11.19867
 Alpha  occ. eigenvalues --   -1.59992  -1.39548  -1.19451  -1.08857  -1.07669
 Alpha  occ. eigenvalues --   -1.04847  -1.02707  -0.95703  -0.95175  -0.86248
 Alpha  occ. eigenvalues --   -0.86211  -0.82532  -0.78804  -0.77586  -0.77440
 Alpha  occ. eigenvalues --   -0.72195  -0.71307  -0.70560  -0.65110  -0.64850
 Alpha  occ. eigenvalues --   -0.64311  -0.62194  -0.60118  -0.58554  -0.56731
 Alpha  occ. eigenvalues --   -0.55352  -0.54504  -0.53180  -0.52939  -0.51841
 Alpha  occ. eigenvalues --   -0.51609  -0.49186  -0.48936  -0.48928  -0.47111
 Alpha  occ. eigenvalues --   -0.45863  -0.45039  -0.44971  -0.44835  -0.42949
 Alpha  occ. eigenvalues --   -0.37431  -0.36448
 Alpha virt. eigenvalues --    0.04921   0.11207   0.16401   0.21192   0.23503
 Alpha virt. eigenvalues --    0.24794   0.27052   0.27410   0.27922   0.28240
 Alpha virt. eigenvalues --    0.29117   0.30998   0.31865   0.32489   0.32948

 Mulliken charges:
               1
     1  C   -0.297566
     2  C   -0.298819
     3  C   -0.475240
     4  H    0.149924
     5  H    0.149396
     6  H    0.150865
     7  H    0.149757
     8  H    0.154594
     9  H    0.155215
    10  H    0.158201
    11  C   -0.297723
    12  C   -0.298803
    13  C   -0.477631
    14  H    0.146524
    15  H    0.144659
    16  H    0.151712
    17  H    0.161943
    18  H    0.142888
    19  H    0.146984
    20  H    0.179869
    21  C   -0.170581
    22  C   -0.218610
    23  C   -0.170715
    24  C    0.157632
    25  C   -0.170919
    26  C   -0.218594
    27  H    0.225955
    28  H    0.223756
    29  H    0.275792
    30  H    0.276388
    31  H    0.223855
    32  N    0.492532
    33  O   -0.464154
    34  O   -0.459084
 Sum of Mulliken charges =  -0.00000

 Dipole moment (field-independent basis, Debye):
    X=              3.8607    Y=             -3.6797    Z=              0.0485  Tot=              5.3336
 Quadrupole moment (field-independent basis, Debye-Ang):
   XX=            -70.6167   YY=            -94.3420   ZZ=            -95.9443
   XY=             -9.8165   XZ=             -2.2283   YZ=              0.2338

 Normal termination of Gaussian 16 at Wed May  5 15:36:14 2021.
