 Gaussian 16, Revision A.03,
 Gaussian 16:  EM64L-G16RevA.03 25-Dec-2016

 -------------
 #p 6-31g* mp2
 -------------

 ------------------------------------------------------
 Input file generated by CHIRIPA (05-May-2021 14:55:23)
 ------------------------------------------------------
 Symbolic Z-matrix:
 Charge =  0 Multiplicity = 1

                         Standard orientation:
 ---------------------------------------------------------------------
 Center     Atomic      Atomic             Coordinates (Angstroms)
 Number     Number       Type             X           Y           Z
 ---------------------------------------------------------------------
      1          6           0       -3.615628    2.621242    0.076318
      2          6           0       -2.339008    2.105297   -0.169780
      3          6           0       -2.140578    0.726172   -0.284613
      4          6           0       -3.246088   -0.111842   -0.147248
      5          6           0       -4.530292    0.371743    0.098224
      6          6           0       -4.705274    1.754346    0.209300
      7          1           0       -3.760666    3.693930    0.164064
      8          1           0       -1.490937    2.776163   -0.273506
      9          1           0       -1.163093    0.299866   -0.474889
     10          1           0       -5.356328   -0.322051    0.196876
     11          1           0       -5.697849    2.152218    0.400450
     12          7           0       -3.048430   -1.573701   -0.266828
     13          8           0       -4.038734   -2.290851   -0.141801
     14          8           0       -1.906945   -1.974676   -0.483318
     15          6           0        4.783508    0.298902    0.317050
     16          6           0        5.960169    0.127666   -0.644267
     17          6           0        7.126397    1.063043   -0.323680
     18          1           0        4.439165    1.341597    0.282969
     19          1           0        5.128816    0.117183    1.344247
     20          1           0        5.612432    0.308299   -1.669483
     21          1           0        6.301628   -0.914787   -0.608036
     22          1           0        7.500870    0.878957    0.688487
     23          1           0        6.807759    2.108992   -0.378990
     24          1           0        7.956630    0.923872   -1.023113
     25          6           0        3.609874   -0.629372    0.009452
     26          6           0        2.433212   -0.458136    0.970770
     27          6           0        1.266984   -1.393513    0.650182
     28          1           0        3.264564   -0.447653   -1.017745
     29          1           0        3.954217   -1.672067    0.043533
     30          1           0        2.091754    0.584317    0.934539
     31          1           0        2.780949   -0.638769    1.995985
     32          1           0        1.585622   -2.439462    0.705492
     33          1           0        0.892511   -1.209426   -0.361986
     34          1           0        0.436752   -1.254342    1.349614
 ---------------------------------------------------------------------

 SCF Done:  E(RHF) =  -669.535133260     A.U. after   15 cycles
 E2 =    -0.2091892152D+01 EUMP2 =    -0.67162702541284D+03

 The electronic state is 1-A.
 Alpha  occ. eigenvalues --  -20.60781 -20.60776 -15.85822 -11.31185 -11.27762
 Alpha  occ. eigenvalues --  -11.27727 -11.27508 -11.26779 -11.26766 -11.21557
 Alpha  occ. eigenvalues --  -11.21402 -11.21335 -11.21227 -11.21063 -11.20474
 Alpha  occ. eigenvalues --   -1.59855  -1.39408  -1.19363  -1.08761  -1.08317
 Alpha  occ. eigenvalues --   -1.04765  -1.03365  -0.95805  -0.95571  -0.86784
 Alpha  occ. eigenvalues --   -0.86161  -0.82429  -0.79427  -0.78137  -0.77455
 Alpha  occ. eigenvalues --   -0.72048  -0.71175  -0.70475  -0.65025  -0.64976
 Alpha  occ. eigenvalues --   -0.64759  -0.62144  -0.60755  -0.59157  -0.57395
 Alpha  occ. eigenvalues --   -0.55306  -0.55045  -0.53096  -0.52872  -0.52419
 Alpha  occ. eigenvalues --   -0.52182  -0.49744  -0.48807  -0.48767  -0.47716
 Alpha  occ. eigenvalues --   -0.46467  -0.45660  -0.45603  -0.44826  -0.43563
 Alpha  occ. eigenvalues --   -0.37349  -0.36367
 Alpha virt. eigenvalues --    0.05038   0.11255   0.16526   0.20755   0.22930
 Alpha virt. eigenvalues --    0.24059   0.26465   0.27269   0.27453   0.27810
 Alpha virt. eigenvalues --    0.29190   0.30865   0.31556   0.31917   0.32083

 Mulliken charges:
               1
     1  C   -0.170379
     2  C   -0.221317
     3  C   -0.173246
     4  C    0.155362
     5  C   -0.170300
     6  C   -0.218970
     7  H    0.225575
     8  H    0.223638
     9  H    0.285122
    10  H    0.275570
    11  H    0.223414
    12  N    0.489561
    13  O   -0.460370
    14  O   -0.461823
    15  C   -0.297461
    16  C   -0.299525
    17  C   -0.475516
    18  H    0.146339
    19  H    0.149740
    20  H    0.151443
    21  H    0.153101
    22  H    0.155303
    23  H    0.153810
    24  H    0.160338
    25  C   -0.297682
    26  C   -0.302486
    27  C   -0.474128
    28  H    0.148047
    29  H    0.152168
    30  H    0.141391
    31  H    0.151751
    32  H    0.160715
    33  H    0.159635
    34  H    0.161178
 Sum of Mulliken charges =  -0.00000

 Dipole moment (field-independent basis, Debye):
    X=             -0.7742    Y=              4.9932    Z=              0.4028  Tot=              5.0689
 Quadrupole moment (field-independent basis, Debye-Ang):
   XX=            -86.4635   YY=            -96.0380   ZZ=            -95.3578
   XY=            -17.1911   XZ=             -2.0760   YZ=             -1.4997

 Normal termination of Gaussian 16 at Thu May  6 20:49:36 2021.
