 Gaussian 16, Revision A.03,
 Gaussian 16:  EM64L-G16RevA.03 25-Dec-2016

 -------------
 #p 6-31g* mp2
 -------------

 ------------------------------------------------------
 Input file generated by CHIRIPA (05-May-2021 14:51:12)
 ------------------------------------------------------
 Symbolic Z-matrix:
 Charge =  0 Multiplicity = 1

                         Standard orientation:
 ---------------------------------------------------------------------
 Center     Atomic      Atomic             Coordinates (Angstroms)
 Number     Number       Type             X           Y           Z
 ---------------------------------------------------------------------
      1          6           0        4.125122   -0.439716   -0.123618
      2          6           0        5.600272   -0.802802   -0.297073
      3          6           0        5.849925   -2.309797   -0.230511
      4          1           0        3.768930   -0.829634    0.839729
      5          1           0        3.536459   -0.944572   -0.902072
      6          1           0        6.186149   -0.296308    0.480635
      7          1           0        5.953044   -0.411808   -1.260033
      8          1           0        5.290470   -2.828031   -1.016033
      9          1           0        5.524899   -2.711875    0.734524
     10          1           0        6.910897   -2.546938   -0.356857
     11          6           0        3.859578    1.063313   -0.187789
     12          6           0        2.384428    1.426399   -0.014334
     13          6           0        2.134775    2.933395   -0.080896
     14          1           0        4.448241    1.568170    0.590665
     15          1           0        4.215770    1.453231   -1.151135
     16          1           0        2.031655    1.035406    0.948626
     17          1           0        1.798551    0.919906   -0.792041
     18          1           0        2.459801    3.335473   -1.045931
     19          1           0        2.694230    3.451629    0.704627
     20          1           0        1.073803    3.170535    0.045451
     21          6           0       -4.632373    0.075398    0.001165
     22          6           0       -5.795982   -0.821205   -0.423218
     23          6           0       -7.069358   -0.032025   -0.728998
     24          1           0       -4.928073    0.654523    0.886671
     25          1           0       -4.430600    0.804295   -0.795950
     26          1           0       -5.994597   -1.549087    0.373874
     27          1           0       -5.497409   -1.398404   -1.307703
     28          1           0       -6.894228    0.682912   -1.539427
     29          1           0       -7.394241    0.531373    0.151704
     30          1           0       -7.888387   -0.692512   -1.030343
     31          6           0       -3.352327   -0.698996    0.310241
     32          6           0       -2.188718    0.197608    0.734625
     33          6           0       -0.915341   -0.591573    1.040404
     34          1           0       -3.554100   -1.427893    1.107356
     35          1           0       -3.056626   -1.278121   -0.575264
     36          1           0       -2.487290    0.774806    1.619109
     37          1           0       -1.990103    0.925489   -0.062467
     38          1           0       -0.590459   -1.154971    0.159702
     39          1           0       -1.090472   -1.306509    1.850834
     40          1           0       -0.096313    0.068914    1.341749
 ---------------------------------------------------------------------

 SCF Done:  E(RHF) =  -470.733025013     A.U. after   11 cycles
 E2 =    -0.1582660795D+01 EUMP2 =    -0.47231568580880D+03

 The electronic state is 1-A.
 Alpha  occ. eigenvalues --  -11.21590 -11.21587 -11.21581 -11.21568 -11.21389
 Alpha  occ. eigenvalues --  -11.21385 -11.21329 -11.21325 -11.21076 -11.21063
 Alpha  occ. eigenvalues --  -11.21057 -11.20963  -1.08426  -1.08400  -1.03545
 Alpha  occ. eigenvalues --   -1.03478  -0.95986  -0.95931  -0.87012  -0.86940
 Alpha  occ. eigenvalues --   -0.79659  -0.79499  -0.78243  -0.78209  -0.65057
 Alpha  occ. eigenvalues --   -0.65034  -0.60941  -0.60892  -0.59525  -0.59165
 Alpha  occ. eigenvalues --   -0.57697  -0.57429  -0.55260  -0.55229  -0.52736
 Alpha  occ. eigenvalues --   -0.52608  -0.52395  -0.52356  -0.49915  -0.49887
 Alpha  occ. eigenvalues --   -0.48015  -0.47763  -0.46618  -0.46594  -0.45771
 Alpha  occ. eigenvalues --   -0.45764  -0.45691  -0.45681  -0.43807  -0.43662
 Alpha virt. eigenvalues --    0.21712   0.23068   0.23498   0.25053   0.25962
 Alpha virt. eigenvalues --    0.26543   0.26973   0.27244   0.28085   0.29026
 Alpha virt. eigenvalues --    0.30029   0.31103   0.31528   0.31859   0.32256

 Mulliken charges:
               1
     1  C   -0.298244
     2  C   -0.299641
     3  C   -0.475678
     4  H    0.150018
     5  H    0.149469
     6  H    0.151862
     7  H    0.151828
     8  H    0.155145
     9  H    0.155304
    10  H    0.160163
    11  C   -0.297795
    12  C   -0.303038
    13  C   -0.476460
    14  H    0.149317
    15  H    0.149454
    16  H    0.154654
    17  H    0.153294
    18  H    0.155256
    19  H    0.155120
    20  H    0.160538
    21  C   -0.298219
    22  C   -0.299613
    23  C   -0.475686
    24  H    0.149578
    25  H    0.149410
    26  H    0.151910
    27  H    0.151882
    28  H    0.155146
    29  H    0.155160
    30  H    0.160206
    31  C   -0.298347
    32  C   -0.299616
    33  C   -0.480459
    34  H    0.149510
    35  H    0.149497
    36  H    0.151506
    37  H    0.151587
    38  H    0.154742
    39  H    0.153990
    40  H    0.167250
 Sum of Mulliken charges =  -0.00000

 Dipole moment (field-independent basis, Debye):
    X=              0.0236    Y=              0.0030    Z=              0.0018  Tot=              0.0238
 Quadrupole moment (field-independent basis, Debye-Ang):
   XX=            -85.9233   YY=            -86.1411   ZZ=            -82.8318
   XY=              0.8030   XZ=             -0.3888   YZ=              0.1300

 Normal termination of Gaussian 16 at Thu May  6 00:43:16 2021.
