 Gaussian 16, Revision A.03,
 Gaussian 16:  EM64L-G16RevA.03 25-Dec-2016

 -------------
 #p 6-31g* mp2
 -------------

 ------------------------------------------------------
 Input file generated by CHIRIPA (05-May-2021 14:53:17)
 ------------------------------------------------------
 Symbolic Z-matrix:
 Charge =  0 Multiplicity = 1

                         Standard orientation:
 ---------------------------------------------------------------------
 Center     Atomic      Atomic             Coordinates (Angstroms)
 Number     Number       Type             X           Y           Z
 ---------------------------------------------------------------------
      1          6           0        3.466282    0.369391    0.217016
      2          6           0        4.807360    0.655863   -0.459318
      3          6           0        5.155041    2.144702   -0.475760
      4          1           0        2.674543    0.926561   -0.302268
      5          1           0        3.493762    0.751848    1.246757
      6          1           0        4.777845    0.271747   -1.487033
      7          1           0        5.595971    0.097796    0.061518
      8          1           0        5.211899    2.538313    0.544259
      9          1           0        4.389125    2.713252   -1.013091
     10          1           0        6.117580    2.326826   -0.963827
     11          6           0        3.104812   -1.114684    0.241279
     12          6           0        1.763734   -1.401157    0.917613
     13          6           0        1.416053   -2.889996    0.934055
     14          1           0        3.077332   -1.497141   -0.788462
     15          1           0        3.896551   -1.671855    0.760563
     16          1           0        0.975123   -0.843089    0.396777
     17          1           0        1.793249   -1.017040    1.945328
     18          1           0        2.181969   -3.458546    1.471386
     19          1           0        1.359195   -3.283607   -0.085964
     20          1           0        0.453514   -3.072120    1.422122
     21          6           0       -2.757963    2.710654    0.510398
     22          6           0       -1.570303    2.235833   -0.055757
     23          6           0       -1.453158    0.897157   -0.441468
     24          6           0       -2.548356    0.057219   -0.245672
     25          6           0       -3.744911    0.500367    0.315726
     26          6           0       -3.839569    1.842935    0.694007
     27          1           0       -2.840230    3.752082    0.807141
     28          1           0       -0.728689    2.907440   -0.199540
     29          1           0       -0.545412    0.503158   -0.882126
     30          1           0       -4.566753   -0.193091    0.446524
     31          1           0       -4.763147    2.208919    1.133443
     32          7           0       -2.436242   -1.362036   -0.650074
     33          8           0       -3.415567   -2.081789   -0.466997
     34          8           0       -1.371166   -1.727824   -1.142466
 ---------------------------------------------------------------------

 SCF Done:  E(RHF) =  -669.535479950     A.U. after   15 cycles
 E2 =    -0.2092790455D+01 EUMP2 =    -0.67162827040445D+03

 The electronic state is 1-A.
 Alpha  occ. eigenvalues --  -20.60907 -20.60895 -15.85929 -11.31258 -11.27818
 Alpha  occ. eigenvalues --  -11.27813 -11.27552 -11.26829 -11.26817 -11.21665
 Alpha  occ. eigenvalues --  -11.21469 -11.21241 -11.21133 -11.21072 -11.20171
 Alpha  occ. eigenvalues --   -1.59960  -1.39517  -1.19426  -1.08827  -1.08284
 Alpha  occ. eigenvalues --   -1.04825  -1.03264  -0.95732  -0.95647  -0.86724
 Alpha  occ. eigenvalues --   -0.86226  -0.82503  -0.79390  -0.78112  -0.77537
 Alpha  occ. eigenvalues --   -0.72159  -0.71276  -0.70543  -0.65096  -0.64982
 Alpha  occ. eigenvalues --   -0.64763  -0.62198  -0.60622  -0.59132  -0.57321
 Alpha  occ. eigenvalues --   -0.55331  -0.54990  -0.53154  -0.52930  -0.52369
 Alpha  occ. eigenvalues --   -0.52138  -0.49655  -0.48934  -0.48902  -0.47678
 Alpha  occ. eigenvalues --   -0.46428  -0.45646  -0.45509  -0.44834  -0.43544
 Alpha  occ. eigenvalues --   -0.37399  -0.36407
 Alpha virt. eigenvalues --    0.04930   0.11143   0.16443   0.20225   0.23000
 Alpha virt. eigenvalues --    0.24466   0.25334   0.27252   0.27828   0.28176
 Alpha virt. eigenvalues --    0.29774   0.30536   0.31584   0.31868   0.32511

 Mulliken charges:
               1
     1  C   -0.295644
     2  C   -0.299575
     3  C   -0.475214
     4  H    0.138142
     5  H    0.148702
     6  H    0.153434
     7  H    0.153666
     8  H    0.154486
     9  H    0.151437
    10  H    0.161239
    11  C   -0.299055
    12  C   -0.304357
    13  C   -0.470519
    14  H    0.153041
    15  H    0.149741
    16  H    0.153204
    17  H    0.146427
    18  H    0.148028
    19  H    0.166475
    20  H    0.161924
    21  C   -0.170642
    22  C   -0.219379
    23  C   -0.170524
    24  C    0.158303
    25  C   -0.170882
    26  C   -0.218356
    27  H    0.225976
    28  H    0.224229
    29  H    0.277545
    30  H    0.275688
    31  H    0.223716
    32  N    0.488672
    33  O   -0.459151
    34  O   -0.460778
 Sum of Mulliken charges =  -0.00000

 Dipole moment (field-independent basis, Debye):
    X=             -0.5233    Y=              4.8713    Z=              1.3623  Tot=              5.0852
 Quadrupole moment (field-independent basis, Debye-Ang):
   XX=            -88.3242   YY=            -95.4529   ZZ=            -95.1360
   XY=            -12.6992   XZ=             -5.0175   YZ=             -1.1692

 Normal termination of Gaussian 16 at Thu May  6 13:57:52 2021.
