 Gaussian 16, Revision A.03,
 Gaussian 16:  EM64L-G16RevA.03 25-Dec-2016

 -------------
 #p 6-31g* mp2
 -------------

 ------------------------------------------------------
 Input file generated by CHIRIPA (05-May-2021 14:57:23)
 ------------------------------------------------------
 Symbolic Z-matrix:
 Charge =  0 Multiplicity = 1

                         Standard orientation:
 ---------------------------------------------------------------------
 Center     Atomic      Atomic             Coordinates (Angstroms)
 Number     Number       Type             X           Y           Z
 ---------------------------------------------------------------------
      1          6           0        1.547569    0.000377    0.103284
      2          6           0        2.235239   -1.078021    0.669579
      3          6           0        3.631698   -1.130250    0.628093
      4          6           0        4.311748   -0.082257    0.009600
      5          6           0        3.655162    1.005694   -0.563590
      6          6           0        2.258473    1.036965   -0.510411
      7          1           0        0.462677    0.032809    0.140054
      8          1           0        1.685754   -1.884457    1.146835
      9          1           0        4.189266   -1.953183    1.058578
     10          1           0        4.230438    1.794762   -1.032470
     11          1           0        1.727061    1.875713   -0.951033
     12          7           0        5.790239   -0.126455   -0.040509
     13          8           0        6.366128    0.809346   -0.591204
     14          8           0        6.345196   -1.096063    0.471859
     15          6           0       -4.924034   -2.272445   -0.368412
     16          6           0       -3.556147   -2.002225   -0.479719
     17          6           0       -3.070672   -0.705332   -0.287549
     18          6           0       -3.985324    0.301912    0.016031
     19          6           0       -5.353895    0.064309    0.133712
     20          6           0       -5.816967   -1.240136   -0.062591
     21          1           0       -5.292461   -3.282837   -0.519300
     22          1           0       -2.860371   -2.801963   -0.717120
     23          1           0       -2.016740   -0.468233   -0.367735
     24          1           0       -6.023115    0.882259    0.371453
     25          1           0       -6.879814   -1.447067    0.024478
     26          7           0       -3.483232    1.678872    0.221661
     27          8           0       -4.309611    2.548753    0.488197
     28          8           0       -2.272818    1.862180    0.112403
 ---------------------------------------------------------------------

 SCF Done:  E(RHF) =  -868.338349843     A.U. after   16 cycles
 E2 =    -0.2599343024D+01 EUMP2 =    -0.87093769286720D+03

 The electronic state is 1-A.
 Alpha  occ. eigenvalues --  -20.61809 -20.61756 -20.60571 -20.60561 -15.86829
 Alpha  occ. eigenvalues --  -15.85620 -11.32110 -11.30945 -11.28769 -11.28592
 Alpha  occ. eigenvalues --  -11.28321 -11.27668 -11.27582 -11.27542 -11.27457
 Alpha  occ. eigenvalues --  -11.27225 -11.26581 -11.26402  -1.60843  -1.59645
 Alpha  occ. eigenvalues --   -1.40408  -1.39199  -1.20255  -1.19107  -1.09651
 Alpha  occ. eigenvalues --   -1.08506  -1.05653  -1.04500  -0.96514  -0.95351
 Alpha  occ. eigenvalues --   -0.87053  -0.85894  -0.83356  -0.82185  -0.78437
 Alpha  occ. eigenvalues --   -0.77237  -0.73059  -0.72153  -0.71839  -0.71374
 Alpha  occ. eigenvalues --   -0.70967  -0.70209  -0.65910  -0.65649  -0.64755
 Alpha  occ. eigenvalues --   -0.64490  -0.63025  -0.61843  -0.56131  -0.55008
 Alpha  occ. eigenvalues --   -0.53967  -0.53719  -0.52836  -0.52582  -0.49824
 Alpha  occ. eigenvalues --   -0.49776  -0.48597  -0.48593  -0.45829  -0.44614
 Alpha  occ. eigenvalues --   -0.38198  -0.37246  -0.37084  -0.36104
 Alpha virt. eigenvalues --    0.04114   0.05283   0.10403   0.11552   0.15652
 Alpha virt. eigenvalues --    0.16756   0.18790   0.21899   0.24979   0.26938
 Alpha virt. eigenvalues --    0.27640   0.29018   0.30459   0.30897   0.32799

 Mulliken charges:
               1
     1  C   -0.179353
     2  C   -0.221276
     3  C   -0.171156
     4  C    0.158332
     5  C   -0.171325
     6  C   -0.221217
     7  H    0.237511
     8  H    0.218578
     9  H    0.273984
    10  H    0.275924
    11  H    0.232886
    12  N    0.488000
    13  O   -0.460161
    14  O   -0.461787
    15  C   -0.169722
    16  C   -0.221136
    17  C   -0.174184
    18  C    0.157577
    19  C   -0.169107
    20  C   -0.218191
    21  H    0.228846
    22  H    0.224607
    23  H    0.274282
    24  H    0.278061
    25  H    0.226823
    26  N    0.489137
    27  O   -0.454075
    28  O   -0.471857
 Sum of Mulliken charges =  -0.00000

 Dipole moment (field-independent basis, Debye):
    X=             -7.3751    Y=             -4.6059    Z=             -0.5793  Tot=              8.7145
 Quadrupole moment (field-independent basis, Debye-Ang):
   XX=           -130.4513   YY=           -103.8596   ZZ=           -105.0500
   XY=             18.9707   XZ=              2.5180   YZ=             -2.4081

 Normal termination of Gaussian 16 at Thu May  6 16:16:22 2021.
