 Gaussian 16, Revision A.03,
 Gaussian 16:  EM64L-G16RevA.03 25-Dec-2016

 -------------
 #p 6-31g* mp2
 -------------

 ------------------------------------------------------
 Input file generated by CHIRIPA (05-May-2021 14:53:14)
 ------------------------------------------------------
 Symbolic Z-matrix:
 Charge =  0 Multiplicity = 1

                         Standard orientation:
 ---------------------------------------------------------------------
 Center     Atomic      Atomic             Coordinates (Angstroms)
 Number     Number       Type             X           Y           Z
 ---------------------------------------------------------------------
      1          6           0       -4.318500   -0.227847   -0.440483
      2          6           0       -5.172054   -1.407847    0.025381
      3          6           0       -5.777805   -2.194701   -1.137255
      4          1           0       -4.934504    0.441427   -1.056564
      5          1           0       -3.514770   -0.599870   -1.090877
      6          1           0       -5.973106   -1.033866    0.675818
      7          1           0       -4.553996   -2.074291    0.640583
      8          1           0       -4.989906   -2.595230   -1.783315
      9          1           0       -6.417080   -1.548894   -1.747879
     10          1           0       -6.384047   -3.033643   -0.781578
     11          6           0       -3.706067    0.568518    0.710368
     12          6           0       -2.852513    1.748519    0.244504
     13          6           0       -2.246762    2.535372    1.407140
     14          1           0       -4.509797    0.940542    1.360762
     15          1           0       -3.090063   -0.100755    1.326449
     16          1           0       -3.470571    2.414963   -0.370698
     17          1           0       -2.051461    1.374537   -0.405933
     18          1           0       -1.607487    1.889566    2.017764
     19          1           0       -3.034661    2.935902    2.053200
     20          1           0       -1.640520    3.374315    1.051463
     21          6           0        2.258773    2.097590   -0.894722
     22          6           0        1.390288    1.173871   -0.303962
     23          6           0        1.864555   -0.065128    0.137060
     24          6           0        3.219268   -0.348727   -0.029117
     25          6           0        4.109527    0.550605   -0.613864
     26          6           0        3.613233    1.783562   -1.047519
     27          1           0        1.881795    3.057727   -1.234457
     28          1           0        0.337914    1.415040   -0.184009
     29          1           0        1.214233   -0.798764    0.597799
     30          1           0        5.153489    0.281666   -0.719850
     31          1           0        4.290019    2.498994   -1.505955
     32          7           0        3.733013   -1.657202    0.433874
     33          8           0        4.930820   -1.882967    0.275998
     34          8           0        2.928151   -2.432243    0.945874
 ---------------------------------------------------------------------

 SCF Done:  E(RHF) =  -669.535494636     A.U. after   15 cycles
 E2 =    -0.2091309908D+01 EUMP2 =    -0.67162680454388D+03

 The electronic state is 1-A.
 Alpha  occ. eigenvalues --  -20.60748 -20.60743 -15.85800 -11.31157 -11.27724
 Alpha  occ. eigenvalues --  -11.27718 -11.27457 -11.26740 -11.26688 -11.22621
 Alpha  occ. eigenvalues --  -11.22097 -11.22067 -11.21978 -11.21899 -11.21345
 Alpha  occ. eigenvalues --   -1.59823  -1.39377  -1.19325  -1.09099  -1.08721
 Alpha  occ. eigenvalues --   -1.04730  -1.04200  -0.96629  -0.95559  -0.87641
 Alpha  occ. eigenvalues --   -0.86126  -0.82394  -0.80286  -0.78859  -0.77444
 Alpha  occ. eigenvalues --   -0.72019  -0.71146  -0.70437  -0.65801  -0.64976
 Alpha  occ. eigenvalues --   -0.64721  -0.62190  -0.61481  -0.60026  -0.58226
 Alpha  occ. eigenvalues --   -0.55918  -0.55216  -0.53340  -0.53060  -0.53037
 Alpha  occ. eigenvalues --   -0.52796  -0.50574  -0.48783  -0.48775  -0.48573
 Alpha  occ. eigenvalues --   -0.47330  -0.46399  -0.46301  -0.44785  -0.44434
 Alpha  occ. eigenvalues --   -0.37305  -0.36328
 Alpha virt. eigenvalues --    0.05089   0.11302   0.16567   0.19249   0.22782
 Alpha virt. eigenvalues --    0.23740   0.25693   0.26594   0.27076   0.28210
 Alpha virt. eigenvalues --    0.28962   0.30235   0.31011   0.31039   0.32116

 Mulliken charges:
               1
     1  C   -0.298966
     2  C   -0.300467
     3  C   -0.476214
     4  H    0.150527
     5  H    0.149418
     6  H    0.152788
     7  H    0.153997
     8  H    0.156313
     9  H    0.155173
    10  H    0.162298
    11  C   -0.298253
    12  C   -0.306498
    13  C   -0.479214
    14  H    0.153037
    15  H    0.150382
    16  H    0.156539
    17  H    0.144562
    18  H    0.156001
    19  H    0.162376
    20  H    0.156709
    21  C   -0.173218
    22  C   -0.228532
    23  C   -0.174141
    24  C    0.158965
    25  C   -0.171284
    26  C   -0.218350
    27  H    0.225904
    28  H    0.239657
    29  H    0.274926
    30  H    0.275453
    31  H    0.223240
    32  N    0.488117
    33  O   -0.460540
    34  O   -0.460707
 Sum of Mulliken charges =  -0.00000

 Dipole moment (field-independent basis, Debye):
    X=             -2.0294    Y=              4.6041    Z=             -1.5916  Tot=              5.2773
 Quadrupole moment (field-independent basis, Debye-Ang):
   XX=           -100.9431   YY=            -98.2472   ZZ=            -95.4278
   XY=             16.1205   XZ=             -7.4562   YZ=             -0.4453

 Normal termination of Gaussian 16 at Thu May  6 15:27:54 2021.
