 Gaussian 16, Revision A.03,
 Gaussian 16:  EM64L-G16RevA.03 25-Dec-2016

 -------------
 #p 6-31g* mp2
 -------------

 ------------------------------------------------------
 Input file generated by CHIRIPA (05-May-2021 14:53:16)
 ------------------------------------------------------
 Symbolic Z-matrix:
 Charge =  0 Multiplicity = 1

                         Standard orientation:
 ---------------------------------------------------------------------
 Center     Atomic      Atomic             Coordinates (Angstroms)
 Number     Number       Type             X           Y           Z
 ---------------------------------------------------------------------
      1          6           0        2.949693    0.559513    0.771676
      2          6           0        2.782519    1.991767    0.263062
      3          6           0        2.105541    2.906484    1.284232
      4          1           0        1.963330    0.152636    1.033372
      5          1           0        3.538167    0.573658    1.699520
      6          1           0        2.195711    1.974796   -0.664291
      7          1           0        3.769374    2.395215    0.002366
      8          1           0        2.691621    2.953152    2.207776
      9          1           0        1.109017    2.530345    1.537330
     10          1           0        1.996076    3.925440    0.900036
     11          6           0        3.624936   -0.366969   -0.237979
     12          6           0        3.792110   -1.799223    0.270635
     13          6           0        4.469088   -2.713940   -0.750534
     14          1           0        3.036463   -0.381114   -1.165823
     15          1           0        4.611299    0.039908   -0.499675
     16          1           0        2.805255   -2.202671    0.531331
     17          1           0        4.378918   -1.782252    1.197988
     18          1           0        5.465613   -2.337801   -1.003633
     19          1           0        3.883008   -2.760608   -1.674079
     20          1           0        4.578553   -3.732896   -0.366339
     21          6           0       -4.198016   -1.698739    0.827784
     22          6           0       -2.871300   -2.083271    0.607598
     23          6           0       -1.959586   -1.191973    0.034089
     24          6           0       -2.410652    0.081744   -0.308657
     25          6           0       -3.726008    0.494498   -0.101871
     26          6           0       -4.620391   -0.413348    0.472973
     27          1           0       -4.899526   -2.397548    1.273817
     28          1           0       -2.540481   -3.080879    0.882154
     29          1           0       -0.926767   -1.463516   -0.147480
     30          1           0       -4.026311    1.495736   -0.386048
     31          1           0       -5.650136   -0.111974    0.642808
     32          7           0       -1.454634    1.034080   -0.916511
     33          8           0       -1.876907    2.150508   -1.209618
     34          8           0       -0.301137    0.646061   -1.088332
 ---------------------------------------------------------------------

 SCF Done:  E(RHF) =  -669.536474179     A.U. after   15 cycles
 E2 =    -0.2092121416D+01 EUMP2 =    -0.67162859559514D+03

 The electronic state is 1-A.
 Alpha  occ. eigenvalues --  -20.61086 -20.61076 -15.86099 -11.31370 -11.27927
 Alpha  occ. eigenvalues --  -11.27920 -11.27651 -11.26920 -11.26910 -11.21089
 Alpha  occ. eigenvalues --  -11.20667 -11.20469 -11.20294 -11.20108 -11.19892
 Alpha  occ. eigenvalues --   -1.60132  -1.39691  -1.19531  -1.08946  -1.07463
 Alpha  occ. eigenvalues --   -1.04919  -1.02595  -0.95796  -0.95084  -0.86323
 Alpha  occ. eigenvalues --   -0.86114  -0.82632  -0.78709  -0.77692  -0.77223
 Alpha  occ. eigenvalues --   -0.72336  -0.71443  -0.70639  -0.65197  -0.64922
 Alpha  occ. eigenvalues --   -0.64051  -0.62268  -0.59966  -0.58499  -0.56681
 Alpha  occ. eigenvalues --   -0.55425  -0.54371  -0.53252  -0.53010  -0.51826
 Alpha  occ. eigenvalues --   -0.51516  -0.49141  -0.49087  -0.49001  -0.47027
 Alpha  occ. eigenvalues --   -0.45728  -0.45151  -0.44729  -0.44560  -0.42843
 Alpha  occ. eigenvalues --   -0.37506  -0.36517
 Alpha virt. eigenvalues --    0.04807   0.11130   0.16294   0.20840   0.23265
 Alpha virt. eigenvalues --    0.25242   0.26198   0.27451   0.28288   0.28652
 Alpha virt. eigenvalues --    0.29111   0.31186   0.32156   0.32480   0.32771

 Mulliken charges:
               1
     1  C   -0.294090
     2  C   -0.305657
     3  C   -0.472833
     4  H    0.148539
     5  H    0.141834
     6  H    0.178899
     7  H    0.143785
     8  H    0.147325
     9  H    0.152637
    10  H    0.160048
    11  C   -0.300605
    12  C   -0.297105
    13  C   -0.475267
    14  H    0.159232
    15  H    0.146885
    16  H    0.143875
    17  H    0.149900
    18  H    0.155528
    19  H    0.155192
    20  H    0.156198
    21  C   -0.170373
    22  C   -0.218477
    23  C   -0.171315
    24  C    0.157679
    25  C   -0.170458
    26  C   -0.218559
    27  H    0.226369
    28  H    0.224339
    29  H    0.275952
    30  H    0.276073
    31  H    0.224143
    32  N    0.490377
    33  O   -0.457620
    34  O   -0.462448
 Sum of Mulliken charges =  -0.00000

 Dipole moment (field-independent basis, Debye):
    X=             -3.6932    Y=             -3.2761    Z=              1.9303  Tot=              5.3008
 Quadrupole moment (field-independent basis, Debye-Ang):
   XX=            -76.2486   YY=            -94.2023   ZZ=            -97.4201
   XY=              5.8439   XZ=             -3.9707   YZ=              0.1481

 Normal termination of Gaussian 16 at Thu May  6 02:46:44 2021.
