 Gaussian 16, Revision A.03,
 Gaussian 16:  EM64L-G16RevA.03 25-Dec-2016

 -------------
 #p 6-31g* mp2
 -------------

 ------------------------------------------------------
 Input file generated by CHIRIPA (05-May-2021 14:57:22)
 ------------------------------------------------------
 Symbolic Z-matrix:
 Charge =  0 Multiplicity = 1

                         Standard orientation:
 ---------------------------------------------------------------------
 Center     Atomic      Atomic             Coordinates (Angstroms)
 Number     Number       Type             X           Y           Z
 ---------------------------------------------------------------------
      1          6           0       -5.682370    1.287669    0.600278
      2          6           0       -4.842358    1.712457   -0.434350
      3          6           0       -3.722469    0.957284   -0.795059
      4          6           0       -3.471327   -0.222837   -0.096824
      5          6           0       -4.289349   -0.672544    0.938499
      6          6           0       -5.403676    0.098620    1.282199
      7          1           0       -6.550166    1.880516    0.873879
      8          1           0       -5.056341    2.635466   -0.965679
      9          1           0       -3.055480    1.262776   -1.592065
     10          1           0       -4.050186   -1.597086    1.449812
     11          1           0       -6.054292   -0.233725    2.086120
     12          7           0       -2.288695   -1.030769   -0.469687
     13          8           0       -2.089267   -2.066708    0.160945
     14          8           0       -1.583570   -0.612790   -1.385508
     15          6           0        3.012930   -2.338689   -0.169880
     16          6           0        4.115514   -1.973914    0.609713
     17          6           0        4.486633   -0.631451    0.730602
     18          6           0        3.729399    0.324446    0.055215
     19          6           0        2.625712   -0.007432   -0.729019
     20          6           0        2.272852   -1.356018   -0.835584
     21          1           0        2.731727   -3.383925   -0.258227
     22          1           0        4.692106   -2.734927    1.127829
     23          1           0        5.335668   -0.321209    1.327516
     24          1           0        2.070307    0.773758   -1.233682
     25          1           0        1.416094   -1.636389   -1.441722
     26          7           0        4.112621    1.748891    0.175613
     27          8           0        3.429143    2.571980   -0.429384
     28          8           0        5.089211    2.015312    0.872697
 ---------------------------------------------------------------------

 SCF Done:  E(RHF) =  -868.340913212     A.U. after   16 cycles
 E2 =    -0.2598299313D+01 EUMP2 =    -0.87093921252571D+03

 The electronic state is 1-A.
 Alpha  occ. eigenvalues --  -20.61602 -20.61596 -20.60002 -20.59996 -15.86609
 Alpha  occ. eigenvalues --  -15.85041 -11.31655 -11.30148 -11.28190 -11.28176
 Alpha  occ. eigenvalues --  -11.27871 -11.27134 -11.27114 -11.26722 -11.26557
 Alpha  occ. eigenvalues --  -11.26302 -11.25718 -11.25375  -1.60653  -1.59081
 Alpha  occ. eigenvalues --   -1.40215  -1.38642  -1.19797  -1.18268  -1.09254
 Alpha  occ. eigenvalues --   -1.07709  -1.05152  -1.03601  -0.96143  -0.94596
 Alpha  occ. eigenvalues --   -0.86566  -0.85012  -0.82989  -0.81417  -0.78067
 Alpha  occ. eigenvalues --   -0.76502  -0.72852  -0.71938  -0.71268  -0.70904
 Alpha  occ. eigenvalues --   -0.70400  -0.69374  -0.65455  -0.65154  -0.63902
 Alpha  occ. eigenvalues --   -0.63558  -0.62503  -0.60933  -0.55668  -0.54117
 Alpha  occ. eigenvalues --   -0.53496  -0.53240  -0.51985  -0.51665  -0.49607
 Alpha  occ. eigenvalues --   -0.49575  -0.48036  -0.47994  -0.45686  -0.44105
 Alpha  occ. eigenvalues --   -0.37757  -0.36737  -0.36245  -0.35197
 Alpha virt. eigenvalues --    0.04443   0.05976   0.10922   0.12448   0.16002
 Alpha virt. eigenvalues --    0.17555   0.21083   0.22691   0.27020   0.27913
 Alpha virt. eigenvalues --    0.28735   0.29415   0.30691   0.32121   0.32348

 Mulliken charges:
               1
     1  C   -0.169553
     2  C   -0.218323
     3  C   -0.169782
     4  C    0.157970
     5  C   -0.170265
     6  C   -0.218532
     7  H    0.227746
     8  H    0.226006
     9  H    0.276071
    10  H    0.275445
    11  H    0.224904
    12  N    0.490357
    13  O   -0.460474
    14  O   -0.468413
    15  C   -0.171577
    16  C   -0.218930
    17  C   -0.173888
    18  C    0.157595
    19  C   -0.174401
    20  C   -0.220267
    21  H    0.225856
    22  H    0.219184
    23  H    0.271241
    24  H    0.275668
    25  H    0.245420
    26  N    0.488160
    27  O   -0.463199
    28  O   -0.464021
 Sum of Mulliken charges =  -0.00000

 Dipole moment (field-independent basis, Debye):
    X=             -6.0726    Y=             -2.2374    Z=              0.8188  Tot=              6.5233
 Quadrupole moment (field-independent basis, Debye-Ang):
   XX=            -84.2964   YY=           -107.7807   ZZ=           -101.7747
   XY=            -29.1865   XZ=             -4.7810   YZ=             -4.5341

 Normal termination of Gaussian 16 at Fri May  7 03:16:28 2021.
