 Gaussian 16, Revision A.03,
 Gaussian 16:  EM64L-G16RevA.03 25-Dec-2016

 -------------
 #p 6-31g* mp2
 -------------

 ------------------------------------------------------
 Input file generated by CHIRIPA (05-May-2021 14:55:25)
 ------------------------------------------------------
 Symbolic Z-matrix:
 Charge =  0 Multiplicity = 1

                         Standard orientation:
 ---------------------------------------------------------------------
 Center     Atomic      Atomic             Coordinates (Angstroms)
 Number     Number       Type             X           Y           Z
 ---------------------------------------------------------------------
      1          6           0       -1.105372    1.545234    1.539962
      2          6           0       -2.267500    1.945475    0.872290
      3          6           0       -3.065494    1.006998    0.211220
      4          6           0       -2.669776   -0.329404    0.238171
      5          6           0       -1.517580   -0.759313    0.894611
      6          6           0       -0.734774    0.196495    1.548976
      7          1           0       -0.491370    2.280997    2.050893
      8          1           0       -2.557760    2.992241    0.863628
      9          1           0       -3.970170    1.289375   -0.313415
     10          1           0       -1.254044   -1.809974    0.885733
     11          1           0        0.167226   -0.117218    2.066687
     12          7           0       -3.506537   -1.332102   -0.458125
     13          8           0       -3.136119   -2.503401   -0.419595
     14          8           0       -4.516964   -0.927730   -1.029227
     15          6           0        2.904286    0.894459   -0.494880
     16          6           0        1.601800    0.880322   -1.295703
     17          6           0        0.940418    2.256690   -1.373021
     18          1           0        2.699326    1.261886    0.519977
     19          1           0        3.600047    1.611445   -0.952312
     20          1           0        0.909214    0.162560   -0.837709
     21          1           0        1.809850    0.512705   -2.308714
     22          1           0        1.610201    2.979713   -1.849706
     23          1           0        0.704449    2.627579   -0.370344
     24          1           0        0.010953    2.223628   -1.949964
     25          6           0        3.577296   -0.474242   -0.408618
     26          6           0        4.879780   -0.460104    0.392205
     27          6           0        5.541163   -1.836472    0.469523
     28          1           0        2.881535   -1.191228    0.048813
     29          1           0        3.782254   -0.841668   -1.423476
     30          1           0        4.671731   -0.092488    1.405216
     31          1           0        5.572367    0.257658   -0.065789
     32          1           0        5.777132   -2.207361   -0.533154
     33          1           0        4.871380   -2.559496    0.946208
     34          1           0        6.470628   -1.803411    1.046466
 ---------------------------------------------------------------------

 SCF Done:  E(RHF) =  -669.533834540     A.U. after   15 cycles
 E2 =    -0.2094817103D+01 EUMP2 =    -0.67162865164299D+03

 The electronic state is 1-A.
 Alpha  occ. eigenvalues --  -20.60825 -20.60820 -15.85881 -11.31279 -11.27856
 Alpha  occ. eigenvalues --  -11.27838 -11.27591 -11.26874 -11.26851 -11.22068
 Alpha  occ. eigenvalues --  -11.21922 -11.21857 -11.21810 -11.21450 -11.21389
 Alpha  occ. eigenvalues --   -1.59900  -1.39453  -1.19468  -1.08935  -1.08805
 Alpha  occ. eigenvalues --   -1.04877  -1.03912  -0.96391  -0.95680  -0.87404
 Alpha  occ. eigenvalues --   -0.86264  -0.82517  -0.79981  -0.78700  -0.77549
 Alpha  occ. eigenvalues --   -0.72099  -0.71225  -0.70587  -0.65581  -0.65117
 Alpha  occ. eigenvalues --   -0.64843  -0.62212  -0.61385  -0.59747  -0.57991
 Alpha  occ. eigenvalues --   -0.55844  -0.55349  -0.53194  -0.52960  -0.52926
 Alpha  occ. eigenvalues --   -0.52763  -0.50351  -0.48860  -0.48851  -0.48291
 Alpha  occ. eigenvalues --   -0.47051  -0.46238  -0.46188  -0.44851  -0.44197
 Alpha  occ. eigenvalues --   -0.37352  -0.36386
 Alpha virt. eigenvalues --    0.04941   0.11106   0.16329   0.19863   0.22851
 Alpha virt. eigenvalues --    0.24114   0.25631   0.26177   0.27145   0.28558
 Alpha virt. eigenvalues --    0.28710   0.30710   0.31450   0.31656   0.32060

 Mulliken charges:
               1
     1  C   -0.169463
     2  C   -0.215411
     3  C   -0.171591
     4  C    0.159778
     5  C   -0.172409
     6  C   -0.217808
     7  H    0.226117
     8  H    0.224327
     9  H    0.276043
    10  H    0.276118
    11  H    0.224821
    12  N    0.488089
    13  O   -0.460198
    14  O   -0.460133
    15  C   -0.297566
    16  C   -0.304596
    17  C   -0.472112
    18  H    0.139521
    19  H    0.151515
    20  H    0.157514
    21  H    0.154393
    22  H    0.153798
    23  H    0.146226
    24  H    0.162446
    25  C   -0.297689
    26  C   -0.299445
    27  C   -0.475758
    28  H    0.144767
    29  H    0.153610
    30  H    0.148410
    31  H    0.153545
    32  H    0.157330
    33  H    0.154571
    34  H    0.161243
 Sum of Mulliken charges =  -0.00000

 Dipole moment (field-independent basis, Debye):
    X=              2.8846    Y=              3.4978    Z=              2.4164  Tot=              5.1376
 Quadrupole moment (field-independent basis, Debye-Ang):
   XX=           -108.8339   YY=            -95.7469   ZZ=            -93.1555
   XY=            -12.7508   XZ=             -5.6077   YZ=             -1.0572

 Normal termination of Gaussian 16 at Wed May  5 20:50:57 2021.
