 Gaussian 16, Revision A.03,
 Gaussian 16:  EM64L-G16RevA.03 25-Dec-2016

 -------------
 #p 6-31g* mp2
 -------------

 ------------------------------------------------------
 Input file generated by CHIRIPA (05-May-2021 14:55:20)
 ------------------------------------------------------
 Symbolic Z-matrix:
 Charge =  0 Multiplicity = 1

                         Standard orientation:
 ---------------------------------------------------------------------
 Center     Atomic      Atomic             Coordinates (Angstroms)
 Number     Number       Type             X           Y           Z
 ---------------------------------------------------------------------
      1          6           0       -5.407671   -0.559204   -1.070535
      2          6           0       -4.885213    0.727629   -0.904341
      3          6           0       -3.687765    0.923536   -0.209874
      4          6           0       -3.036093   -0.194884    0.307573
      5          6           0       -3.531213   -1.489474    0.158626
      6          6           0       -4.730198   -1.661705   -0.539457
      7          1           0       -6.338474   -0.702193   -1.611418
      8          1           0       -5.409192    1.585692   -1.315703
      9          1           0       -3.260868    1.908742   -0.066532
     10          1           0       -2.986166   -2.325370    0.580075
     11          1           0       -5.133594   -2.662231   -0.666986
     12          7           0       -1.767595   -0.000019    1.044688
     13          8           0       -1.212653   -1.001781    1.490949
     14          8           0       -1.352308    1.150789    1.162221
     15          6           0        4.587139   -0.208300   -0.621321
     16          6           0        5.487796   -1.049493    0.283774
     17          6           0        6.348631   -2.042789   -0.497327
     18          1           0        3.939800   -0.875876   -1.206333
     19          1           0        5.210815    0.335127   -1.344585
     20          1           0        4.862707   -1.590102    1.006008
     21          1           0        6.132932   -0.379829    0.866839
     22          1           0        6.996190   -1.516980   -1.206407
     23          1           0        5.718748   -2.734129   -1.066447
     24          1           0        6.984646   -2.633672    0.169157
     25          6           0        3.720462    0.789421    0.144938
     26          6           0        2.819807    1.630615   -0.760157
     27          6           0        1.958972    2.623911    0.020945
     28          1           0        3.096787    0.245993    0.868202
     29          1           0        4.367802    1.456997    0.729950
     30          1           0        2.174670    0.960950   -1.343222
     31          1           0        3.444895    2.171223   -1.482391
     32          1           0        2.588855    3.315251    0.590064
     33          1           0        1.311413    2.098101    0.730024
     34          1           0        1.322955    3.214792   -0.645540
 ---------------------------------------------------------------------

 SCF Done:  E(RHF) =  -669.536305704     A.U. after   15 cycles
 E2 =    -0.2090871096D+01 EUMP2 =    -0.67162717680053D+03

 The electronic state is 1-A.
 Alpha  occ. eigenvalues --  -20.61004 -20.60977 -15.86016 -11.31317 -11.27878
 Alpha  occ. eigenvalues --  -11.27872 -11.27612 -11.26880 -11.26870 -11.20872
 Alpha  occ. eigenvalues --  -11.20552 -11.20491 -11.20488 -11.20299 -11.19552
 Alpha  occ. eigenvalues --   -1.60051  -1.39606  -1.19483  -1.08893  -1.07486
 Alpha  occ. eigenvalues --   -1.04876  -1.02558  -0.95739  -0.94989  -0.86278
 Alpha  occ. eigenvalues --   -0.86004  -0.82571  -0.78648  -0.77626  -0.77279
 Alpha  occ. eigenvalues --   -0.72240  -0.71363  -0.70592  -0.65139  -0.64879
 Alpha  occ. eigenvalues --   -0.64113  -0.62223  -0.59944  -0.58411  -0.56610
 Alpha  occ. eigenvalues --   -0.55383  -0.54258  -0.53208  -0.52967  -0.51704
 Alpha  occ. eigenvalues --   -0.51417  -0.49176  -0.48996  -0.48731  -0.46946
 Alpha  occ. eigenvalues --   -0.45690  -0.45013  -0.44831  -0.44665  -0.42824
 Alpha  occ. eigenvalues --   -0.37461  -0.36476
 Alpha virt. eigenvalues --    0.04888   0.11180   0.16381   0.21315   0.23789
 Alpha virt. eigenvalues --    0.25332   0.27236   0.27586   0.28174   0.28451
 Alpha virt. eigenvalues --    0.29081   0.30896   0.32323   0.32494   0.32671

 Mulliken charges:
               1
     1  C   -0.170510
     2  C   -0.218579
     3  C   -0.170731
     4  C    0.157885
     5  C   -0.170664
     6  C   -0.218604
     7  H    0.226093
     8  H    0.223983
     9  H    0.276262
    10  H    0.275774
    11  H    0.223871
    12  N    0.489224
    13  O   -0.459869
    14  O   -0.459820
    15  C   -0.297336
    16  C   -0.299509
    17  C   -0.475138
    18  H    0.148363
    19  H    0.146276
    20  H    0.154200
    21  H    0.150704
    22  H    0.153436
    23  H    0.154054
    24  H    0.158454
    25  C   -0.300025
    26  C   -0.297429
    27  C   -0.485065
    28  H    0.158877
    29  H    0.146858
    30  H    0.148793
    31  H    0.145327
    32  H    0.148047
    33  H    0.184744
    34  H    0.152054
 Sum of Mulliken charges =  -0.00000

 Dipole moment (field-independent basis, Debye):
    X=             -4.8006    Y=             -0.7560    Z=             -2.4525  Tot=              5.4435
 Quadrupole moment (field-independent basis, Debye-Ang):
   XX=            -69.1510   YY=            -90.1702   ZZ=            -97.3507
   XY=              3.4928   XZ=              7.4883   YZ=             -0.7574

 Normal termination of Gaussian 16 at Wed May  5 22:09:56 2021.
