 Gaussian 16, Revision A.03,
 Gaussian 16:  EM64L-G16RevA.03 25-Dec-2016

 -------------
 #p 6-31g* mp2
 -------------

 ------------------------------------------------------
 Input file generated by CHIRIPA (05-May-2021 14:51:13)
 ------------------------------------------------------
 Symbolic Z-matrix:
 Charge =  0 Multiplicity = 1

                         Standard orientation:
 ---------------------------------------------------------------------
 Center     Atomic      Atomic             Coordinates (Angstroms)
 Number     Number       Type             X           Y           Z
 ---------------------------------------------------------------------
      1          6           0       -2.066902    1.391190   -0.309159
      2          6           0       -2.104504    2.695437    0.488031
      3          6           0       -1.165778    3.761433   -0.077865
      4          1           0       -1.038009    1.006274   -0.322011
      5          1           0       -2.335468    1.600310   -1.353925
      6          1           0       -1.837294    2.483694    1.531285
      7          1           0       -3.133463    3.077192    0.499149
      8          1           0       -1.434259    4.001583   -1.111715
      9          1           0       -0.130725    3.404713   -0.073715
     10          1           0       -1.208515    4.685452    0.507134
     11          6           0       -3.000072    0.315749    0.244329
     12          6           0       -2.962470   -0.988498   -0.552860
     13          6           0       -3.901196   -2.054495    0.013036
     14          1           0       -2.731507    0.106629    1.289095
     15          1           0       -4.028965    0.700665    0.257182
     16          1           0       -1.933511   -1.370253   -0.563978
     17          1           0       -3.229681   -0.776755   -1.596114
     18          1           0       -4.936249   -1.697774    0.008886
     19          1           0       -3.632715   -2.294645    1.046886
     20          1           0       -3.858459   -2.978513   -0.571963
     21          6           0        2.991161   -0.393632   -0.370719
     22          6           0        3.934210    0.437871    0.499480
     23          6           0        4.843484    1.352806   -0.321439
     24          1           0        3.585007   -0.996943   -1.070940
     25          1           0        2.377274    0.281619   -0.982741
     26          1           0        4.545172   -0.238714    1.110689
     27          1           0        3.338057    1.039128    1.197840
     28          1           0        4.248869    2.050828   -0.919601
     29          1           0        5.462843    0.765726   -1.007247
     30          1           0        5.509305    1.937992    0.320510
     31          6           0        2.075813   -1.313306    0.435549
     32          6           0        1.132764   -2.144809   -0.434651
     33          6           0        0.223490   -3.059744    0.386268
     34          1           0        2.689701   -1.988559    1.047570
     35          1           0        1.481967   -0.709996    1.135768
     36          1           0        1.728917   -2.746067   -1.133011
     37          1           0        0.521803   -1.468225   -1.045860
     38          1           0       -0.395869   -2.472665    1.072077
     39          1           0        0.818105   -3.757767    0.984430
     40          1           0       -0.442331   -3.644931   -0.255682
 ---------------------------------------------------------------------

 SCF Done:  E(RHF) =  -470.732813788     A.U. after   11 cycles
 E2 =    -0.1584275833D+01 EUMP2 =    -0.47231708962140D+03

 The electronic state is 1-A.
 Alpha  occ. eigenvalues --  -11.21666 -11.21645 -11.21643 -11.21502 -11.21469
 Alpha  occ. eigenvalues --  -11.21440 -11.21407 -11.21366 -11.21131 -11.21119
 Alpha  occ. eigenvalues --  -11.21096 -11.21033  -1.08515  -1.08426  -1.03631
 Alpha  occ. eigenvalues --   -1.03494  -0.96063  -0.95966  -0.87056  -0.87000
 Alpha  occ. eigenvalues --   -0.79649  -0.79599  -0.78332  -0.78238  -0.65388
 Alpha  occ. eigenvalues --   -0.64868  -0.61301  -0.60658  -0.59468  -0.59282
 Alpha  occ. eigenvalues --   -0.57692  -0.57548  -0.55462  -0.55141  -0.52732
 Alpha  occ. eigenvalues --   -0.52664  -0.52462  -0.52404  -0.50034  -0.49873
 Alpha  occ. eigenvalues --   -0.48007  -0.47865  -0.46708  -0.46600  -0.46025
 Alpha  occ. eigenvalues --   -0.45803  -0.45759  -0.45482  -0.43840  -0.43790
 Alpha virt. eigenvalues --    0.19335   0.22428   0.23844   0.24594   0.25911
 Alpha virt. eigenvalues --    0.26530   0.27019   0.27706   0.28450   0.29868
 Alpha virt. eigenvalues --    0.30342   0.31204   0.31664   0.31970   0.32477

 Mulliken charges:
               1
     1  C   -0.300723
     2  C   -0.299593
     3  C   -0.475613
     4  H    0.150338
     5  H    0.149832
     6  H    0.151793
     7  H    0.152415
     8  H    0.155383
     9  H    0.154453
    10  H    0.160553
    11  C   -0.298015
    12  C   -0.311605
    13  C   -0.474944
    14  H    0.148591
    15  H    0.149873
    16  H    0.166876
    17  H    0.151123
    18  H    0.154822
    19  H    0.155227
    20  H    0.159835
    21  C   -0.298979
    22  C   -0.299675
    23  C   -0.475772
    24  H    0.150062
    25  H    0.149821
    26  H    0.152095
    27  H    0.151700
    28  H    0.155402
    29  H    0.155298
    30  H    0.160444
    31  C   -0.298241
    32  C   -0.306057
    33  C   -0.479666
    34  H    0.150024
    35  H    0.149166
    36  H    0.152909
    37  H    0.156141
    38  H    0.155953
    39  H    0.156983
    40  H    0.161771
 Sum of Mulliken charges =  -0.00000

 Dipole moment (field-independent basis, Debye):
    X=              0.0285    Y=             -0.0255    Z=             -0.0094  Tot=              0.0393
 Quadrupole moment (field-independent basis, Debye-Ang):
   XX=            -84.6585   YY=            -85.2876   ZZ=            -84.7318
   XY=             -1.8965   XZ=              0.9084   YZ=              0.4169

 Normal termination of Gaussian 16 at Wed May  5 23:14:10 2021.
