 Gaussian 16, Revision A.03,
 Gaussian 16:  EM64L-G16RevA.03 25-Dec-2016

 -------------
 #p 6-31g* mp2
 -------------

 ------------------------------------------------------
 Input file generated by CHIRIPA (05-May-2021 14:53:16)
 ------------------------------------------------------
 Symbolic Z-matrix:
 Charge =  0 Multiplicity = 1

                         Standard orientation:
 ---------------------------------------------------------------------
 Center     Atomic      Atomic             Coordinates (Angstroms)
 Number     Number       Type             X           Y           Z
 ---------------------------------------------------------------------
      1          6           0        2.173344   -1.121187    0.039753
      2          6           0        1.574603   -1.691110    1.326098
      3          6           0        0.367213   -2.592789    1.067300
      4          1           0        1.400061   -0.555581   -0.497898
      5          1           0        2.468176   -1.950507   -0.618044
      6          1           0        1.282258   -0.860973    1.981858
      7          1           0        2.349454   -2.255264    1.860844
      8          1           0        0.647966   -3.439995    0.433249
      9          1           0       -0.425293   -2.037782    0.554951
     10          1           0       -0.045054   -2.989325    2.000389
     11          6           0        3.381157   -0.217756    0.282096
     12          6           0        3.979897    0.352167   -1.004249
     13          6           0        5.187288    1.253846   -0.745451
     14          1           0        3.086325    0.611564    0.939893
     15          1           0        4.154440   -0.783362    0.819747
     16          1           0        3.205047    0.916321   -1.538995
     17          1           0        4.272242   -0.477971   -1.660009
     18          1           0        5.979794    0.698838   -0.233102
     19          1           0        4.906534    2.101052   -0.111400
     20          1           0        5.599554    1.650382   -1.678541
     21          6           0       -1.430030    2.485178    1.277392
     22          6           0       -1.372987    2.561476   -0.118117
     23          6           0       -1.780243    1.480427   -0.905533
     24          6           0       -2.241238    0.333331   -0.261370
     25          6           0       -2.309968    0.226774    1.126870
     26          6           0       -1.897515    1.320125    1.894344
     27          1           0       -1.111647    3.329740    1.881330
     28          1           0       -1.010374    3.465007   -0.599976
     29          1           0       -1.746580    1.512548   -1.987776
     30          1           0       -2.676089   -0.687238    1.578484
     31          1           0       -1.942916    1.258045    2.977917
     32          7           0       -2.675132   -0.817639   -1.084416
     33          8           0       -3.077343   -1.816979   -0.492654
     34          8           0       -2.604793   -0.698634   -2.305697
 ---------------------------------------------------------------------

 SCF Done:  E(RHF) =  -669.535472570     A.U. after   15 cycles
 E2 =    -0.2093694895D+01 EUMP2 =    -0.67162916746491D+03

 The electronic state is 1-A.
 Alpha  occ. eigenvalues --  -20.60927 -20.60906 -15.85937 -11.31306 -11.27890
 Alpha  occ. eigenvalues --  -11.27866 -11.27620 -11.26888 -11.26878 -11.21679
 Alpha  occ. eigenvalues --  -11.21478 -11.21426 -11.21275 -11.21210 -11.20709
 Alpha  occ. eigenvalues --   -1.59978  -1.39532  -1.19489  -1.08882  -1.08403
 Alpha  occ. eigenvalues --   -1.04885  -1.03484  -0.95924  -0.95709  -0.86936
 Alpha  occ. eigenvalues --   -0.86277  -0.82541  -0.79551  -0.78214  -0.77588
 Alpha  occ. eigenvalues --   -0.72164  -0.71319  -0.70585  -0.65141  -0.65042
 Alpha  occ. eigenvalues --   -0.64875  -0.62234  -0.60892  -0.59305  -0.57535
 Alpha  occ. eigenvalues --   -0.55406  -0.55209  -0.53195  -0.52970  -0.52608
 Alpha  occ. eigenvalues --   -0.52335  -0.49882  -0.48926  -0.48921  -0.47865
 Alpha  occ. eigenvalues --   -0.46619  -0.45762  -0.45692  -0.44808  -0.43740
 Alpha  occ. eigenvalues --   -0.37442  -0.36461
 Alpha virt. eigenvalues --    0.04929   0.11099   0.16393   0.21253   0.22776
 Alpha virt. eigenvalues --    0.24205   0.26526   0.27050   0.27384   0.27830
 Alpha virt. eigenvalues --    0.28567   0.30739   0.31414   0.31786   0.31957

 Mulliken charges:
               1
     1  C   -0.298388
     2  C   -0.299808
     3  C   -0.477966
     4  H    0.149058
     5  H    0.152158
     6  H    0.146238
     7  H    0.150665
     8  H    0.159331
     9  H    0.158907
    10  H    0.156134
    11  C   -0.297527
    12  C   -0.299208
    13  C   -0.475424
    14  H    0.145921
    15  H    0.149736
    16  H    0.150036
    17  H    0.154079
    18  H    0.155883
    19  H    0.152437
    20  H    0.160323
    21  C   -0.170769
    22  C   -0.218758
    23  C   -0.171465
    24  C    0.156899
    25  C   -0.171303
    26  C   -0.218773
    27  H    0.226217
    28  H    0.224010
    29  H    0.276229
    30  H    0.277239
    31  H    0.224330
    32  N    0.489092
    33  O   -0.457129
    34  O   -0.458404
 Sum of Mulliken charges =  -0.00000

 Dipole moment (field-independent basis, Debye):
    X=              1.3992    Y=              4.0323    Z=              2.8325  Tot=              5.1226
 Quadrupole moment (field-independent basis, Debye-Ang):
   XX=           -102.5891   YY=            -90.8357   ZZ=            -93.0815
   XY=             -9.1745   XZ=             -8.2025   YZ=             -2.2808

 Normal termination of Gaussian 16 at Thu May  6 09:03:40 2021.
