 Gaussian 16, Revision A.03,
 Gaussian 16:  EM64L-G16RevA.03 25-Dec-2016

 -------------
 #p 6-31g* mp2
 -------------

 ------------------------------------------------------
 Input file generated by CHIRIPA (05-May-2021 14:51:12)
 ------------------------------------------------------
 Symbolic Z-matrix:
 Charge =  0 Multiplicity = 1

                         Standard orientation:
 ---------------------------------------------------------------------
 Center     Atomic      Atomic             Coordinates (Angstroms)
 Number     Number       Type             X           Y           Z
 ---------------------------------------------------------------------
      1          6           0        3.170751    0.548696   -0.767092
      2          6           0        1.645019    0.514981   -0.861897
      3          6           0        1.074835    1.700245   -1.641535
      4          1           0        3.481390    1.487633   -0.288713
      5          1           0        3.594020    0.559544   -1.781055
      6          1           0        1.224785    0.502804    0.151943
      7          1           0        1.337967   -0.424070   -1.339934
      8          1           0        1.466354    1.713080   -2.663861
      9          1           0        1.352528    2.645220   -1.163508
     10          1           0       -0.017337    1.656221   -1.697043
     11          6           0        3.755671   -0.629713    0.009405
     12          6           0        5.281403   -0.595998    0.104210
     13          6           0        5.851586   -1.781261    0.883848
     14          1           0        3.332401   -0.640560    1.023368
     15          1           0        3.445032   -1.568649   -0.468975
     16          1           0        5.588454    0.343053    0.582246
     17          1           0        5.701637   -0.583820   -0.909630
     18          1           0        5.573894   -2.726236    0.405820
     19          1           0        5.460068   -1.794097    1.906174
     20          1           0        6.943759   -1.737237    0.939355
     21          6           0       -3.829597   -0.311086   -0.191748
     22          6           0       -5.071501   -1.076791    0.265806
     23          6           0       -5.793685   -1.774829   -0.887011
     24          1           0       -4.122015    0.431709   -0.946528
     25          1           0       -3.140538   -1.007600   -0.689203
     26          1           0       -5.757397   -0.379305    0.763476
     27          1           0       -4.776122   -1.817719    1.019724
     28          1           0       -5.129485   -2.492327   -1.379591
     29          1           0       -6.116335   -1.045740   -1.637295
     30          1           0       -6.678398   -2.316108   -0.537497
     31          6           0       -3.096825    0.392102    0.949435
     32          6           0       -1.854921    1.157808    0.491881
     33          6           0       -1.132736    1.855845    1.644698
     34          1           0       -3.785884    1.088616    1.446890
     35          1           0       -2.804407   -0.350693    1.704214
     36          1           0       -2.150300    1.898736   -0.262037
     37          1           0       -1.169025    0.460321   -0.005789
     38          1           0       -0.810087    1.126755    2.394982
     39          1           0       -1.796937    2.573343    2.137278
     40          1           0       -0.248023    2.397125    1.295184
 ---------------------------------------------------------------------

 SCF Done:  E(RHF) =  -470.731398675     A.U. after   11 cycles
 E2 =    -0.1584673666D+01 EUMP2 =    -0.47231607234136D+03

 The electronic state is 1-A.
 Alpha  occ. eigenvalues --  -11.21600 -11.21596 -11.21550 -11.21535 -11.21395
 Alpha  occ. eigenvalues --  -11.21392 -11.21331 -11.21331 -11.21084 -11.21071
 Alpha  occ. eigenvalues --  -11.21069 -11.20945  -1.08476  -1.08372  -1.03659
 Alpha  occ. eigenvalues --   -1.03397  -0.96078  -0.95868  -0.87013  -0.86962
 Alpha  occ. eigenvalues --   -0.79625  -0.79583  -0.78330  -0.78167  -0.65161
 Alpha  occ. eigenvalues --   -0.64977  -0.61186  -0.60798  -0.59709  -0.59040
 Alpha  occ. eigenvalues --   -0.57865  -0.57188  -0.55315  -0.55161  -0.52714
 Alpha  occ. eigenvalues --   -0.52603  -0.52437  -0.52352  -0.49930  -0.49890
 Alpha  occ. eigenvalues --   -0.48023  -0.47758  -0.46735  -0.46521  -0.45857
 Alpha  occ. eigenvalues --   -0.45761  -0.45726  -0.45514  -0.43821  -0.43691
 Alpha virt. eigenvalues --    0.21352   0.23077   0.23515   0.25229   0.26214
 Alpha virt. eigenvalues --    0.26379   0.26835   0.27471   0.27794   0.29262
 Alpha virt. eigenvalues --    0.30494   0.30833   0.31469   0.31867   0.32689

 Mulliken charges:
               1
     1  C   -0.297434
     2  C   -0.306209
     3  C   -0.480972
     4  H    0.149443
     5  H    0.149470
     6  H    0.157983
     7  H    0.150722
     8  H    0.154830
     9  H    0.153637
    10  H    0.167929
    11  C   -0.298341
    12  C   -0.299628
    13  C   -0.475694
    14  H    0.149410
    15  H    0.149369
    16  H    0.151994
    17  H    0.151953
    18  H    0.155085
    19  H    0.155141
    20  H    0.160262
    21  C   -0.298493
    22  C   -0.299581
    23  C   -0.475712
    24  H    0.149402
    25  H    0.149388
    26  H    0.151973
    27  H    0.151966
    28  H    0.155142
    29  H    0.155166
    30  H    0.160259
    31  C   -0.296784
    32  C   -0.307385
    33  C   -0.479039
    34  H    0.149114
    35  H    0.149325
    36  H    0.151797
    37  H    0.161287
    38  H    0.154351
    39  H    0.155822
    40  H    0.163054
 Sum of Mulliken charges =  -0.00000

 Dipole moment (field-independent basis, Debye):
    X=             -0.0190    Y=              0.0019    Z=              0.0054  Tot=              0.0198
 Quadrupole moment (field-independent basis, Debye-Ang):
   XX=            -85.3622   YY=            -84.7705   ZZ=            -84.8906
   XY=             -0.4535   XZ=             -0.6462   YZ=              0.3899

 Normal termination of Gaussian 16 at Thu May  6 03:54:04 2021.
