 Gaussian 16, Revision A.03,
 Gaussian 16:  EM64L-G16RevA.03 25-Dec-2016

 -------------
 #p 6-31g* mp2
 -------------

 ------------------------------------------------------
 Input file generated by CHIRIPA (05-May-2021 14:57:26)
 ------------------------------------------------------
 Symbolic Z-matrix:
 Charge =  0 Multiplicity = 1

                         Standard orientation:
 ---------------------------------------------------------------------
 Center     Atomic      Atomic             Coordinates (Angstroms)
 Number     Number       Type             X           Y           Z
 ---------------------------------------------------------------------
      1          6           0        1.413037    1.787473   -0.983723
      2          6           0        0.995826    0.452575   -0.961270
      3          6           0        1.877442   -0.560402   -0.572454
      4          6           0        3.174905   -0.201155   -0.210760
      5          6           0        3.620405    1.119706   -0.222838
      6          6           0        2.721688    2.116199   -0.615085
      7          1           0        0.721534    2.567975   -1.287097
      8          1           0       -0.019899    0.194348   -1.247042
      9          1           0        1.580767   -1.601892   -0.545990
     10          1           0        4.639147    1.346197    0.067481
     11          1           0        3.048457    3.152053   -0.631570
     12          7           0        4.117284   -1.264822    0.202678
     13          8           0        5.255102   -0.922218    0.516731
     14          8           0        3.700259   -2.420990    0.204850
     15          6           0       -4.376595   -1.741928   -0.904071
     16          6           0       -3.771794   -2.028970    0.324075
     17          6           0       -3.017634   -1.057175    0.988460
     18          6           0       -2.888399    0.196751    0.393265
     19          6           0       -3.478790    0.513218   -0.829264
     20          6           0       -4.228424   -0.473986   -1.475813
     21          1           0       -4.960687   -2.502826   -1.413254
     22          1           0       -3.885165   -3.012804    0.770461
     23          1           0       -2.538664   -1.252500    1.940223
     24          1           0       -3.347852    1.503071   -1.249340
     25          1           0       -4.696993   -0.248246   -2.429505
     26          7           0       -2.092400    1.233703    1.087179
     27          8           0       -1.993674    2.330717    0.541786
     28          8           0       -1.582292    0.929818    2.163321
 ---------------------------------------------------------------------

 SCF Done:  E(RHF) =  -868.338915796     A.U. after   16 cycles
 E2 =    -0.2600585543D+01 EUMP2 =    -0.87093950133875D+03

 The electronic state is 1-A.
 Alpha  occ. eigenvalues --  -20.61704 -20.61618 -20.60303 -20.60291 -15.86695
 Alpha  occ. eigenvalues --  -15.85353 -11.32042 -11.30555 -11.28618 -11.28519
 Alpha  occ. eigenvalues --  -11.28245 -11.27571 -11.27507 -11.27194 -11.27136
 Alpha  occ. eigenvalues --  -11.26754 -11.26118 -11.26038  -1.60725  -1.59379
 Alpha  occ. eigenvalues --   -1.40282  -1.38938  -1.20191  -1.18721  -1.09576
 Alpha  occ. eigenvalues --   -1.08118  -1.05563  -1.04131  -0.96417  -0.94981
 Alpha  occ. eigenvalues --   -0.86956  -0.85532  -0.83239  -0.81843  -0.78307
 Alpha  occ. eigenvalues --   -0.76941  -0.72914  -0.72079  -0.71573  -0.71245
 Alpha  occ. eigenvalues --   -0.70697  -0.69763  -0.65818  -0.65530  -0.64377
 Alpha  occ. eigenvalues --   -0.64150  -0.62895  -0.61512  -0.56023  -0.54552
 Alpha  occ. eigenvalues --   -0.53916  -0.53626  -0.52422  -0.52225  -0.49682
 Alpha  occ. eigenvalues --   -0.49656  -0.48339  -0.48319  -0.45684  -0.44382
 Alpha  occ. eigenvalues --   -0.38152  -0.37175  -0.36615  -0.35737
 Alpha virt. eigenvalues --    0.04178   0.05649   0.10429   0.11897   0.15680
 Alpha virt. eigenvalues --    0.17182   0.20719   0.21982   0.26637   0.27400
 Alpha virt. eigenvalues --    0.27645   0.28998   0.30502   0.31365   0.31899

 Mulliken charges:
               1
     1  C   -0.161617
     2  C   -0.224925
     3  C   -0.169469
     4  C    0.157976
     5  C   -0.169974
     6  C   -0.218759
     7  H    0.234097
     8  H    0.217208
     9  H    0.271014
    10  H    0.274018
    11  H    0.223262
    12  N    0.488498
    13  O   -0.461524
    14  O   -0.463983
    15  C   -0.170604
    16  C   -0.218324
    17  C   -0.172259
    18  C    0.154074
    19  C   -0.177735
    20  C   -0.218053
    21  H    0.229232
    22  H    0.228074
    23  H    0.279666
    24  H    0.273887
    25  H    0.225868
    26  N    0.489901
    27  O   -0.467634
    28  O   -0.451914
 Sum of Mulliken charges =  -0.00000

 Dipole moment (field-independent basis, Debye):
    X=             -6.3919    Y=              0.1256    Z=             -3.7673  Tot=              7.4206
 Quadrupole moment (field-independent basis, Debye-Ang):
   XX=           -107.7389   YY=           -103.7364   ZZ=           -104.1980
   XY=             25.8589   XZ=              3.4971   YZ=             -4.6731

 Normal termination of Gaussian 16 at Thu May  6 14:47:06 2021.
