 Gaussian 16, Revision A.03,
 Gaussian 16:  EM64L-G16RevA.03 25-Dec-2016

 -------------
 #p 6-31g* mp2
 -------------

 ------------------------------------------------------
 Input file generated by CHIRIPA (05-May-2021 14:57:24)
 ------------------------------------------------------
 Symbolic Z-matrix:
 Charge =  0 Multiplicity = 1

                         Standard orientation:
 ---------------------------------------------------------------------
 Center     Atomic      Atomic             Coordinates (Angstroms)
 Number     Number       Type             X           Y           Z
 ---------------------------------------------------------------------
      1          6           0       -4.591610   -2.180661   -0.065155
      2          6           0       -4.253903   -1.445906   -1.206475
      3          6           0       -3.592179   -0.219756   -1.091470
      4          6           0       -3.282015    0.243823    0.186099
      5          6           0       -3.605113   -0.464972    1.342172
      6          6           0       -4.266710   -1.688716    1.203290
      7          1           0       -5.105603   -3.132229   -0.163768
      8          1           0       -4.504972   -1.825500   -2.192840
      9          1           0       -3.318943    0.369590   -1.958322
     10          1           0       -3.341639   -0.060691    2.311995
     11          1           0       -4.527742   -2.257185    2.091406
     12          7           0       -2.581545    1.540620    0.320488
     13          8           0       -2.319432    1.927182    1.457371
     14          8           0       -2.307893    2.145932   -0.713605
     15          6           0        1.588006    1.543731   -0.948083
     16          6           0        1.633643    0.232462   -1.432863
     17          6           0        2.631712   -0.648238   -1.005346
     18          6           0        3.572393   -0.182247   -0.088142
     19          6           0        3.553510    1.118352    0.413231
     20          6           0        2.546395    1.981719   -0.028205
     21          1           0        0.809168    2.221147   -1.285596
     22          1           0        0.890656   -0.110424   -2.147319
     23          1           0        2.690502   -1.668542   -1.364432
     24          1           0        4.307982    1.431297    1.124748
     25          1           0        2.513413    2.999527    0.349981
     26          7           0        4.633792   -1.105430    0.371818
     27          8           0        5.450858   -0.670525    1.180457
     28          8           0        4.628552   -2.246445   -0.085011
 ---------------------------------------------------------------------

 SCF Done:  E(RHF) =  -868.340019756     A.U. after   16 cycles
 E2 =    -0.2598559010D+01 EUMP2 =    -0.87093857876559D+03

 The electronic state is 1-A.
 Alpha  occ. eigenvalues --  -20.61743 -20.61678 -20.60321 -20.60310 -15.86738
 Alpha  occ. eigenvalues --  -15.85368 -11.31872 -11.30556 -11.28443 -11.28375
 Alpha  occ. eigenvalues --  -11.28087 -11.27383 -11.27335 -11.27168 -11.27102
 Alpha  occ. eigenvalues --  -11.26629 -11.26082 -11.25975  -1.60774  -1.59399
 Alpha  occ. eigenvalues --   -1.40336  -1.38958  -1.20017  -1.18705  -1.09451
 Alpha  occ. eigenvalues --   -1.08089  -1.05385  -1.04098  -0.96327  -0.94957
 Alpha  occ. eigenvalues --   -0.86792  -0.85479  -0.83169  -0.81814  -0.78248
 Alpha  occ. eigenvalues --   -0.76924  -0.72971  -0.72082  -0.71588  -0.71116
 Alpha  occ. eigenvalues --   -0.70723  -0.69684  -0.65671  -0.65380  -0.64339
 Alpha  occ. eigenvalues --   -0.64085  -0.62737  -0.61464  -0.55881  -0.54437
 Alpha  occ. eigenvalues --   -0.53721  -0.53471  -0.52423  -0.52176  -0.49738
 Alpha  occ. eigenvalues --   -0.49699  -0.48355  -0.48328  -0.45786  -0.44404
 Alpha  occ. eigenvalues --   -0.37973  -0.36980  -0.36609  -0.35725
 Alpha virt. eigenvalues --    0.04246   0.05630   0.10673   0.11947   0.15779
 Alpha virt. eigenvalues --    0.17183   0.20831   0.22273   0.26745   0.27592
 Alpha virt. eigenvalues --    0.28048   0.29293   0.30533   0.31860   0.31976

 Mulliken charges:
               1
     1  C   -0.169767
     2  C   -0.218482
     3  C   -0.173076
     4  C    0.158616
     5  C   -0.169726
     6  C   -0.218122
     7  H    0.228413
     8  H    0.224768
     9  H    0.272514
    10  H    0.277421
    11  H    0.226555
    12  N    0.489386
    13  O   -0.455730
    14  O   -0.470336
    15  C   -0.173622
    16  C   -0.222077
    17  C   -0.172092
    18  C    0.156975
    19  C   -0.171536
    20  C   -0.218384
    21  H    0.244693
    22  H    0.218883
    23  H    0.271489
    24  H    0.273858
    25  H    0.226490
    26  N    0.488295
    27  O   -0.461710
    28  O   -0.463696
 Sum of Mulliken charges =  -0.00000

 Dipole moment (field-independent basis, Debye):
    X=             -6.5697    Y=             -1.2328    Z=             -1.9647  Tot=              6.9672
 Quadrupole moment (field-independent basis, Debye-Ang):
   XX=           -116.2381   YY=           -106.1903   ZZ=            -98.5337
   XY=             29.4776   XZ=             -3.4160   YZ=              0.8419

 Normal termination of Gaussian 16 at Fri May  7 00:21:22 2021.
