 Gaussian 16, Revision A.03,
 Gaussian 16:  EM64L-G16RevA.03 25-Dec-2016

 -------------
 #p 6-31g* mp2
 -------------

 ------------------------------------------------------
 Input file generated by CHIRIPA (05-May-2021 14:53:13)
 ------------------------------------------------------
 Symbolic Z-matrix:
 Charge =  0 Multiplicity = 1

                         Standard orientation:
 ---------------------------------------------------------------------
 Center     Atomic      Atomic             Coordinates (Angstroms)
 Number     Number       Type             X           Y           Z
 ---------------------------------------------------------------------
      1          6           0       -4.211477   -0.599890   -0.062020
      2          6           0       -2.847000    0.029259   -0.345495
      3          6           0       -1.687167   -0.932807   -0.086630
      4          1           0       -4.241471   -0.940086    0.982160
      5          1           0       -4.331014   -1.496185   -0.686329
      6          1           0       -2.730642    0.924881    0.278155
      7          1           0       -2.820318    0.368169   -1.389068
      8          1           0       -1.775678   -1.821967   -0.719214
      9          1           0       -1.685493   -1.262092    0.957481
     10          1           0       -0.721219   -0.462562   -0.295609
     11          6           0       -5.380946    0.349575   -0.316158
     12          6           0       -6.745423   -0.279575   -0.032683
     13          6           0       -7.905255    0.682492   -0.291548
     14          1           0       -5.261408    1.245869    0.308151
     15          1           0       -5.350951    0.689770   -1.360338
     16          1           0       -6.772104   -0.618485    1.010890
     17          1           0       -6.861780   -1.175197   -0.656333
     18          1           0       -7.906930    1.011777   -1.335659
     19          1           0       -7.816744    1.571652    0.341036
     20          1           0       -8.871204    0.212246   -0.082569
     21          6           0        1.486749    0.236026    1.260333
     22          6           0        2.157691    1.406333    0.890552
     23          6           0        3.410519    1.341710    0.273467
     24          6           0        3.965556    0.084414    0.040163
     25          6           0        3.321952   -1.099569    0.396879
     26          6           0        2.069992   -1.010992    1.012753
     27          1           0        0.513859    0.295530    1.739229
     28          1           0        1.707147    2.376158    1.081589
     29          1           0        3.951885    2.231861   -0.023134
     30          1           0        3.796475   -2.051855    0.193418
     31          1           0        1.551230   -1.921531    1.298847
     32          7           0        5.291410    0.003321   -0.612476
     33          8           0        5.758955   -1.116585   -0.807020
     34          8           0        5.837963    1.061203   -0.917112
 ---------------------------------------------------------------------

 SCF Done:  E(RHF) =  -669.534565546     A.U. after   15 cycles
 E2 =    -0.2092052704D+01 EUMP2 =    -0.67162661825001D+03

 The electronic state is 1-A.
 Alpha  occ. eigenvalues --  -20.60746 -20.60741 -15.85801 -11.31163 -11.27747
 Alpha  occ. eigenvalues --  -11.27732 -11.27431 -11.26746 -11.26721 -11.22418
 Alpha  occ. eigenvalues --  -11.22062 -11.22042 -11.21970 -11.21911 -11.21459
 Alpha  occ. eigenvalues --   -1.59822  -1.39376  -1.19347  -1.09062  -1.08741
 Alpha  occ. eigenvalues --   -1.04746  -1.04181  -0.96652  -0.95566  -0.87669
 Alpha  occ. eigenvalues --   -0.86136  -0.82402  -0.80256  -0.78847  -0.77446
 Alpha  occ. eigenvalues --   -0.72018  -0.71146  -0.70471  -0.65692  -0.64994
 Alpha  occ. eigenvalues --   -0.64744  -0.62091  -0.61584  -0.60042  -0.58248
 Alpha  occ. eigenvalues --   -0.55997  -0.55185  -0.53583  -0.53119  -0.52825
 Alpha  occ. eigenvalues --   -0.52726  -0.50577  -0.48777  -0.48773  -0.48558
 Alpha  occ. eigenvalues --   -0.47286  -0.46394  -0.46305  -0.44782  -0.44429
 Alpha  occ. eigenvalues --   -0.37243  -0.36352
 Alpha virt. eigenvalues --    0.05063   0.11263   0.16492   0.20426   0.22480
 Alpha virt. eigenvalues --    0.23881   0.25878   0.26337   0.27023   0.27521
 Alpha virt. eigenvalues --    0.29205   0.30478   0.30970   0.31288   0.32007

 Mulliken charges:
               1
     1  C   -0.298532
     2  C   -0.299241
     3  C   -0.487195
     4  H    0.148739
     5  H    0.151639
     6  H    0.147637
     7  H    0.156271
     8  H    0.159943
     9  H    0.145803
    10  H    0.168866
    11  C   -0.298627
    12  C   -0.300032
    13  C   -0.476001
    14  H    0.149005
    15  H    0.151133
    16  H    0.151898
    17  H    0.152937
    18  H    0.156049
    19  H    0.155240
    20  H    0.161545
    21  C   -0.172773
    22  C   -0.220634
    23  C   -0.170723
    24  C    0.158201
    25  C   -0.171066
    26  C   -0.218371
    27  H    0.231522
    28  H    0.223439
    29  H    0.275550
    30  H    0.275631
    31  H    0.225085
    32  N    0.488119
    33  O   -0.460480
    34  O   -0.460578
 Sum of Mulliken charges =  -0.00000

 Dipole moment (field-independent basis, Debye):
    X=             -4.7884    Y=              0.2793    Z=              2.2419  Tot=              5.2946
 Quadrupole moment (field-independent basis, Debye-Ang):
   XX=           -133.0002   YY=            -89.9591   ZZ=            -94.4366
   XY=              1.4754   XZ=              9.1141   YZ=              0.3648

 Normal termination of Gaussian 16 at Wed May  5 23:24:07 2021.
