 Gaussian 16, Revision A.03,
 Gaussian 16:  EM64L-G16RevA.03 25-Dec-2016

 -------------
 #p 6-31g* mp2
 -------------

 ------------------------------------------------------
 Input file generated by CHIRIPA (05-May-2021 14:55:23)
 ------------------------------------------------------
 Symbolic Z-matrix:
 Charge =  0 Multiplicity = 1

                         Standard orientation:
 ---------------------------------------------------------------------
 Center     Atomic      Atomic             Coordinates (Angstroms)
 Number     Number       Type             X           Y           Z
 ---------------------------------------------------------------------
      1          6           0       -0.601727   -0.761646    0.700629
      2          6           0       -1.524674   -1.749586    0.341928
      3          6           0       -2.839969   -1.407150    0.014384
      4          6           0       -3.199822   -0.061027    0.056173
      5          6           0       -2.303351    0.946308    0.409593
      6          6           0       -0.993321    0.580781    0.733260
      7          1           0        0.417981   -1.036628    0.953567
      8          1           0       -1.223359   -2.792930    0.315729
      9          1           0       -3.574851   -2.151662   -0.266808
     10          1           0       -2.633246    1.977955    0.426667
     11          1           0       -0.278683    1.350157    1.011465
     12          7           0       -4.589479    0.313718   -0.288531
     13          8           0       -4.881579    1.506755   -0.244080
     14          8           0       -5.360279   -0.592691   -0.596634
     15          6           0        4.225937   -0.478233   -0.122494
     16          6           0        3.398875   -1.761249   -0.210946
     17          6           0        4.259893   -3.023932   -0.165412
     18          1           0        4.950985   -0.459303   -0.947656
     19          1           0        4.811054   -0.490824    0.807493
     20          1           0        2.814441   -1.745609   -1.139821
     21          1           0        2.675582   -1.777035    0.614411
     22          1           0        4.832033   -3.066649    0.767022
     23          1           0        4.971682   -3.035045   -0.997179
     24          1           0        3.648425   -3.929355   -0.230033
     25          6           0        3.379284    0.792573   -0.166746
     26          6           0        4.206347    2.075589   -0.078294
     27          6           0        3.345328    3.338271   -0.123828
     28          1           0        2.794169    0.805164   -1.096732
     29          1           0        2.654237    0.773642    0.658417
     30          1           0        4.929639    2.091376   -0.903651
     31          1           0        4.790781    2.059949    0.850581
     32          1           0        2.633541    3.349384    0.707938
     33          1           0        2.773188    3.380990   -1.056261
     34          1           0        3.956796    4.243694   -0.059206
 ---------------------------------------------------------------------

 SCF Done:  E(RHF) =  -669.535497422     A.U. after   15 cycles
 E2 =    -0.2091871157D+01 EUMP2 =    -0.67162736857888D+03

 The electronic state is 1-A.
 Alpha  occ. eigenvalues --  -20.60691 -20.60685 -15.85744 -11.31085 -11.27659
 Alpha  occ. eigenvalues --  -11.27653 -11.27338 -11.26657 -11.26641 -11.22814
 Alpha  occ. eigenvalues --  -11.22525 -11.22463 -11.22396 -11.22023 -11.21912
 Alpha  occ. eigenvalues --   -1.59767  -1.39321  -1.19255  -1.09481  -1.08646
 Alpha  occ. eigenvalues --   -1.04657  -1.04522  -0.96945  -0.95489  -0.87961
 Alpha  occ. eigenvalues --   -0.86052  -0.82330  -0.80605  -0.79324  -0.77378
 Alpha  occ. eigenvalues --   -0.71962  -0.71091  -0.70367  -0.66107  -0.64903
 Alpha  occ. eigenvalues --   -0.64655  -0.62019  -0.61907  -0.60328  -0.58569
 Alpha  occ. eigenvalues --   -0.56222  -0.55182  -0.53614  -0.53369  -0.52985
 Alpha  occ. eigenvalues --   -0.52748  -0.50885  -0.48915  -0.48719  -0.48706
 Alpha  occ. eigenvalues --   -0.47633  -0.46838  -0.46736  -0.44784  -0.44732
 Alpha  occ. eigenvalues --   -0.37218  -0.36267
 Alpha virt. eigenvalues --    0.05153   0.11375   0.16631   0.18867   0.22347
 Alpha virt. eigenvalues --    0.22639   0.24927   0.25996   0.26390   0.27352
 Alpha virt. eigenvalues --    0.29391   0.30555   0.30897   0.31276   0.31985

 Mulliken charges:
               1
     1  C   -0.175427
     2  C   -0.221789
     3  C   -0.170910
     4  C    0.158119
     5  C   -0.170992
     6  C   -0.222349
     7  H    0.236062
     8  H    0.223127
     9  H    0.275147
    10  H    0.275272
    11  H    0.224692
    12  N    0.487998
    13  O   -0.460722
    14  O   -0.460798
    15  C   -0.298580
    16  C   -0.305060
    17  C   -0.475361
    18  H    0.154691
    19  H    0.151991
    20  H    0.155625
    21  H    0.142888
    22  H    0.157595
    23  H    0.159530
    24  H    0.160617
    25  C   -0.300480
    26  C   -0.300387
    27  C   -0.476488
    28  H    0.153725
    29  H    0.139664
    30  H    0.155905
    31  H    0.153942
    32  H    0.150330
    33  H    0.157597
    34  H    0.164824
 Sum of Mulliken charges =  -0.00000

 Dipole moment (field-independent basis, Debye):
    X=              5.2198    Y=             -1.2992    Z=              1.0988  Tot=              5.4901
 Quadrupole moment (field-independent basis, Debye-Ang):
   XX=           -125.5824   YY=            -90.6162   ZZ=            -94.2836
   XY=              5.6820   XZ=             -3.8639   YZ=              0.7432

 Normal termination of Gaussian 16 at Wed May  5 20:42:23 2021.
