 Gaussian 16, Revision A.03,
 Gaussian 16:  EM64L-G16RevA.03 25-Dec-2016

 -------------
 #p 6-31g* mp2
 -------------

 ------------------------------------------------------
 Input file generated by CHIRIPA (05-May-2021 14:57:23)
 ------------------------------------------------------
 Symbolic Z-matrix:
 Charge =  0 Multiplicity = 1

                         Standard orientation:
 ---------------------------------------------------------------------
 Center     Atomic      Atomic             Coordinates (Angstroms)
 Number     Number       Type             X           Y           Z
 ---------------------------------------------------------------------
      1          6           0       -2.509208    2.389855   -0.110364
      2          6           0       -2.251181    1.704853    1.081574
      3          6           0       -2.552645    0.344696    1.198365
      4          6           0       -3.113944   -0.302166    0.098455
      5          6           0       -3.382819    0.352715   -1.102431
      6          6           0       -3.073209    1.712793   -1.196647
      7          1           0       -2.271859    3.446427   -0.192322
      8          1           0       -1.813228    2.228105    1.926825
      9          1           0       -2.363298   -0.209965    2.109362
     10          1           0       -3.820006   -0.195895   -1.927848
     11          1           0       -3.274687    2.242222   -2.123555
     12          7           0       -3.437403   -1.742061    0.210147
     13          8           0       -3.931390   -2.289148   -0.773373
     14          8           0       -3.190818   -2.296301    1.279096
     15          6           0        1.116783    1.673271   -0.061145
     16          6           0        0.913750    0.333923   -0.409634
     17          6           0        1.983454   -0.566128   -0.423508
     18          6           0        3.248559   -0.090642   -0.081874
     19          6           0        3.482830    1.237794    0.269784
     20          6           0        2.398414    2.120145    0.276856
     21          1           0        0.280097    2.365576   -0.053010
     22          1           0       -0.080489   -0.015924   -0.672581
     23          1           0        1.854497   -1.608292   -0.689370
     24          1           0        4.485453    1.557053    0.527150
     25          1           0        2.559050    3.159747    0.547908
     26          7           0        4.388794   -1.034116   -0.092962
     27          8           0        5.493629   -0.590319    0.212031
     28          8           0        4.156083   -2.199541   -0.406433
 ---------------------------------------------------------------------

 SCF Done:  E(RHF) =  -868.335388639     A.U. after   16 cycles
 E2 =    -0.2604215522D+01 EUMP2 =    -0.87093960416105D+03

 The electronic state is 1-A.
 Alpha  occ. eigenvalues --  -20.61734 -20.61726 -20.60786 -20.60771 -15.86795
 Alpha  occ. eigenvalues --  -15.85836 -11.32457 -11.31258 -11.29009 -11.28973
 Alpha  occ. eigenvalues --  -11.28815 -11.28097 -11.28079 -11.27857 -11.27777
 Alpha  occ. eigenvalues --  -11.27528 -11.26913 -11.26761  -1.60808  -1.59856
 Alpha  occ. eigenvalues --   -1.40348  -1.39407  -1.20684  -1.19435  -1.10033
 Alpha  occ. eigenvalues --   -1.08825  -1.06062  -1.04840  -0.96797  -0.95653
 Alpha  occ. eigenvalues --   -0.87450  -0.86240  -0.83577  -0.82484  -0.78570
 Alpha  occ. eigenvalues --   -0.77515  -0.72995  -0.72160  -0.72050  -0.71765
 Alpha  occ. eigenvalues --   -0.71182  -0.70595  -0.66276  -0.66012  -0.65085
 Alpha  occ. eigenvalues --   -0.64891  -0.63350  -0.62210  -0.56577  -0.55530
 Alpha  occ. eigenvalues --   -0.54362  -0.54103  -0.53173  -0.52798  -0.49781
 Alpha  occ. eigenvalues --   -0.49736  -0.48817  -0.48803  -0.45682  -0.44800
 Alpha  occ. eigenvalues --   -0.38679  -0.38049  -0.37127  -0.36369
 Alpha virt. eigenvalues --    0.03852   0.04986   0.09916   0.11182   0.15131
 Alpha virt. eigenvalues --    0.16548   0.19811   0.21806   0.25979   0.26577
 Alpha virt. eigenvalues --    0.26996   0.29154   0.29956   0.31004   0.32087

 Mulliken charges:
               1
     1  C   -0.185128
     2  C   -0.219392
     3  C   -0.171332
     4  C    0.154473
     5  C   -0.175278
     6  C   -0.216532
     7  H    0.227689
     8  H    0.228483
     9  H    0.281685
    10  H    0.280713
    11  H    0.229176
    12  N    0.487204
    13  O   -0.456593
    14  O   -0.455399
    15  C   -0.172657
    16  C   -0.223682
    17  C   -0.172248
    18  C    0.158572
    19  C   -0.171027
    20  C   -0.220529
    21  H    0.219882
    22  H    0.229318
    23  H    0.278886
    24  H    0.275225
    25  H    0.219987
    26  N    0.487899
    27  O   -0.461072
    28  O   -0.458321
 Sum of Mulliken charges =  -0.00000

 Dipole moment (field-independent basis, Debye):
    X=             -3.2300    Y=              8.1774    Z=             -0.3316  Tot=              8.7985
 Quadrupole moment (field-independent basis, Debye-Ang):
   XX=           -135.8787   YY=           -106.8036   ZZ=           -100.6388
   XY=             -2.5587   XZ=              4.6238   YZ=              1.4750

 Normal termination of Gaussian 16 at Thu May  6 21:13:44 2021.
