 Gaussian 16, Revision A.03,
 Gaussian 16:  EM64L-G16RevA.03 25-Dec-2016

 -------------
 #p 6-31g* mp2
 -------------

 ------------------------------------------------------
 Input file generated by CHIRIPA (05-May-2021 14:51:13)
 ------------------------------------------------------
 Symbolic Z-matrix:
 Charge =  0 Multiplicity = 1

                         Standard orientation:
 ---------------------------------------------------------------------
 Center     Atomic      Atomic             Coordinates (Angstroms)
 Number     Number       Type             X           Y           Z
 ---------------------------------------------------------------------
      1          6           0       -2.709298   -0.056075    0.463811
      2          6           0       -1.899186   -1.336417    0.669791
      3          6           0       -0.493163   -1.066430    1.206448
      4          1           0       -2.170668    0.603368   -0.230420
      5          1           0       -2.777583    0.483884    1.418367
      6          1           0       -1.833623   -1.874494   -0.284563
      7          1           0       -2.439899   -1.992971    1.363464
      8          1           0       -0.541409   -0.550599    2.170913
      9          1           0        0.068312   -0.431449    0.513522
     10          1           0        0.068424   -1.995371    1.346262
     11          6           0       -4.117132   -0.309617   -0.072330
     12          6           0       -4.927243    0.970726   -0.278309
     13          6           0       -6.333266    0.700738   -0.814966
     14          1           0       -4.048846   -0.849576   -1.026885
     15          1           0       -4.655762   -0.969060    0.621902
     16          1           0       -4.386530    1.627279   -0.971982
     17          1           0       -4.992806    1.508802    0.676045
     18          1           0       -6.894741    0.065757   -0.122040
     19          1           0       -6.285020    0.184908   -1.779431
     20          1           0       -6.894853    1.629679   -0.954781
     21          6           0        3.729636   -0.477547   -0.412975
     22          6           0        2.820641   -1.687068   -0.192125
     23          6           0        3.467640   -3.000869   -0.631572
     24          1           0        3.998052   -0.417966   -1.476623
     25          1           0        4.668236   -0.627520    0.138327
     26          1           0        1.883476   -1.534233   -0.742561
     27          1           0        2.554202   -1.743666    0.871088
     28          1           0        4.392650   -3.180146   -0.074064
     29          1           0        3.718113   -2.969523   -1.696881
     30          1           0        2.800566   -3.852376   -0.464814
     31          6           0        3.096794    0.843239    0.021493
     32          6           0        4.005788    2.052760   -0.199356
     33          6           0        3.358789    3.366560    0.240091
     34          1           0        2.158194    0.993212   -0.529808
     35          1           0        2.828377    0.783657    1.085142
     36          1           0        4.272227    2.109358   -1.262569
     37          1           0        4.942953    1.899925    0.351080
     38          1           0        3.108316    3.335215    1.305399
     39          1           0        2.433779    3.545838   -0.317419
     40          1           0        4.025863    4.218067    0.073332
 ---------------------------------------------------------------------

 SCF Done:  E(RHF) =  -470.731817602     A.U. after   11 cycles
 E2 =    -0.1583737655D+01 EUMP2 =    -0.47231555525694D+03

 The electronic state is 1-A.
 Alpha  occ. eigenvalues --  -11.21593 -11.21587 -11.21535 -11.21473 -11.21384
 Alpha  occ. eigenvalues --  -11.21378 -11.21318 -11.21316 -11.21064 -11.21061
 Alpha  occ. eigenvalues --  -11.21023 -11.20887  -1.08429  -1.08373  -1.03541
 Alpha  occ. eigenvalues --   -1.03442  -0.95959  -0.95930  -0.87028  -0.86904
 Alpha  occ. eigenvalues --   -0.79723  -0.79434  -0.78296  -0.78104  -0.65085
 Alpha  occ. eigenvalues --   -0.64988  -0.60961  -0.60836  -0.59483  -0.59166
 Alpha  occ. eigenvalues --   -0.57691  -0.57413  -0.55244  -0.55240  -0.52764
 Alpha  occ. eigenvalues --   -0.52587  -0.52356  -0.52323  -0.49950  -0.49876
 Alpha  occ. eigenvalues --   -0.47910  -0.47818  -0.46700  -0.46569  -0.45877
 Alpha  occ. eigenvalues --   -0.45720  -0.45682  -0.45368  -0.43786  -0.43639
 Alpha virt. eigenvalues --    0.21889   0.23114   0.23800   0.24382   0.25657
 Alpha virt. eigenvalues --    0.26147   0.26945   0.27390   0.27881   0.29530
 Alpha virt. eigenvalues --    0.30214   0.31452   0.31675   0.31867   0.32246

 Mulliken charges:
               1
     1  C   -0.298212
     2  C   -0.300806
     3  C   -0.479282
     4  H    0.149011
     5  H    0.149580
     6  H    0.151086
     7  H    0.151442
     8  H    0.153239
     9  H    0.161529
    10  H    0.161963
    11  C   -0.298182
    12  C   -0.299578
    13  C   -0.475675
    14  H    0.149292
    15  H    0.149642
    16  H    0.151765
    17  H    0.151947
    18  H    0.155172
    19  H    0.155099
    20  H    0.160196
    21  C   -0.298221
    22  C   -0.301445
    23  C   -0.475922
    24  H    0.148928
    25  H    0.149156
    26  H    0.154148
    27  H    0.155390
    28  H    0.154785
    29  H    0.154678
    30  H    0.159558
    31  C   -0.299984
    32  C   -0.299518
    33  C   -0.475625
    34  H    0.149032
    35  H    0.151465
    36  H    0.151762
    37  H    0.152053
    38  H    0.155383
    39  H    0.154947
    40  H    0.160201
 Sum of Mulliken charges =  -0.00000

 Dipole moment (field-independent basis, Debye):
    X=              0.0264    Y=              0.0044    Z=              0.0164  Tot=              0.0314
 Quadrupole moment (field-independent basis, Debye-Ang):
   XX=            -85.9033   YY=            -85.9267   ZZ=            -83.2110
   XY=              0.3031   XZ=             -0.1963   YZ=             -0.4949

 Normal termination of Gaussian 16 at Thu May  6 03:59:25 2021.
