 Gaussian 16, Revision A.03,
 Gaussian 16:  EM64L-G16RevA.03 25-Dec-2016

 -------------
 #p 6-31g* mp2
 -------------

 ------------------------------------------------------
 Input file generated by CHIRIPA (05-May-2021 14:57:22)
 ------------------------------------------------------
 Symbolic Z-matrix:
 Charge =  0 Multiplicity = 1

                         Standard orientation:
 ---------------------------------------------------------------------
 Center     Atomic      Atomic             Coordinates (Angstroms)
 Number     Number       Type             X           Y           Z
 ---------------------------------------------------------------------
      1          6           0       -2.344904    2.004201    0.578912
      2          6           0       -2.271465    0.799445    1.285798
      3          6           0       -3.089843   -0.279187    0.937432
      4          6           0       -3.974209   -0.117585   -0.127966
      5          6           0       -4.070714    1.070019   -0.851549
      6          6           0       -3.242711    2.135412   -0.485629
      7          1           0       -1.705430    2.836966    0.856349
      8          1           0       -1.575154    0.694689    2.112976
      9          1           0       -3.053580   -1.223097    1.467656
     10          1           0       -4.774715    1.144357   -1.671472
     11          1           0       -3.301903    3.069865   -1.036391
     12          7           0       -4.845683   -1.252477   -0.506057
     13          8           0       -5.616466   -1.084704   -1.448598
     14          8           0       -4.741462   -2.288288    0.147295
     15          6           0        1.851240    0.369611    1.567436
     16          6           0        2.049448    1.150840    0.424232
     17          6           0        3.142693    0.916506   -0.415084
     18          6           0        4.021934   -0.111905   -0.079535
     19          6           0        3.851522   -0.907478    1.052416
     20          6           0        2.751322   -0.655247    1.877334
     21          1           0        0.999279    0.558598    2.213844
     22          1           0        1.352054    1.947436    0.181084
     23          1           0        3.320024    1.506119   -1.306335
     24          1           0        4.563807   -1.694430    1.268690
     25          1           0        2.599894   -1.263553    2.764509
     26          7           0        5.182985   -0.369457   -0.960459
     27          8           0        5.943171   -1.281513   -0.642798
     28          8           0        5.310847    0.345606   -1.951909
 ---------------------------------------------------------------------

 SCF Done:  E(RHF) =  -868.336175196     A.U. after   16 cycles
 E2 =    -0.2600233816D+01 EUMP2 =    -0.87093640901131D+03

 The electronic state is 1-A.
 Alpha  occ. eigenvalues --  -20.61342 -20.61335 -20.61156 -20.61149 -15.86403
 Alpha  occ. eigenvalues --  -15.86213 -11.31949 -11.31710 -11.28579 -11.28508
 Alpha  occ. eigenvalues --  -11.28416 -11.28302 -11.28269 -11.28187 -11.27744
 Alpha  occ. eigenvalues --  -11.27577 -11.27423 -11.27354  -1.60412  -1.60227
 Alpha  occ. eigenvalues --   -1.39961  -1.39777  -1.20157  -1.19908  -1.09541
 Alpha  occ. eigenvalues --   -1.09304  -1.05591  -1.05327  -0.96335  -0.96114
 Alpha  occ. eigenvalues --   -0.87003  -0.86734  -0.83169  -0.82933  -0.78166
 Alpha  occ. eigenvalues --   -0.77937  -0.72620  -0.72432  -0.71736  -0.71550
 Alpha  occ. eigenvalues --   -0.71313  -0.71103  -0.65826  -0.65672  -0.65565
 Alpha  occ. eigenvalues --   -0.65326  -0.62940  -0.62671  -0.56207  -0.55889
 Alpha  occ. eigenvalues --   -0.53911  -0.53704  -0.53615  -0.53433  -0.49393
 Alpha  occ. eigenvalues --   -0.49360  -0.49201  -0.49176  -0.45326  -0.45153
 Alpha  occ. eigenvalues --   -0.38211  -0.37904  -0.37167  -0.36905
 Alpha virt. eigenvalues --    0.04361   0.04594   0.10339   0.10785   0.15693
 Alpha virt. eigenvalues --    0.16060   0.17749   0.22213   0.24194   0.25488
 Alpha virt. eigenvalues --    0.27844   0.28775   0.30071   0.31370   0.32678

 Mulliken charges:
               1
     1  C   -0.174430
     2  C   -0.218926
     3  C   -0.169208
     4  C    0.159751
     5  C   -0.169264
     6  C   -0.217770
     7  H    0.221790
     8  H    0.216162
     9  H    0.277122
    10  H    0.278720
    11  H    0.226039
    12  N    0.488006
    13  O   -0.457759
    14  O   -0.458850
    15  C   -0.170407
    16  C   -0.216584
    17  C   -0.170071
    18  C    0.159502
    19  C   -0.169751
    20  C   -0.218472
    21  H    0.216966
    22  H    0.217831
    23  H    0.276778
    24  H    0.277860
    25  H    0.224779
    26  N    0.487971
    27  O   -0.458494
    28  O   -0.459292
 Sum of Mulliken charges =  -0.00000

 Dipole moment (field-independent basis, Debye):
    X=             -1.0878    Y=              4.7770    Z=              4.2524  Tot=              6.4874
 Quadrupole moment (field-independent basis, Debye-Ang):
   XX=           -160.5271   YY=           -102.4482   ZZ=           -102.1507
   XY=            -14.8704   XZ=             10.1014   YZ=             -6.3339

 Normal termination of Gaussian 16 at Thu May  6 11:13:51 2021.
