 Gaussian 16, Revision A.03,
 Gaussian 16:  EM64L-G16RevA.03 25-Dec-2016

 -------------
 #p 6-31g* mp2
 -------------

 ------------------------------------------------------
 Input file generated by CHIRIPA (05-May-2021 14:57:22)
 ------------------------------------------------------
 Symbolic Z-matrix:
 Charge =  0 Multiplicity = 1

                         Standard orientation:
 ---------------------------------------------------------------------
 Center     Atomic      Atomic             Coordinates (Angstroms)
 Number     Number       Type             X           Y           Z
 ---------------------------------------------------------------------
      1          6           0        2.701905    2.179576    0.189445
      2          6           0        1.917064    1.029323    0.057295
      3          6           0        2.515413   -0.228199   -0.065849
      4          6           0        3.907567   -0.299121   -0.052899
      5          6           0        4.716716    0.828546    0.077237
      6          6           0        4.096767    2.075699    0.198978
      7          1           0        2.228704    3.152422    0.284561
      8          1           0        0.833572    1.106983    0.049573
      9          1           0        1.931808   -1.134884   -0.169503
     10          1           0        5.794437    0.719387    0.081571
     11          1           0        4.708800    2.967303    0.301466
     12          7           0        4.552446   -1.624915   -0.182523
     13          8           0        5.780925   -1.660597   -0.168275
     14          8           0        3.817212   -2.603286   -0.295917
     15          6           0       -5.228010   -1.999036    0.105227
     16          6           0       -5.246808   -1.176980   -1.026316
     17          6           0       -4.460389   -0.022248   -1.078158
     18          6           0       -3.663352    0.281668    0.024412
     19          6           0       -3.622916   -0.517267    1.166059
     20          6           0       -4.417553   -1.667141    1.195881
     21          1           0       -5.842111   -2.894172    0.136946
     22          1           0       -5.875254   -1.432258   -1.874805
     23          1           0       -4.455788    0.631899   -1.941575
     24          1           0       -2.986273   -0.236712    1.996357
     25          1           0       -4.400946   -2.303701    2.075972
     26          7           0       -2.826456    1.501559   -0.018815
     27          8           0       -2.132858    1.747290    0.965652
     28          8           0       -2.879941    2.188880   -1.036344
 ---------------------------------------------------------------------

 SCF Done:  E(RHF) =  -868.340286534     A.U. after   16 cycles
 E2 =    -0.2598177287D+01 EUMP2 =    -0.87093846382068D+03

 The electronic state is 1-A.
 Alpha  occ. eigenvalues --  -20.61769 -20.61740 -20.60302 -20.60295 -15.86769
 Alpha  occ. eigenvalues --  -15.85345 -11.31828 -11.30524 -11.28361 -11.28349
 Alpha  occ. eigenvalues --  -11.28027 -11.27292 -11.27282 -11.27076 -11.27027
 Alpha  occ. eigenvalues --  -11.26651 -11.26045 -11.25848  -1.60826  -1.59380
 Alpha  occ. eigenvalues --   -1.40382  -1.38939  -1.19970  -1.18650  -1.09420
 Alpha  occ. eigenvalues --   -1.08057  -1.05321  -1.04018  -0.96304  -0.94937
 Alpha  occ. eigenvalues --   -0.86733  -0.85403  -0.83142  -0.81777  -0.78230
 Alpha  occ. eigenvalues --   -0.76867  -0.72988  -0.72133  -0.71568  -0.71064
 Alpha  occ. eigenvalues --   -0.70700  -0.69719  -0.65620  -0.65313  -0.64286
 Alpha  occ. eigenvalues --   -0.63970  -0.62670  -0.61362  -0.55824  -0.54457
 Alpha  occ. eigenvalues --   -0.53671  -0.53403  -0.52367  -0.52078  -0.49770
 Alpha  occ. eigenvalues --   -0.49727  -0.48337  -0.48304  -0.45836  -0.44388
 Alpha  occ. eigenvalues --   -0.37929  -0.36911  -0.36591  -0.35628
 Alpha virt. eigenvalues --    0.04243   0.05644   0.10748   0.12039   0.15795
 Alpha virt. eigenvalues --    0.17212   0.20934   0.22317   0.26875   0.27663
 Alpha virt. eigenvalues --    0.28238   0.29146   0.30511   0.31749   0.32167

 Mulliken charges:
               1
     1  C   -0.171965
     2  C   -0.222796
     3  C   -0.173621
     4  C    0.158195
     5  C   -0.172734
     6  C   -0.218964
     7  H    0.231684
     8  H    0.238203
     9  H    0.271260
    10  H    0.272916
    11  H    0.221493
    12  N    0.488251
    13  O   -0.462250
    14  O   -0.463512
    15  C   -0.169410
    16  C   -0.218353
    17  C   -0.170489
    18  C    0.156487
    19  C   -0.171707
    20  C   -0.218162
    21  H    0.228641
    22  H    0.225929
    23  H    0.276380
    24  H    0.275471
    25  H    0.226337
    26  N    0.486882
    27  O   -0.466724
    28  O   -0.457444
 Sum of Mulliken charges =  -0.00000

 Dipole moment (field-independent basis, Debye):
    X=             -5.6987    Y=              0.4205    Z=              0.5933  Tot=              5.7449
 Quadrupole moment (field-independent basis, Debye-Ang):
   XX=            -96.9855   YY=           -109.8065   ZZ=           -101.5394
   XY=             36.8583   XZ=              3.5814   YZ=             -1.4914

 Normal termination of Gaussian 16 at Thu May  6 14:32:34 2021.
