 Gaussian 16, Revision A.03,
 Gaussian 16:  EM64L-G16RevA.03 25-Dec-2016

 -------------
 #p 6-31g* mp2
 -------------

 ------------------------------------------------------
 Input file generated by CHIRIPA (05-May-2021 14:51:11)
 ------------------------------------------------------
 Symbolic Z-matrix:
 Charge =  0 Multiplicity = 1

                         Standard orientation:
 ---------------------------------------------------------------------
 Center     Atomic      Atomic             Coordinates (Angstroms)
 Number     Number       Type             X           Y           Z
 ---------------------------------------------------------------------
      1          6           0       -3.547947    0.552173    0.267783
      2          6           0       -4.767040    0.831571   -0.611839
      3          6           0       -5.345395    2.230037   -0.393679
      4          1           0       -3.829373    0.673652    1.322765
      5          1           0       -2.775300    1.305770    0.061624
      6          1           0       -5.536626    0.076850   -0.405079
      7          1           0       -4.482728    0.709226   -1.664841
      8          1           0       -4.596419    2.996120   -0.618962
      9          1           0       -5.656304    2.360152    0.647958
     10          1           0       -6.216025    2.408554   -1.032423
     11          6           0       -2.958488   -0.841939    0.061100
     12          6           0       -1.739395   -1.121337    0.940721
     13          6           0       -1.161041   -2.519803    0.722562
     14          1           0       -3.731135   -1.595536    0.267259
     15          1           0       -2.677062   -0.963418   -0.993882
     16          1           0       -2.023707   -0.998992    1.993724
     17          1           0       -0.969809   -0.366616    0.733962
     18          1           0       -0.850131   -2.649918   -0.319075
     19          1           0       -1.910016   -3.285887    0.947845
     20          1           0       -0.290410   -2.698320    1.361306
     21          6           0        3.397426   -0.601860   -0.235228
     22          6           0        2.146614   -1.437726   -0.508692
     23          6           0        2.451319   -2.929568   -0.647827
     24          1           0        4.118805   -0.755843   -1.049382
     25          1           0        3.879644   -0.965714    0.682634
     26          1           0        1.666135   -1.071508   -1.425012
     27          1           0        1.428050   -1.281588    0.306111
     28          1           0        2.909851   -3.316162    0.268085
     29          1           0        3.149289   -3.104889   -1.472873
     30          1           0        1.543124   -3.508326   -0.842967
     31          6           0        3.109009    0.891627   -0.093654
     32          6           0        4.359821    1.727492    0.179809
     33          6           0        4.055116    3.219334    0.318944
     34          1           0        2.626792    1.255480   -1.011516
     35          1           0        2.387630    1.045609    0.720500
     36          1           0        5.078385    1.571353   -0.634993
     37          1           0        4.840299    1.361274    1.096128
     38          1           0        3.357146    3.394656    1.143990
     39          1           0        3.596584    3.605928   -0.596967
     40          1           0        4.963311    3.798092    0.514085
 ---------------------------------------------------------------------

 SCF Done:  E(RHF) =  -470.732223409     A.U. after   11 cycles
 E2 =    -0.1583920468D+01 EUMP2 =    -0.47231614387717D+03

 The electronic state is 1-A.
 Alpha  occ. eigenvalues --  -11.21603 -11.21599 -11.21595 -11.21507 -11.21403
 Alpha  occ. eigenvalues --  -11.21395 -11.21343 -11.21325 -11.21075 -11.21069
 Alpha  occ. eigenvalues --  -11.21039 -11.20994  -1.08456  -1.08386  -1.03610
 Alpha  occ. eigenvalues --   -1.03430  -0.96066  -0.95876  -0.87025  -0.86947
 Alpha  occ. eigenvalues --   -0.79596  -0.79575  -0.78265  -0.78211  -0.65155
 Alpha  occ. eigenvalues --   -0.64976  -0.61166  -0.60799  -0.59486  -0.59156
 Alpha  occ. eigenvalues --   -0.57641  -0.57543  -0.55318  -0.55129  -0.52775
 Alpha  occ. eigenvalues --   -0.52566  -0.52461  -0.52289  -0.49908  -0.49871
 Alpha  occ. eigenvalues --   -0.47922  -0.47880  -0.46649  -0.46557  -0.45872
 Alpha  occ. eigenvalues --   -0.45759  -0.45716  -0.45546  -0.43793  -0.43740
 Alpha virt. eigenvalues --    0.21362   0.23133   0.23491   0.24835   0.25857
 Alpha virt. eigenvalues --    0.26325   0.26835   0.27401   0.28442   0.29245
 Alpha virt. eigenvalues --    0.29510   0.31308   0.31622   0.31901   0.32539

 Mulliken charges:
               1
     1  C   -0.298437
     2  C   -0.299651
     3  C   -0.475719
     4  H    0.149555
     5  H    0.149797
     6  H    0.151901
     7  H    0.151920
     8  H    0.155243
     9  H    0.155155
    10  H    0.160234
    11  C   -0.298101
    12  C   -0.303582
    13  C   -0.479451
    14  H    0.149536
    15  H    0.149810
    16  H    0.151597
    17  H    0.154728
    18  H    0.158800
    19  H    0.155617
    20  H    0.160998
    21  C   -0.297575
    22  C   -0.306477
    23  C   -0.477904
    24  H    0.149346
    25  H    0.149170
    26  H    0.149865
    27  H    0.162169
    28  H    0.154286
    29  H    0.154583
    30  H    0.163504
    31  C   -0.298550
    32  C   -0.299549
    33  C   -0.475729
    34  H    0.149080
    35  H    0.149279
    36  H    0.152049
    37  H    0.151985
    38  H    0.155186
    39  H    0.155037
    40  H    0.160294
 Sum of Mulliken charges =  -0.00000

 Dipole moment (field-independent basis, Debye):
    X=             -0.0214    Y=             -0.0136    Z=              0.0078  Tot=              0.0265
 Quadrupole moment (field-independent basis, Debye-Ang):
   XX=            -84.8501   YY=            -86.8256   ZZ=            -83.2594
   XY=              0.8396   XZ=             -0.5051   YZ=             -0.5829

 Normal termination of Gaussian 16 at Thu May  6 02:17:05 2021.
