 Gaussian 16, Revision A.03,
 Gaussian 16:  EM64L-G16RevA.03 25-Dec-2016

 -------------
 #p 6-31g* mp2
 -------------

 ------------------------------------------------------
 Input file generated by CHIRIPA (05-May-2021 14:55:24)
 ------------------------------------------------------
 Symbolic Z-matrix:
 Charge =  0 Multiplicity = 1

                         Standard orientation:
 ---------------------------------------------------------------------
 Center     Atomic      Atomic             Coordinates (Angstroms)
 Number     Number       Type             X           Y           Z
 ---------------------------------------------------------------------
      1          6           0       -1.365481    2.683147    0.093267
      2          6           0       -1.494311    1.918509    1.257420
      3          6           0       -2.170369    0.695050    1.232108
      4          6           0       -2.707706    0.264604    0.019971
      5          6           0       -2.596002    1.003659   -1.156723
      6          6           0       -1.915768    2.224091   -1.107972
      7          1           0       -0.838681    3.632383    0.122034
      8          1           0       -1.067962    2.272528    2.191734
      9          1           0       -2.284798    0.083000    2.118516
     10          1           0       -3.031657    0.624517   -2.073169
     11          1           0       -1.817257    2.815812   -2.013624
     12          7           0       -3.425629   -1.029015   -0.019233
     13          8           0       -3.890033   -1.386087   -1.099726
     14          8           0       -3.510339   -1.661388    1.031275
     15          6           0        2.843062   -1.187294   -0.206551
     16          6           0        1.406505   -0.956716    0.263685
     17          6           0        0.475533   -2.117137   -0.089173
     18          1           0        2.845544   -1.343622   -1.293979
     19          1           0        3.224417   -2.114399    0.243382
     20          1           0        1.028449   -0.029593   -0.185908
     21          1           0        1.407464   -0.800728    1.350093
     22          1           0        0.826032   -3.046154    0.371997
     23          1           0        0.444864   -2.270639   -1.172731
     24          1           0       -0.546261   -1.931383    0.256215
     25          6           0        3.785760   -0.035893    0.138884
     26          6           0        5.222317   -0.266472   -0.331352
     27          6           0        6.153288    0.893949    0.021506
     28          1           0        3.404405    0.891211   -0.311049
     29          1           0        3.783277    0.120435    1.226313
     30          1           0        5.221358   -0.422460   -1.417760
     31          1           0        5.600373   -1.193594    0.118241
     32          1           0        6.183957    1.047451    1.105064
     33          1           0        5.802790    1.822967   -0.439665
     34          1           0        7.175082    0.708195   -0.323882
 ---------------------------------------------------------------------

 SCF Done:  E(RHF) =  -669.535647677     A.U. after   15 cycles
 E2 =    -0.2093245696D+01 EUMP2 =    -0.67162889337276D+03

 The electronic state is 1-A.
 Alpha  occ. eigenvalues --  -20.60865 -20.60858 -15.85890 -11.31233 -11.27808
 Alpha  occ. eigenvalues --  -11.27800 -11.27558 -11.26838 -11.26822 -11.21773
 Alpha  occ. eigenvalues --  -11.21574 -11.21562 -11.21416 -11.21290 -11.20829
 Alpha  occ. eigenvalues --   -1.59926  -1.39481  -1.19420  -1.08821  -1.08524
 Alpha  occ. eigenvalues --   -1.04818  -1.03580  -0.96025  -0.95654  -0.87037
 Alpha  occ. eigenvalues --   -0.86217  -0.82485  -0.79649  -0.78342  -0.77535
 Alpha  occ. eigenvalues --   -0.72116  -0.71267  -0.70526  -0.65159  -0.65074
 Alpha  occ. eigenvalues --   -0.64821  -0.62166  -0.60980  -0.59418  -0.57670
 Alpha  occ. eigenvalues --   -0.55323  -0.55316  -0.53191  -0.52910  -0.52635
 Alpha  occ. eigenvalues --   -0.52419  -0.49962  -0.48879  -0.48874  -0.47971
 Alpha  occ. eigenvalues --   -0.46689  -0.45879  -0.45802  -0.44887  -0.43824
 Alpha  occ. eigenvalues --   -0.37366  -0.36397
 Alpha virt. eigenvalues --    0.04988   0.11195   0.16470   0.21331   0.22729
 Alpha virt. eigenvalues --    0.24121   0.26472   0.27093   0.27502   0.27693
 Alpha virt. eigenvalues --    0.28349   0.30592   0.31315   0.31645   0.31782

 Mulliken charges:
               1
     1  C   -0.171459
     2  C   -0.216243
     3  C   -0.171453
     4  C    0.157726
     5  C   -0.171123
     6  C   -0.218869
     7  H    0.225991
     8  H    0.224022
     9  H    0.275778
    10  H    0.275807
    11  H    0.223657
    12  N    0.490233
    13  O   -0.458411
    14  O   -0.459760
    15  C   -0.298361
    16  C   -0.301116
    17  C   -0.478356
    18  H    0.149849
    19  H    0.150720
    20  H    0.152403
    21  H    0.147214
    22  H    0.157293
    23  H    0.155847
    24  H    0.162301
    25  C   -0.297283
    26  C   -0.299596
    27  C   -0.475513
    28  H    0.145996
    29  H    0.148064
    30  H    0.152325
    31  H    0.153198
    32  H    0.154696
    33  H    0.153373
    34  H    0.161049
 Sum of Mulliken charges =  -0.00000

 Dipole moment (field-independent basis, Debye):
    X=              2.4382    Y=              4.5470    Z=              0.1206  Tot=              5.1609
 Quadrupole moment (field-independent basis, Debye-Ang):
   XX=           -109.7739   YY=            -93.1320   ZZ=            -89.2123
   XY=            -12.6563   XZ=              0.7117   YZ=             -1.0865

 Normal termination of Gaussian 16 at Thu May  6 17:42:29 2021.
