 Gaussian 16, Revision A.03,
 Gaussian 16:  EM64L-G16RevA.03 25-Dec-2016

 -------------
 #p 6-31g* mp2
 -------------

 ------------------------------------------------------
 Input file generated by CHIRIPA (05-May-2021 14:57:24)
 ------------------------------------------------------
 Symbolic Z-matrix:
 Charge =  0 Multiplicity = 1

                         Standard orientation:
 ---------------------------------------------------------------------
 Center     Atomic      Atomic             Coordinates (Angstroms)
 Number     Number       Type             X           Y           Z
 ---------------------------------------------------------------------
      1          6           0        4.190536    0.667443   -1.941593
      2          6           0        3.562979   -0.582526   -1.925080
      3          6           0        2.872117   -1.015194   -0.789274
      4          6           0        2.828694   -0.168551    0.317343
      5          6           0        3.443798    1.082342    0.331637
      6          6           0        4.129050    1.494429   -0.815168
      7          1           0        4.725035    0.995556   -2.828187
      8          1           0        3.609080   -1.226873   -2.798428
      9          1           0        2.377331   -1.978008   -0.749361
     10          1           0        3.380460    1.702541    1.217503
     11          1           0        4.615480    2.465682   -0.825148
     12          7           0        2.100278   -0.615703    1.525592
     13          8           0        2.076698    0.148864    2.487630
     14          8           0        1.566720   -1.722282    1.487700
     15          6           0       -3.045314    2.596724    0.193639
     16          6           0       -1.990968    1.862550    0.746691
     17          6           0       -1.927279    0.475905    0.580238
     18          6           0       -2.939409   -0.147017   -0.148357
     19          6           0       -4.002751    0.556815   -0.711578
     20          6           0       -4.046076    1.942666   -0.532450
     21          1           0       -3.086879    3.673595    0.327867
     22          1           0       -1.212373    2.367843    1.311060
     23          1           0       -1.122397   -0.116860    0.997626
     24          1           0       -4.764230    0.025111   -1.269126
     25          1           0       -4.866085    2.510278   -0.963086
     26          7           0       -2.882764   -1.614576   -0.331282
     27          8           0       -3.786833   -2.139730   -0.977433
     28          8           0       -1.935369   -2.211906    0.174956
 ---------------------------------------------------------------------

 SCF Done:  E(RHF) =  -868.337988029     A.U. after   16 cycles
 E2 =    -0.2599989223D+01 EUMP2 =    -0.87093797725197D+03

 The electronic state is 1-A.
 Alpha  occ. eigenvalues --  -20.61087 -20.60965 -20.60190 -20.60138 -15.86044
 Alpha  occ. eigenvalues --  -15.85217 -11.31343 -11.30657 -11.27960 -11.27831
 Alpha  occ. eigenvalues --  -11.27643 -11.27288 -11.27141 -11.27040 -11.26937
 Alpha  occ. eigenvalues --  -11.26853 -11.26329 -11.26230  -1.60116  -1.59254
 Alpha  occ. eigenvalues --   -1.39653  -1.38796  -1.19516  -1.18849  -1.08930
 Alpha  occ. eigenvalues --   -1.08243  -1.04897  -1.04252  -0.95766  -0.95055
 Alpha  occ. eigenvalues --   -0.86299  -0.85650  -0.82585  -0.81869  -0.77646
 Alpha  occ. eigenvalues --   -0.76896  -0.72236  -0.71532  -0.71364  -0.70612
 Alpha  occ. eigenvalues --   -0.70590  -0.69947  -0.65159  -0.64893  -0.64494
 Alpha  occ. eigenvalues --   -0.64251  -0.62233  -0.61572  -0.55405  -0.54780
 Alpha  occ. eigenvalues --   -0.53246  -0.52979  -0.52601  -0.52334  -0.49035
 Alpha  occ. eigenvalues --   -0.49003  -0.48220  -0.48171  -0.45046  -0.44186
 Alpha  occ. eigenvalues --   -0.37506  -0.36864  -0.36499  -0.35865
 Alpha virt. eigenvalues --    0.04833   0.05611   0.11149   0.11781   0.16330
 Alpha virt. eigenvalues --    0.17079   0.21290   0.21904   0.27237   0.27598
 Alpha virt. eigenvalues --    0.28276   0.28723   0.30931   0.31383   0.32406

 Mulliken charges:
               1
     1  C   -0.170432
     2  C   -0.218870
     3  C   -0.170267
     4  C    0.155017
     5  C   -0.173094
     6  C   -0.218854
     7  H    0.226175
     8  H    0.226092
     9  H    0.283604
    10  H    0.272832
    11  H    0.222663
    12  N    0.482692
    13  O   -0.467262
    14  O   -0.447139
    15  C   -0.171439
    16  C   -0.220653
    17  C   -0.177169
    18  C    0.156578
    19  C   -0.171704
    20  C   -0.219255
    21  H    0.223103
    22  H    0.226225
    23  H    0.288018
    24  H    0.273748
    25  H    0.220961
    26  N    0.486032
    27  O   -0.465356
    28  O   -0.452247
 Sum of Mulliken charges =  -0.00000

 Dipole moment (field-independent basis, Debye):
    X=              2.5812    Y=              6.4838    Z=             -3.6159  Tot=              7.8598
 Quadrupole moment (field-independent basis, Debye-Ang):
   XX=            -86.8748   YY=           -103.8958   ZZ=           -106.4572
   XY=            -10.4619   XZ=            -10.6871   YZ=              2.4038

 Normal termination of Gaussian 16 at Thu May  6 12:59:35 2021.
