 Gaussian 16, Revision A.03,
 Gaussian 16:  EM64L-G16RevA.03 25-Dec-2016

 -------------
 #p 6-31g* mp2
 -------------

 ------------------------------------------------------
 Input file generated by CHIRIPA (05-May-2021 14:51:09)
 ------------------------------------------------------
 Symbolic Z-matrix:
 Charge =  0 Multiplicity = 1

                         Standard orientation:
 ---------------------------------------------------------------------
 Center     Atomic      Atomic             Coordinates (Angstroms)
 Number     Number       Type             X           Y           Z
 ---------------------------------------------------------------------
      1          6           0        4.837626   -0.397131    0.322981
      2          6           0        5.937095   -1.082268   -0.489263
      3          6           0        6.822997   -1.990941    0.363546
      4          1           0        5.298054    0.189515    1.129701
      5          1           0        4.218185   -1.163931    0.808476
      6          1           0        6.553436   -0.314429   -0.974197
      7          1           0        5.474004   -1.667198   -1.294260
      8          1           0        6.226073   -2.777805    0.835909
      9          1           0        7.311638   -1.417350    1.157790
     10          1           0        7.602148   -2.470550   -0.237087
     11          6           0        3.943693    0.514603   -0.515680
     12          6           0        2.844224    1.199740    0.296564
     13          6           0        1.958321    2.108413   -0.556245
     14          1           0        4.563134    1.281403   -1.001175
     15          1           0        3.483264   -0.072044   -1.322400
     16          1           0        3.307314    1.784670    1.101561
     17          1           0        2.227882    0.431900    0.781498
     18          1           0        1.469680    1.534821   -1.350490
     19          1           0        2.555246    2.895277   -1.028608
     20          1           0        1.179171    2.588022    0.044388
     21          6           0       -5.034941   -0.356200    0.378925
     22          6           0       -5.996444   -0.855613   -0.700002
     23          6           0       -7.280761   -1.447928   -0.119067
     24          1           0       -4.785184   -1.187828    1.051949
     25          1           0       -5.543975    0.400187    0.992241
     26          1           0       -5.485296   -1.609830   -1.311965
     27          1           0       -6.243791   -0.022745   -1.370649
     28          1           0       -7.815399   -0.700037    0.475427
     29          1           0       -7.052596   -2.296141    0.534443
     30          1           0       -7.953681   -1.798689   -0.907741
     31          6           0       -3.746378    0.238728   -0.186226
     32          6           0       -2.784874    0.738141    0.892702
     33          6           0       -1.500557    1.330456    0.311766
     34          1           0       -3.237343   -0.517659   -0.799542
     35          1           0       -3.996135    1.070356   -0.859249
     36          1           0       -2.537529   -0.094727    1.563348
     37          1           0       -3.296023    1.492359    1.504664
     38          1           0       -1.728723    2.178670   -0.341745
     39          1           0       -0.965919    0.582565   -0.282727
     40          1           0       -0.827639    1.681217    1.100441
 ---------------------------------------------------------------------

 SCF Done:  E(RHF) =  -470.732617415     A.U. after   11 cycles
 E2 =    -0.1582720051D+01 EUMP2 =    -0.47231533746610D+03

 The electronic state is 1-A.
 Alpha  occ. eigenvalues --  -11.21602 -11.21578 -11.21574 -11.21522 -11.21403
 Alpha  occ. eigenvalues --  -11.21364 -11.21343 -11.21302 -11.21072 -11.21055
 Alpha  occ. eigenvalues --  -11.21040 -11.20881  -1.08429  -1.08378  -1.03551
 Alpha  occ. eigenvalues --   -1.03443  -0.96053  -0.95842  -0.87114  -0.86815
 Alpha  occ. eigenvalues --   -0.79655  -0.79468  -0.78240  -0.78195  -0.65068
 Alpha  occ. eigenvalues --   -0.65003  -0.60982  -0.60815  -0.59596  -0.59096
 Alpha  occ. eigenvalues --   -0.57659  -0.57447  -0.55357  -0.55120  -0.53008
 Alpha  occ. eigenvalues --   -0.52496  -0.52329  -0.52135  -0.49973  -0.49788
 Alpha  occ. eigenvalues --   -0.47926  -0.47821  -0.46626  -0.46556  -0.45784
 Alpha  occ. eigenvalues --   -0.45735  -0.45699  -0.45660  -0.43927  -0.43536
 Alpha virt. eigenvalues --    0.21907   0.23020   0.23507   0.24958   0.26435
 Alpha virt. eigenvalues --    0.26662   0.27121   0.27315   0.27662   0.29239
 Alpha virt. eigenvalues --    0.29454   0.31312   0.31477   0.32061   0.32223

 Mulliken charges:
               1
     1  C   -0.298191
     2  C   -0.299596
     3  C   -0.475664
     4  H    0.149551
     5  H    0.149260
     6  H    0.151916
     7  H    0.151807
     8  H    0.155071
     9  H    0.155148
    10  H    0.160159
    11  C   -0.298093
    12  C   -0.301216
    13  C   -0.477105
    14  H    0.149522
    15  H    0.149279
    16  H    0.151247
    17  H    0.152215
    18  H    0.154986
    19  H    0.153358
    20  H    0.165830
    21  C   -0.298225
    22  C   -0.299602
    23  C   -0.475693
    24  H    0.149568
    25  H    0.149549
    26  H    0.151841
    27  H    0.151962
    28  H    0.155197
    29  H    0.155147
    30  H    0.160246
    31  C   -0.298492
    32  C   -0.301004
    33  C   -0.474934
    34  H    0.149214
    35  H    0.149688
    36  H    0.151576
    37  H    0.151669
    38  H    0.155440
    39  H    0.156649
    40  H    0.160718
 Sum of Mulliken charges =  -0.00000

 Dipole moment (field-independent basis, Debye):
    X=             -0.0285    Y=              0.0159    Z=             -0.0012  Tot=              0.0327
 Quadrupole moment (field-independent basis, Debye-Ang):
   XX=            -85.9331   YY=            -83.9854   ZZ=            -85.1051
   XY=              0.0980   XZ=              0.0857   YZ=              0.5940

 Normal termination of Gaussian 16 at Thu May  6 02:09:38 2021.
