 Gaussian 16, Revision A.03,
 Gaussian 16:  EM64L-G16RevA.03 25-Dec-2016

 -------------
 #p 6-31g* mp2
 -------------

 ------------------------------------------------------
 Input file generated by CHIRIPA (05-May-2021 14:57:22)
 ------------------------------------------------------
 Symbolic Z-matrix:
 Charge =  0 Multiplicity = 1

                         Standard orientation:
 ---------------------------------------------------------------------
 Center     Atomic      Atomic             Coordinates (Angstroms)
 Number     Number       Type             X           Y           Z
 ---------------------------------------------------------------------
      1          6           0       -1.964349    0.923155    0.220727
      2          6           0       -2.118247   -0.415110   -0.155947
      3          6           0       -3.393308   -0.970774   -0.297386
      4          6           0       -4.497572   -0.155753   -0.053188
      5          6           0       -4.376880    1.180981    0.323463
      6          6           0       -3.092168    1.715533    0.458810
      7          1           0       -0.970103    1.346608    0.328234
      8          1           0       -1.244164   -1.032844   -0.341492
      9          1           0       -3.541252   -2.003825   -0.587793
     10          1           0       -5.267127    1.771863    0.501612
     11          1           0       -2.975668    2.755160    0.751466
     12          7           0       -5.852530   -0.732834   -0.199698
     13          8           0       -6.809417    0.006228    0.021191
     14          8           0       -5.932003   -1.913285   -0.532649
     15          6           0        2.285849    1.611002    0.121441
     16          6           0        2.305774    0.450815    0.902523
     17          6           0        3.402253   -0.415451    0.859320
     18          6           0        4.466491   -0.089240    0.020108
     19          6           0        4.476265    1.059133   -0.770103
     20          6           0        3.369248    1.910929   -0.710912
     21          1           0        1.429985    2.278318    0.161212
     22          1           0        1.465796    0.215354    1.549857
     23          1           0        3.443820   -1.320291    1.453419
     24          1           0        5.328390    1.267162   -1.405731
     25          1           0        3.356514    2.811247   -1.318621
     26          7           0        5.632862   -0.998658   -0.034092
     27          8           0        6.557966   -0.688734   -0.781598
     28          8           0        5.599874   -2.004163    0.671959
 ---------------------------------------------------------------------

 SCF Done:  E(RHF) =  -868.336344946     A.U. after   16 cycles
 E2 =    -0.2600213558D+01 EUMP2 =    -0.87093655850414D+03

 The electronic state is 1-A.
 Alpha  occ. eigenvalues --  -20.61439 -20.61433 -20.61264 -20.61259 -15.86499
 Alpha  occ. eigenvalues --  -15.86321 -11.32059 -11.31843 -11.28664 -11.28614
 Alpha  occ. eigenvalues --  -11.28557 -11.28413 -11.28398 -11.28334 -11.27802
 Alpha  occ. eigenvalues --  -11.27698 -11.27527 -11.27501  -1.60510  -1.60335
 Alpha  occ. eigenvalues --   -1.40058  -1.39884  -1.20265  -1.20038  -1.09656
 Alpha  occ. eigenvalues --   -1.09435  -1.05688  -1.05451  -0.96457  -0.96236
 Alpha  occ. eigenvalues --   -0.87098  -0.86857  -0.83270  -0.83054  -0.78254
 Alpha  occ. eigenvalues --   -0.78048  -0.72716  -0.72538  -0.71835  -0.71659
 Alpha  occ. eigenvalues --   -0.71630  -0.71070  -0.65931  -0.65746  -0.65685
 Alpha  occ. eigenvalues --   -0.65438  -0.63020  -0.62780  -0.56471  -0.55887
 Alpha  occ. eigenvalues --   -0.54009  -0.53815  -0.53757  -0.53550  -0.49490
 Alpha  occ. eigenvalues --   -0.49455  -0.49310  -0.49282  -0.45419  -0.45254
 Alpha  occ. eigenvalues --   -0.38298  -0.38076  -0.37281  -0.37041
 Alpha virt. eigenvalues --    0.04255   0.04465   0.10274   0.10589   0.15633
 Alpha virt. eigenvalues --    0.15891   0.17701   0.22052   0.24850   0.25713
 Alpha virt. eigenvalues --    0.27138   0.29350   0.29668   0.31011   0.32295

 Mulliken charges:
               1
     1  C   -0.174601
     2  C   -0.220831
     3  C   -0.169835
     4  C    0.159487
     5  C   -0.169995
     6  C   -0.219084
     7  H    0.217888
     8  H    0.225573
     9  H    0.278375
    10  H    0.277624
    11  H    0.223272
    12  N    0.487819
    13  O   -0.458802
    14  O   -0.458218
    15  C   -0.174432
    16  C   -0.223035
    17  C   -0.170040
    18  C    0.159572
    19  C   -0.169668
    20  C   -0.217236
    21  H    0.219434
    22  H    0.221365
    23  H    0.278287
    24  H    0.278813
    25  H    0.226430
    26  N    0.487884
    27  O   -0.457718
    28  O   -0.458327
 Sum of Mulliken charges =  -0.00000

 Dipole moment (field-independent basis, Debye):
    X=              0.7491    Y=              5.1166    Z=              0.6259  Tot=              5.2088
 Quadrupole moment (field-independent basis, Debye-Ang):
   XX=           -181.4237   YY=           -100.8229   ZZ=           -103.5881
   XY=              4.4047   XZ=             -4.2045   YZ=             -1.2900

 Normal termination of Gaussian 16 at Wed May  5 19:18:52 2021.
