 Gaussian 16, Revision A.03,
 Gaussian 16:  EM64L-G16RevA.03 25-Dec-2016

 -------------
 #p 6-31g* mp2
 -------------

 ------------------------------------------------------
 Input file generated by CHIRIPA (05-May-2021 14:55:22)
 ------------------------------------------------------
 Symbolic Z-matrix:
 Charge =  0 Multiplicity = 1

                         Standard orientation:
 ---------------------------------------------------------------------
 Center     Atomic      Atomic             Coordinates (Angstroms)
 Number     Number       Type             X           Y           Z
 ---------------------------------------------------------------------
      1          6           0        3.352234    0.109760   -1.872965
      2          6           0        2.852683    1.270928   -1.274083
      3          6           0        2.145300    1.200990   -0.070228
      4          6           0        1.955006   -0.052241    0.509848
      5          6           0        2.440351   -1.227136   -0.062299
      6          6           0        3.144839   -1.133374   -1.266232
      7          1           0        3.900621    0.173343   -2.808179
      8          1           0        3.012238    2.237718   -1.743021
      9          1           0        1.747650    2.084049    0.415054
     10          1           0        2.265375   -2.176588    0.428967
     11          1           0        3.531652   -2.036817   -1.729063
     12          7           0        1.207664   -0.138892    1.784357
     13          8           0        1.053459   -1.255058    2.275306
     14          8           0        0.790253    0.910998    2.268233
     15          6           0       -2.994445    0.733287   -0.330705
     16          6           0       -1.999923    1.894674   -0.321176
     17          6           0       -2.684040    3.257917   -0.214645
     18          1           0       -3.690959    0.862219   -1.170461
     19          1           0       -3.599521    0.770306    0.585760
     20          1           0       -1.395968    1.854667   -1.236737
     21          1           0       -1.305578    1.762861    0.518542
     22          1           0       -3.272279    3.322817    0.706423
     23          1           0       -3.363182    3.415144   -1.058828
     24          1           0       -1.954597    4.073849   -0.209533
     25          6           0       -2.325689   -0.636108   -0.436768
     26          6           0       -3.320211   -1.797496   -0.446297
     27          6           0       -2.636094   -3.160738   -0.552828
     28          1           0       -1.720613   -0.673128   -1.353233
     29          1           0       -1.629175   -0.765041    0.402989
     30          1           0       -4.014557   -1.665682   -1.286015
     31          1           0       -3.924166   -1.757488    0.469264
     32          1           0       -1.956952   -3.317966    0.291357
     33          1           0       -2.047856   -3.225639   -1.473896
     34          1           0       -3.365537   -3.976671   -0.557940
 ---------------------------------------------------------------------

 SCF Done:  E(RHF) =  -669.536707167     A.U. after   15 cycles
 E2 =    -0.2093026558D+01 EUMP2 =    -0.67162973372483D+03

 The electronic state is 1-A.
 Alpha  occ. eigenvalues --  -20.61013 -20.61003 -15.86008 -11.31249 -11.27816
 Alpha  occ. eigenvalues --  -11.27809 -11.27551 -11.26810 -11.26800 -11.21194
 Alpha  occ. eigenvalues --  -11.21069 -11.20960 -11.20891 -11.20708 -11.20701
 Alpha  occ. eigenvalues --   -1.60056  -1.39615  -1.19419  -1.08842  -1.07983
 Alpha  occ. eigenvalues --   -1.04807  -1.03106  -0.95697  -0.95574  -0.86592
 Alpha  occ. eigenvalues --   -0.86212  -0.82535  -0.79182  -0.77851  -0.77569
 Alpha  occ. eigenvalues --   -0.72241  -0.71359  -0.70536  -0.65083  -0.64816
 Alpha  occ. eigenvalues --   -0.64581  -0.62159  -0.60486  -0.58951  -0.57197
 Alpha  occ. eigenvalues --   -0.55324  -0.54849  -0.53140  -0.52902  -0.52281
 Alpha  occ. eigenvalues --   -0.52012  -0.49515  -0.49017  -0.48991  -0.47524
 Alpha  occ. eigenvalues --   -0.46259  -0.45395  -0.45295  -0.44784  -0.43365
 Alpha  occ. eigenvalues --   -0.37389  -0.36392
 Alpha virt. eigenvalues --    0.04892   0.11218   0.16359   0.21253   0.23314
 Alpha virt. eigenvalues --    0.24589   0.26613   0.27171   0.27548   0.28038
 Alpha virt. eigenvalues --    0.28854   0.30896   0.31418   0.31923   0.32305

 Mulliken charges:
               1
     1  C   -0.170378
     2  C   -0.219416
     3  C   -0.168771
     4  C    0.158609
     5  C   -0.170260
     6  C   -0.218848
     7  H    0.225827
     8  H    0.223774
     9  H    0.276249
    10  H    0.275718
    11  H    0.223702
    12  N    0.488854
    13  O   -0.458935
    14  O   -0.458925
    15  C   -0.296448
    16  C   -0.313402
    17  C   -0.474027
    18  H    0.146263
    19  H    0.153130
    20  H    0.143814
    21  H    0.170161
    22  H    0.158487
    23  H    0.152185
    24  H    0.155483
    25  C   -0.302760
    26  C   -0.298548
    27  C   -0.477568
    28  H    0.144749
    29  H    0.156345
    30  H    0.149395
    31  H    0.154829
    32  H    0.161651
    33  H    0.150111
    34  H    0.158949
 Sum of Mulliken charges =  -0.00000

 Dipole moment (field-independent basis, Debye):
    X=              2.7492    Y=              0.2522    Z=             -4.3035  Tot=              5.1129
 Quadrupole moment (field-independent basis, Debye-Ang):
   XX=            -85.2785   YY=            -91.2930   ZZ=            -99.0909
   XY=              0.2042   XZ=             -8.0321   YZ=              0.2642

 Normal termination of Gaussian 16 at Thu May  6 15:55:53 2021.
