 Gaussian 16, Revision A.03,
 Gaussian 16:  EM64L-G16RevA.03 25-Dec-2016

 -------------
 #p 6-31g* mp2
 -------------

 ------------------------------------------------------
 Input file generated by CHIRIPA (05-May-2021 14:55:20)
 ------------------------------------------------------
 Symbolic Z-matrix:
 Charge =  0 Multiplicity = 1

                         Standard orientation:
 ---------------------------------------------------------------------
 Center     Atomic      Atomic             Coordinates (Angstroms)
 Number     Number       Type             X           Y           Z
 ---------------------------------------------------------------------
      1          6           0        1.498078    2.859667   -0.057761
      2          6           0        1.316420    2.132932    1.123499
      3          6           0        1.802392    0.826851    1.235445
      4          6           0        2.468318    0.276033    0.141629
      5          6           0        2.665077    0.974547   -1.048603
      6          6           0        2.170641    2.279179   -1.138138
      7          1           0        1.117275    3.873700   -0.136019
      8          1           0        0.794484    2.581200    1.964144
      9          1           0        1.675674    0.241692    2.138191
     10          1           0        3.189429    0.500855   -1.869632
     11          1           0        2.313176    2.841208   -2.056752
     12          7           0        2.987275   -1.105889    0.248278
     13          8           0        3.570528   -1.568503   -0.729699
     14          8           0        2.800954   -1.700259    1.307828
     15          6           0       -2.546459   -1.162901    0.089280
     16          6           0       -1.330609   -1.313325   -0.825632
     17          6           0       -0.332372   -2.353331   -0.316019
     18          1           0       -2.207253   -0.884898    1.096554
     19          1           0       -3.046838   -2.136423    0.185563
     20          1           0       -0.833471   -0.339506   -0.921268
     21          1           0       -1.672762   -1.590815   -1.830891
     22          1           0       -0.806971   -3.336797   -0.237585
     23          1           0        0.037091   -2.078379    0.677208
     24          1           0        0.528945   -2.444675   -0.985085
     25          6           0       -3.553476   -0.126804   -0.406854
     26          6           0       -4.769327    0.023621    0.508059
     27          6           0       -5.767563    1.063628   -0.001554
     28          1           0       -3.053097    0.846720   -0.503136
     29          1           0       -3.892683   -0.404806   -1.414127
     30          1           0       -4.427172    0.301111    1.513317
     31          1           0       -5.266465   -0.950197    0.603694
     32          1           0       -6.137025    0.788675   -0.994781
     33          1           0       -5.292965    2.047093   -0.079988
     34          1           0       -6.628881    1.154972    0.667511
 ---------------------------------------------------------------------

 SCF Done:  E(RHF) =  -669.535853991     A.U. after   15 cycles
 E2 =    -0.2093646475D+01 EUMP2 =    -0.67162950046621D+03

 The electronic state is 1-A.
 Alpha  occ. eigenvalues --  -20.60894 -20.60882 -15.85894 -11.31268 -11.27843
 Alpha  occ. eigenvalues --  -11.27834 -11.27583 -11.26864 -11.26851 -11.21709
 Alpha  occ. eigenvalues --  -11.21437 -11.21339 -11.21271 -11.21233 -11.20465
 Alpha  occ. eigenvalues --   -1.59935  -1.39496  -1.19445  -1.08839  -1.08383
 Alpha  occ. eigenvalues --   -1.04849  -1.03423  -0.95862  -0.95675  -0.86872
 Alpha  occ. eigenvalues --   -0.86246  -0.82512  -0.79500  -0.78191  -0.77558
 Alpha  occ. eigenvalues --   -0.72139  -0.71270  -0.70553  -0.65106  -0.65021
 Alpha  occ. eigenvalues --   -0.64851  -0.62199  -0.60829  -0.59243  -0.57469
 Alpha  occ. eigenvalues --   -0.55354  -0.55160  -0.53158  -0.52940  -0.52513
 Alpha  occ. eigenvalues --   -0.52277  -0.49822  -0.48899  -0.48893  -0.47810
 Alpha  occ. eigenvalues --   -0.46572  -0.45754  -0.45664  -0.44742  -0.43673
 Alpha  occ. eigenvalues --   -0.37409  -0.36446
 Alpha virt. eigenvalues --    0.04938   0.11148   0.16423   0.21257   0.22799
 Alpha virt. eigenvalues --    0.24237   0.26518   0.27119   0.27555   0.27793
 Alpha virt. eigenvalues --    0.28512   0.30766   0.31388   0.31663   0.32020

 Mulliken charges:
               1
     1  C   -0.171080
     2  C   -0.218743
     3  C   -0.172467
     4  C    0.161226
     5  C   -0.171670
     6  C   -0.218317
     7  H    0.226013
     8  H    0.223747
     9  H    0.275433
    10  H    0.275971
    11  H    0.223992
    12  N    0.490561
    13  O   -0.459491
    14  O   -0.457889
    15  C   -0.296708
    16  C   -0.302366
    17  C   -0.486784
    18  H    0.146173
    19  H    0.150949
    20  H    0.150028
    21  H    0.150556
    22  H    0.156567
    23  H    0.162317
    24  H    0.165983
    25  C   -0.297474
    26  C   -0.299270
    27  C   -0.475278
    28  H    0.145808
    29  H    0.150079
    30  H    0.149989
    31  H    0.153411
    32  H    0.155821
    33  H    0.152573
    34  H    0.160339
 Sum of Mulliken charges =  -0.00000

 Dipole moment (field-independent basis, Debye):
    X=             -1.6799    Y=              4.8116    Z=             -0.3622  Tot=              5.1093
 Quadrupole moment (field-independent basis, Debye-Ang):
   XX=           -104.4276   YY=            -92.4198   ZZ=            -90.4070
   XY=             12.6928   XZ=             -3.0611   YZ=              0.7494

 Normal termination of Gaussian 16 at Thu May  6 01:22:00 2021.
