 Gaussian 16, Revision A.03,
 Gaussian 16:  EM64L-G16RevA.03 25-Dec-2016

 -------------
 #p 6-31g* mp2
 -------------

 ------------------------------------------------------
 Input file generated by CHIRIPA (05-May-2021 14:57:22)
 ------------------------------------------------------
 Symbolic Z-matrix:
 Charge =  0 Multiplicity = 1

                         Standard orientation:
 ---------------------------------------------------------------------
 Center     Atomic      Atomic             Coordinates (Angstroms)
 Number     Number       Type             X           Y           Z
 ---------------------------------------------------------------------
      1          6           0       -2.244705    1.668856    0.458900
      2          6           0       -2.139550    0.336163    0.870472
      3          6           0       -3.160876   -0.576325    0.589750
      4          6           0       -4.278324   -0.119929   -0.107604
      5          6           0       -4.412403    1.201446   -0.531021
      6          6           0       -3.378797    2.096490   -0.239302
      7          1           0       -1.446544    2.370924    0.681243
      8          1           0       -1.259953    0.001251    1.412864
      9          1           0       -3.105331   -1.613718    0.896588
     10          1           0       -5.301387    1.505740   -1.070030
     11          1           0       -3.463172    3.130884   -0.560169
     12          7           0       -5.366057   -1.076706   -0.410613
     13          8           0       -6.340266   -0.649662   -1.026396
     14          8           0       -5.223818   -2.235556   -0.026591
     15          6           0        1.973672    0.766107    1.154240
     16          6           0        2.492405   -0.493362    1.472317
     17          6           0        3.669343   -0.949044    0.870887
     18          6           0        4.304528   -0.115474   -0.048348
     19          6           0        3.812611    1.144390   -0.386064
     20          6           0        2.634267    1.579530    0.227698
     21          1           0        1.058852    1.112113    1.626236
     22          1           0        1.981504   -1.127217    2.191520
     23          1           0        4.092908   -1.919652    1.098771
     24          1           0        4.344301    1.753699   -1.106805
     25          1           0        2.233716    2.558116   -0.021250
     26          7           0        5.551244   -0.587011   -0.691584
     27          8           0        6.091931    0.166402   -1.498221
     28          8           0        5.964126   -1.701085   -0.376934
 ---------------------------------------------------------------------

 SCF Done:  E(RHF) =  -868.335865352     A.U. after   16 cycles
 E2 =    -0.2600303552D+01 EUMP2 =    -0.87093616890331D+03

 The electronic state is 1-A.
 Alpha  occ. eigenvalues --  -20.61320 -20.61315 -20.61300 -20.61294 -15.86380
 Alpha  occ. eigenvalues --  -15.86360 -11.31932 -11.31882 -11.28511 -11.28503
 Alpha  occ. eigenvalues --  -11.28499 -11.28458 -11.28445 -11.28367 -11.27647
 Alpha  occ. eigenvalues --  -11.27645 -11.27634 -11.27522  -1.60391  -1.60371
 Alpha  occ. eigenvalues --   -1.39939  -1.39920  -1.20138  -1.20088  -1.09545
 Alpha  occ. eigenvalues --   -1.09471  -1.05560  -1.05518  -0.96346  -0.96267
 Alpha  occ. eigenvalues --   -0.86977  -0.86931  -0.83150  -0.83106  -0.78138
 Alpha  occ. eigenvalues --   -0.78102  -0.72597  -0.72579  -0.71714  -0.71695
 Alpha  occ. eigenvalues --   -0.71471  -0.71152  -0.65812  -0.65764  -0.65670
 Alpha  occ. eigenvalues --   -0.65473  -0.62907  -0.62858  -0.56196  -0.56097
 Alpha  occ. eigenvalues --   -0.53910  -0.53817  -0.53671  -0.53605  -0.49374
 Alpha  occ. eigenvalues --   -0.49348  -0.49337  -0.49319  -0.45302  -0.45290
 Alpha  occ. eigenvalues --   -0.38232  -0.38047  -0.37143  -0.37099
 Alpha virt. eigenvalues --    0.04367   0.04445   0.10458   0.10535   0.15699
 Alpha virt. eigenvalues --    0.15876   0.17408   0.22258   0.24567   0.25080
 Alpha virt. eigenvalues --    0.27603   0.29448   0.29733   0.30566   0.32970

 Mulliken charges:
               1
     1  C   -0.170350
     2  C   -0.216506
     3  C   -0.169715
     4  C    0.159514
     5  C   -0.169748
     6  C   -0.217734
     7  H    0.217119
     8  H    0.214809
     9  H    0.277167
    10  H    0.278199
    11  H    0.225260
    12  N    0.487940
    13  O   -0.458217
    14  O   -0.458863
    15  C   -0.172638
    16  C   -0.218600
    17  C   -0.169306
    18  C    0.159784
    19  C   -0.169626
    20  C   -0.217031
    21  H    0.216298
    22  H    0.222829
    23  H    0.278641
    24  H    0.278041
    25  H    0.221197
    26  N    0.487913
    27  O   -0.458416
    28  O   -0.457963
 Sum of Mulliken charges =  -0.00000

 Dipole moment (field-independent basis, Debye):
    X=             -0.5232    Y=              4.9283    Z=              3.1685  Tot=              5.8823
 Quadrupole moment (field-independent basis, Debye-Ang):
   XX=           -173.1498   YY=           -100.0832   ZZ=           -104.2994
   XY=             -9.2696   XZ=              6.2582   YZ=             -5.5734

 Normal termination of Gaussian 16 at Thu May  6 11:16:11 2021.
