 Gaussian 16, Revision A.03,
 Gaussian 16:  EM64L-G16RevA.03 25-Dec-2016

 -------------
 #p 6-31g* mp2
 -------------

 ------------------------------------------------------
 Input file generated by CHIRIPA (05-May-2021 14:55:20)
 ------------------------------------------------------
 Symbolic Z-matrix:
 Charge =  0 Multiplicity = 1

                         Standard orientation:
 ---------------------------------------------------------------------
 Center     Atomic      Atomic             Coordinates (Angstroms)
 Number     Number       Type             X           Y           Z
 ---------------------------------------------------------------------
      1          6           0       -1.810371    2.083550    1.069190
      2          6           0       -2.425608    2.046410   -0.186448
      3          6           0       -3.040778    0.876293   -0.641355
      4          6           0       -3.021895   -0.243227    0.189072
      5          6           0       -2.417172   -0.237620    1.445085
      6          6           0       -1.808121    0.943427    1.879520
      7          1           0       -1.334869    2.996770    1.414621
      8          1           0       -2.428895    2.930326   -0.817895
      9          1           0       -3.524356    0.819837   -1.609024
     10          1           0       -2.430113   -1.134748    2.052055
     11          1           0       -1.331083    0.969366    2.855126
     12          7           0       -3.669909   -1.487763   -0.281682
     13          8           0       -3.639581   -2.460557    0.468910
     14          8           0       -4.195880   -1.466870   -1.392337
     15          6           0        3.185016    0.114652   -0.871081
     16          6           0        2.049048    1.050879   -0.457507
     17          6           0        0.963809    1.172326   -1.527694
     18          1           0        3.630071    0.479553   -1.806878
     19          1           0        2.770621   -0.879455   -1.088850
     20          1           0        2.465647    2.042556   -0.239246
     21          1           0        1.606770    0.683813    0.477517
     22          1           0        0.520982    0.193857   -1.740067
     23          1           0        1.384738    1.560319   -2.460903
     24          1           0        0.161614    1.846302   -1.211308
     25          6           0        4.277626   -0.017083    0.188437
     26          6           0        5.413593   -0.953310   -0.225136
     27          6           0        6.498833   -1.074758    0.845051
     28          1           0        4.692022    0.977023    0.406207
     29          1           0        3.832570   -0.381985    1.124235
     30          1           0        5.855871   -0.586244   -1.160160
     31          1           0        4.996995   -1.944987   -0.443396
     32          1           0        6.077903   -1.462750    1.778260
     33          1           0        6.941660   -0.096288    1.057425
     34          1           0        7.301027   -1.748734    0.528664
 ---------------------------------------------------------------------

 SCF Done:  E(RHF) =  -669.534616027     A.U. after   15 cycles
 E2 =    -0.2092937569D+01 EUMP2 =    -0.67162755359619D+03

 The electronic state is 1-A.
 Alpha  occ. eigenvalues --  -20.60814 -20.60808 -15.85867 -11.31254 -11.27827
 Alpha  occ. eigenvalues --  -11.27804 -11.27565 -11.26852 -11.26816 -11.21898
 Alpha  occ. eigenvalues --  -11.21769 -11.21627 -11.21565 -11.21234 -11.21201
 Alpha  occ. eigenvalues --   -1.59889  -1.39441  -1.19432  -1.08833  -1.08645
 Alpha  occ. eigenvalues --   -1.04840  -1.03737  -0.96182  -0.95651  -0.87206
 Alpha  occ. eigenvalues --   -0.86235  -0.82483  -0.79813  -0.78469  -0.77527
 Alpha  occ. eigenvalues --   -0.72086  -0.71212  -0.70532  -0.65280  -0.65085
 Alpha  occ. eigenvalues --   -0.64847  -0.62183  -0.61138  -0.59616  -0.57840
 Alpha  occ. eigenvalues --   -0.55480  -0.55335  -0.53515  -0.52930  -0.52688
 Alpha  occ. eigenvalues --   -0.52375  -0.50109  -0.48846  -0.48839  -0.48132
 Alpha  occ. eigenvalues --   -0.46849  -0.46009  -0.45934  -0.44843  -0.44019
 Alpha  occ. eigenvalues --   -0.37352  -0.36365
 Alpha virt. eigenvalues --    0.04997   0.11103   0.16462   0.21122   0.22693
 Alpha virt. eigenvalues --    0.24191   0.26390   0.26862   0.27219   0.27940
 Alpha virt. eigenvalues --    0.28406   0.30813   0.31188   0.31706   0.31919

 Mulliken charges:
               1
     1  C   -0.168366
     2  C   -0.220532
     3  C   -0.168160
     4  C    0.158342
     5  C   -0.171218
     6  C   -0.218175
     7  H    0.226628
     8  H    0.224491
     9  H    0.276157
    10  H    0.275793
    11  H    0.223966
    12  N    0.487953
    13  O   -0.460401
    14  O   -0.460035
    15  C   -0.298600
    16  C   -0.299738
    17  C   -0.477712
    18  H    0.150222
    19  H    0.152171
    20  H    0.147610
    21  H    0.149854
    22  H    0.158087
    23  H    0.153019
    24  H    0.159258
    25  C   -0.298038
    26  C   -0.299944
    27  C   -0.475765
    28  H    0.148248
    29  H    0.148263
    30  H    0.152397
    31  H    0.153475
    32  H    0.154910
    33  H    0.154594
    34  H    0.161246
 Sum of Mulliken charges =  -0.00000

 Dipole moment (field-independent basis, Debye):
    X=              2.2063    Y=              4.3521    Z=              1.6661  Tot=              5.1560
 Quadrupole moment (field-independent basis, Debye-Ang):
   XX=           -109.4681   YY=            -95.8367   ZZ=            -91.0004
   XY=            -14.2681   XZ=             -4.1502   YZ=             -1.9133

 Normal termination of Gaussian 16 at Thu May  6 17:28:27 2021.
