 Gaussian 16, Revision A.03,
 Gaussian 16:  EM64L-G16RevA.03 25-Dec-2016

 -------------
 #p 6-31g* mp2
 -------------

 ------------------------------------------------------
 Input file generated by CHIRIPA (05-May-2021 14:55:20)
 ------------------------------------------------------
 Symbolic Z-matrix:
 Charge =  0 Multiplicity = 1

                         Standard orientation:
 ---------------------------------------------------------------------
 Center     Atomic      Atomic             Coordinates (Angstroms)
 Number     Number       Type             X           Y           Z
 ---------------------------------------------------------------------
      1          6           0       -0.296179   -1.370686    0.589085
      2          6           0       -1.278315   -1.258437    1.578696
      3          6           0       -2.544574   -0.753665    1.268304
      4          6           0       -2.795568   -0.368845   -0.047828
      5          6           0       -1.837967   -0.468471   -1.055978
      6          6           0       -0.578642   -0.976041   -0.722781
      7          1           0        0.684789   -1.763891    0.839062
      8          1           0       -1.061765   -1.564149    2.598348
      9          1           0       -3.323375   -0.655991    2.014861
     10          1           0       -2.083491   -0.155560   -2.063560
     11          1           0        0.182163   -1.062085   -1.493377
     12          7           0       -4.132429    0.167015   -0.388497
     13          8           0       -4.328518    0.499152   -1.555490
     14          8           0       -4.958859    0.244739    0.517930
     15          6           0        3.794835    0.157102   -0.400081
     16          6           0        3.973074   -1.245949    0.181008
     17          6           0        4.973507   -2.090270   -0.608961
     18          1           0        3.463672    0.075209   -1.444384
     19          1           0        4.769208    0.664640   -0.420046
     20          1           0        2.998419   -1.750188    0.201154
     21          1           0        4.303669   -1.160705    1.224108
     22          1           0        5.958328   -1.612109   -0.618447
     23          1           0        4.645663   -2.204940   -1.647214
     24          1           0        5.085591   -3.089309   -0.176275
     25          6           0        2.797771    1.013230    0.378786
     26          6           0        2.619533    2.416282   -0.202302
     27          6           0        1.619100    3.260603    0.587666
     28          1           0        1.823399    0.505692    0.398752
     29          1           0        3.128935    1.095122    1.423090
     30          1           0        2.288939    2.331038   -1.245402
     31          1           0        3.594187    2.920520   -0.222448
     32          1           0        1.946944    3.375273    1.625919
     33          1           0        0.634279    2.782440    0.597153
     34          1           0        1.507016    4.259642    0.154980
 ---------------------------------------------------------------------

 SCF Done:  E(RHF) =  -669.534526309     A.U. after   15 cycles
 E2 =    -0.2093695787D+01 EUMP2 =    -0.67162822209664D+03

 The electronic state is 1-A.
 Alpha  occ. eigenvalues --  -20.60800 -20.60795 -15.85855 -11.31242 -11.27823
 Alpha  occ. eigenvalues --  -11.27814 -11.27524 -11.26839 -11.26811 -11.22757
 Alpha  occ. eigenvalues --  -11.22276 -11.22136 -11.22023 -11.21978 -11.21418
 Alpha  occ. eigenvalues --   -1.59875  -1.39428  -1.19427  -1.09263  -1.08808
 Alpha  occ. eigenvalues --   -1.04829  -1.04277  -0.96692  -0.95648  -0.87708
 Alpha  occ. eigenvalues --   -0.86226  -0.82480  -0.80391  -0.79055  -0.77515
 Alpha  occ. eigenvalues --   -0.72073  -0.71200  -0.70563  -0.65948  -0.65063
 Alpha  occ. eigenvalues --   -0.64783  -0.62168  -0.61692  -0.60085  -0.58309
 Alpha  occ. eigenvalues --   -0.55982  -0.55358  -0.53379  -0.53269  -0.53021
 Alpha  occ. eigenvalues --   -0.52913  -0.50644  -0.48838  -0.48826  -0.48673
 Alpha  occ. eigenvalues --   -0.47448  -0.46555  -0.46475  -0.44829  -0.44528
 Alpha  occ. eigenvalues --   -0.37319  -0.36427
 Alpha virt. eigenvalues --    0.04991   0.11127   0.16425   0.19065   0.22733
 Alpha virt. eigenvalues --    0.23686   0.25288   0.25660   0.27033   0.27999
 Alpha virt. eigenvalues --    0.29579   0.30518   0.31022   0.31241   0.32265

 Mulliken charges:
               1
     1  C   -0.175142
     2  C   -0.220851
     3  C   -0.170534
     4  C    0.158119
     5  C   -0.171190
     6  C   -0.221047
     7  H    0.236030
     8  H    0.224644
     9  H    0.275948
    10  H    0.275945
    11  H    0.224146
    12  N    0.488053
    13  O   -0.460305
    14  O   -0.460156
    15  C   -0.298738
    16  C   -0.303475
    17  C   -0.475289
    18  H    0.146999
    19  H    0.154295
    20  H    0.140339
    21  H    0.155382
    22  H    0.159625
    23  H    0.155563
    24  H    0.161821
    25  C   -0.308272
    26  C   -0.298656
    27  C   -0.477158
    28  H    0.153563
    29  H    0.149798
    30  H    0.150794
    31  H    0.153307
    32  H    0.154956
    33  H    0.158612
    34  H    0.162873
 Sum of Mulliken charges =  -0.00000

 Dipole moment (field-independent basis, Debye):
    X=              4.7814    Y=             -1.8290    Z=              1.2248  Tot=              5.2638
 Quadrupole moment (field-independent basis, Debye-Ang):
   XX=           -120.6021   YY=            -94.3285   ZZ=            -90.2403
   XY=              4.5376   XZ=             -4.4553   YZ=             -1.1581

 Normal termination of Gaussian 16 at Thu May  6 19:04:50 2021.
