 Gaussian 16, Revision A.03,
 Gaussian 16:  EM64L-G16RevA.03 25-Dec-2016

 -------------
 #p 6-31g* mp2
 -------------

 ------------------------------------------------------
 Input file generated by CHIRIPA (05-May-2021 14:53:16)
 ------------------------------------------------------
 Symbolic Z-matrix:
 Charge =  0 Multiplicity = 1

                         Standard orientation:
 ---------------------------------------------------------------------
 Center     Atomic      Atomic             Coordinates (Angstroms)
 Number     Number       Type             X           Y           Z
 ---------------------------------------------------------------------
      1          6           0       -3.126367    1.378704   -0.215058
      2          6           0       -1.702173    1.841511   -0.524034
      3          6           0       -1.615486    3.342615   -0.801463
      4          1           0       -3.779899    1.635198   -1.060074
      5          1           0       -3.505124    1.935471    0.653244
      6          1           0       -1.325710    1.283049   -1.390644
      7          1           0       -1.051917    1.583713    0.321734
      8          1           0       -1.965529    3.915098    0.063600
      9          1           0       -2.240878    3.612726   -1.658507
     10          1           0       -0.588600    3.651855   -1.019949
     11          6           0       -3.229237   -0.119631    0.064472
     12          6           0       -4.653431   -0.582438    0.373448
     13          6           0       -4.740118   -2.083542    0.650876
     14          1           0       -2.850480   -0.676398   -0.803831
     15          1           0       -2.575705   -0.376126    0.909487
     16          1           0       -5.303687   -0.324641   -0.472320
     17          1           0       -5.029894   -0.023977    1.240058
     18          1           0       -4.114726   -2.353653    1.507921
     19          1           0       -4.390075   -2.656026   -0.214187
     20          1           0       -5.767004   -2.392783    0.869363
     21          6           0        4.350103    1.109475    0.619545
     22          6           0        3.054591    1.353660    1.087032
     23          6           0        2.012164    0.473224    0.782518
     24          6           0        2.302120   -0.646633    0.004614
     25          6           0        3.582391   -0.917314   -0.475936
     26          6           0        4.609411   -0.023234   -0.159074
     27          1           0        5.153901    1.798717    0.860894
     28          1           0        2.850286    2.232533    1.691917
     29          1           0        0.999975    0.638092    1.131388
     30          1           0        3.755255   -1.801888   -1.076823
     31          1           0        5.614553   -0.215405   -0.523499
     32          7           0        1.206705   -1.585932   -0.324297
     33          8           0        1.488157   -2.565378   -1.011397
     34          8           0        0.087407   -1.324923    0.111231
 ---------------------------------------------------------------------

 SCF Done:  E(RHF) =  -669.535158924     A.U. after   15 cycles
 E2 =    -0.2092951468D+01 EUMP2 =    -0.67162811039157D+03

 The electronic state is 1-A.
 Alpha  occ. eigenvalues --  -20.60873 -20.60860 -15.85897 -11.31235 -11.27806
 Alpha  occ. eigenvalues --  -11.27788 -11.27546 -11.26817 -11.26805 -11.21167
 Alpha  occ. eigenvalues --  -11.20877 -11.20702 -11.20670 -11.20137 -11.20104
 Alpha  occ. eigenvalues --   -1.59933  -1.39488  -1.19409  -1.08811  -1.07629
 Alpha  occ. eigenvalues --   -1.04809  -1.02852  -0.95654  -0.95280  -0.86311
 Alpha  occ. eigenvalues --   -0.86199  -0.82492  -0.78957  -0.77682  -0.77182
 Alpha  occ. eigenvalues --   -0.72112  -0.71244  -0.70527  -0.65064  -0.64838
 Alpha  occ. eigenvalues --   -0.64274  -0.62175  -0.60260  -0.58693  -0.56872
 Alpha  occ. eigenvalues --   -0.55317  -0.54573  -0.53136  -0.52918  -0.52045
 Alpha  occ. eigenvalues --   -0.51682  -0.49222  -0.48903  -0.48884  -0.47229
 Alpha  occ. eigenvalues --   -0.45992  -0.45166  -0.44787  -0.44543  -0.43043
 Alpha  occ. eigenvalues --   -0.37389  -0.36404
 Alpha virt. eigenvalues --    0.04970   0.11210   0.16457   0.20746   0.23449
 Alpha virt. eigenvalues --    0.24770   0.25757   0.27605   0.27843   0.28615
 Alpha virt. eigenvalues --    0.29434   0.31112   0.31600   0.32146   0.32352

 Mulliken charges:
               1
     1  C   -0.299198
     2  C   -0.297477
     3  C   -0.475925
     4  H    0.147156
     5  H    0.144145
     6  H    0.157237
     7  H    0.145041
     8  H    0.152145
     9  H    0.156361
    10  H    0.154474
    11  C   -0.296736
    12  C   -0.300165
    13  C   -0.474174
    14  H    0.160360
    15  H    0.158797
    16  H    0.147803
    17  H    0.146356
    18  H    0.156766
    19  H    0.158963
    20  H    0.154998
    21  C   -0.170495
    22  C   -0.220828
    23  C   -0.171429
    24  C    0.155678
    25  C   -0.170412
    26  C   -0.218744
    27  H    0.225820
    28  H    0.223898
    29  H    0.282021
    30  H    0.275636
    31  H    0.223581
    32  N    0.492114
    33  O   -0.459981
    34  O   -0.463786
 Sum of Mulliken charges =  -0.00000

 Dipole moment (field-independent basis, Debye):
    X=              4.0104    Y=              3.0901    Z=              1.1030  Tot=              5.1816
 Quadrupole moment (field-independent basis, Debye-Ang):
   XX=            -76.1850   YY=            -99.5953   ZZ=            -93.1301
   XY=              3.2994   XZ=              1.2690   YZ=              1.4926

 Normal termination of Gaussian 16 at Thu May  6 17:13:54 2021.
