 Gaussian 16, Revision A.03,
 Gaussian 16:  EM64L-G16RevA.03 25-Dec-2016

 -------------
 #p 6-31g* mp2
 -------------

 ------------------------------------------------------
 Input file generated by CHIRIPA (05-May-2021 14:51:07)
 ------------------------------------------------------
 Symbolic Z-matrix:
 Charge =  0 Multiplicity = 1

                         Standard orientation:
 ---------------------------------------------------------------------
 Center     Atomic      Atomic             Coordinates (Angstroms)
 Number     Number       Type             X           Y           Z
 ---------------------------------------------------------------------
      1          6           0       -3.252805    1.195162   -0.333674
      2          6           0       -2.207681    1.862819    0.560717
      3          6           0       -1.756572    3.223374    0.028566
      4          1           0       -2.839063    1.076301   -1.344433
      5          1           0       -4.122753    1.859731   -0.428191
      6          1           0       -1.340542    1.196588    0.654641
      7          1           0       -2.623890    1.979930    1.569513
      8          1           0       -2.607268    3.908185   -0.048582
      9          1           0       -1.316628    3.120391   -0.968653
     10          1           0       -1.009441    3.682858    0.683187
     11          6           0       -3.713679   -0.165787    0.185117
     12          6           0       -4.758803   -0.833444   -0.709273
     13          6           0       -5.209912   -2.193999   -0.177122
     14          1           0       -2.843732   -0.830357    0.279634
     15          1           0       -4.127421   -0.046926    1.195876
     16          1           0       -4.342594   -0.950555   -1.718070
     17          1           0       -5.625942   -0.167213   -0.803197
     18          1           0       -5.649856   -2.091016    0.820096
     19          1           0       -4.359216   -2.878810   -0.099975
     20          1           0       -5.957043   -2.653484   -0.831744
     21          6           0        2.788430   -0.713017   -0.173377
     22          6           0        1.793521   -0.975230    0.957723
     23          6           0        0.407979   -1.370979    0.446398
     24          1           0        2.394933    0.081192   -0.822481
     25          1           0        2.870217   -1.614260   -0.796647
     26          1           0        1.714676   -0.074222    1.579482
     27          1           0        2.189521   -1.768774    1.604319
     28          1           0        0.465910   -2.282768   -0.156832
     29          1           0       -0.011633   -0.578589   -0.181810
     30          1           0       -0.287379   -1.553736    1.271586
     31          6           0        4.178055   -0.316359    0.321933
     32          6           0        5.172964   -0.054144   -0.809166
     33          6           0        6.558505    0.341604   -0.297841
     34          1           0        4.096267    0.584885    0.945203
     35          1           0        4.571552   -1.110567    0.971038
     36          1           0        4.776963    0.739399   -1.455762
     37          1           0        5.251808   -0.955152   -1.430925
     38          1           0        6.978117   -0.450787    0.330366
     39          1           0        6.500574    1.253394    0.305389
     40          1           0        7.253863    0.524361   -1.123029
 ---------------------------------------------------------------------

 SCF Done:  E(RHF) =  -470.732923891     A.U. after   11 cycles
 E2 =    -0.1583260465D+01 EUMP2 =    -0.47231618435607D+03

 The electronic state is 1-A.
 Alpha  occ. eigenvalues --  -11.21673 -11.21629 -11.21541 -11.21520 -11.21451
 Alpha  occ. eigenvalues --  -11.21389 -11.21341 -11.21265 -11.21157 -11.21091
 Alpha  occ. eigenvalues --  -11.21061 -11.21022  -1.08483  -1.08370  -1.03591
 Alpha  occ. eigenvalues --   -1.03478  -0.96043  -0.95933  -0.87065  -0.86949
 Alpha  occ. eigenvalues --   -0.79667  -0.79538  -0.78300  -0.78168  -0.65193
 Alpha  occ. eigenvalues --   -0.64951  -0.61116  -0.60768  -0.59408  -0.59300
 Alpha  occ. eigenvalues --   -0.57645  -0.57542  -0.55340  -0.55227  -0.52765
 Alpha  occ. eigenvalues --   -0.52614  -0.52463  -0.52354  -0.50077  -0.49823
 Alpha  occ. eigenvalues --   -0.47988  -0.47841  -0.46791  -0.46496  -0.45887
 Alpha  occ. eigenvalues --   -0.45769  -0.45711  -0.45469  -0.43812  -0.43724
 Alpha virt. eigenvalues --    0.20966   0.22999   0.23881   0.24564   0.26059
 Alpha virt. eigenvalues --    0.26710   0.27064   0.27524   0.27964   0.29328
 Alpha virt. eigenvalues --    0.30430   0.31548   0.31630   0.31775   0.32154

 Mulliken charges:
               1
     1  C   -0.297586
     2  C   -0.307375
     3  C   -0.475373
     4  H    0.148797
     5  H    0.149355
     6  H    0.160160
     7  H    0.151595
     8  H    0.155318
     9  H    0.154330
    10  H    0.159645
    11  C   -0.303986
    12  C   -0.299308
    13  C   -0.475746
    14  H    0.156641
    15  H    0.148928
    16  H    0.151809
    17  H    0.151571
    18  H    0.154920
    19  H    0.155379
    20  H    0.159997
    21  C   -0.298521
    22  C   -0.301430
    23  C   -0.480337
    24  H    0.149732
    25  H    0.149624
    26  H    0.152860
    27  H    0.152564
    28  H    0.155656
    29  H    0.158132
    30  H    0.162112
    31  C   -0.298361
    32  C   -0.299702
    33  C   -0.475742
    34  H    0.149735
    35  H    0.149764
    36  H    0.152045
    37  H    0.151940
    38  H    0.155215
    39  H    0.155284
    40  H    0.160358
 Sum of Mulliken charges =  -0.00000

 Dipole moment (field-independent basis, Debye):
    X=              0.0499    Y=             -0.0340    Z=              0.0134  Tot=              0.0618
 Quadrupole moment (field-independent basis, Debye-Ang):
   XX=            -85.5677   YY=            -84.7590   ZZ=            -84.6269
   XY=             -1.3153   XZ=             -0.5188   YZ=              0.4108

 Normal termination of Gaussian 16 at Wed May  5 21:16:38 2021.
