 Gaussian 16, Revision A.03,
 Gaussian 16:  EM64L-G16RevA.03 25-Dec-2016

 -------------
 #p 6-31g* mp2
 -------------

 ------------------------------------------------------
 Input file generated by CHIRIPA (05-May-2021 14:55:20)
 ------------------------------------------------------
 Symbolic Z-matrix:
 Charge =  0 Multiplicity = 1

                         Standard orientation:
 ---------------------------------------------------------------------
 Center     Atomic      Atomic             Coordinates (Angstroms)
 Number     Number       Type             X           Y           Z
 ---------------------------------------------------------------------
      1          6           0       -1.308269   -1.829227    1.084380
      2          6           0       -0.910645   -0.583586    0.587595
      3          6           0       -1.844898    0.281904    0.010840
      4          6           0       -3.174453   -0.132210   -0.053065
      5          6           0       -3.601603   -1.366927    0.433049
      6          6           0       -2.650113   -2.216239    1.005661
      7          1           0       -0.575824   -2.495277    1.530808
      8          1           0        0.130768   -0.280389    0.647386
      9          1           0       -1.564414    1.251836   -0.381561
     10          1           0       -4.646906   -1.641371    0.359291
     11          1           0       -2.961779   -3.183033    1.390653
     12          7           0       -4.172629    0.775482   -0.661456
     13          8           0       -5.337914    0.387178   -0.705805
     14          8           0       -3.770813    1.858048   -1.082445
     15          6           0        3.406582    0.795290    0.381768
     16          6           0        3.566741    2.293022    0.118840
     17          6           0        2.667679    3.149322    1.011160
     18          1           0        2.356517    0.512369    0.225990
     19          1           0        3.632574    0.589152    1.437149
     20          1           0        3.341856    2.496072   -0.936059
     21          1           0        4.616583    2.572374    0.275076
     22          1           0        2.896086    2.975966    2.067750
     23          1           0        1.614116    2.899230    0.849732
     24          1           0        2.798249    4.216526    0.806500
     25          6           0        4.298869   -0.073859   -0.502613
     26          6           0        4.138710   -1.571592   -0.239687
     27          6           0        5.037772   -2.427890   -1.132006
     28          1           0        4.072876    0.132280   -1.557995
     29          1           0        5.348933    0.209062   -0.346836
     30          1           0        3.088867   -1.850943   -0.395922
     31          1           0        4.363595   -1.774641    0.815213
     32          1           0        6.091335   -2.177799   -0.970579
     33          1           0        4.809365   -2.254536   -2.188595
     34          1           0        4.907201   -3.495095   -0.927346
 ---------------------------------------------------------------------

 SCF Done:  E(RHF) =  -669.535578409     A.U. after   15 cycles
 E2 =    -0.2091311287D+01 EUMP2 =    -0.67162688969623D+03

 The electronic state is 1-A.
 Alpha  occ. eigenvalues --  -20.60742 -20.60737 -15.85795 -11.31159 -11.27728
 Alpha  occ. eigenvalues --  -11.27724 -11.27463 -11.26742 -11.26709 -11.22409
 Alpha  occ. eigenvalues --  -11.22375 -11.22288 -11.22139 -11.21722 -11.21702
 Alpha  occ. eigenvalues --   -1.59818  -1.39371  -1.19329  -1.09239  -1.08723
 Alpha  occ. eigenvalues --   -1.04734  -1.04256  -0.96701  -0.95560  -0.87712
 Alpha  occ. eigenvalues --   -0.86132  -0.82395  -0.80323  -0.79089  -0.77440
 Alpha  occ. eigenvalues --   -0.72014  -0.71141  -0.70437  -0.65903  -0.64981
 Alpha  occ. eigenvalues --   -0.64723  -0.62098  -0.61635  -0.60068  -0.58318
 Alpha  occ. eigenvalues --   -0.55995  -0.55230  -0.53360  -0.53162  -0.53061
 Alpha  occ. eigenvalues --   -0.52806  -0.50637  -0.48780  -0.48769  -0.48632
 Alpha  occ. eigenvalues --   -0.47360  -0.46602  -0.46516  -0.44778  -0.44536
 Alpha  occ. eigenvalues --   -0.37309  -0.36336
 Alpha virt. eigenvalues --    0.05093   0.11303   0.16581   0.18943   0.22724
 Alpha virt. eigenvalues --    0.23455   0.24610   0.26354   0.26877   0.28140
 Alpha virt. eigenvalues --    0.29371   0.30555   0.31127   0.31258   0.31680

 Mulliken charges:
               1
     1  C   -0.173511
     2  C   -0.227833
     3  C   -0.174301
     4  C    0.158847
     5  C   -0.171175
     6  C   -0.218468
     7  H    0.226637
     8  H    0.237253
     9  H    0.275290
    10  H    0.275494
    11  H    0.223291
    12  N    0.488121
    13  O   -0.460598
    14  O   -0.460496
    15  C   -0.305286
    16  C   -0.300315
    17  C   -0.475228
    18  H    0.143555
    19  H    0.150944
    20  H    0.154751
    21  H    0.155525
    22  H    0.156353
    23  H    0.150050
    24  H    0.165421
    25  C   -0.298000
    26  C   -0.300040
    27  C   -0.475990
    28  H    0.152445
    29  H    0.153358
    30  H    0.146392
    31  H    0.151707
    32  H    0.157436
    33  H    0.157483
    34  H    0.160888
 Sum of Mulliken charges =  -0.00000

 Dipole moment (field-independent basis, Debye):
    X=              3.7494    Y=             -3.1401    Z=              2.1178  Tot=              5.3295
 Quadrupole moment (field-independent basis, Debye-Ang):
   XX=           -113.6071   YY=            -92.1628   ZZ=            -95.4341
   XY=             13.2886   XZ=             -7.0420   YZ=             -1.1961

 Normal termination of Gaussian 16 at Thu May  6 12:28:14 2021.
