 Gaussian 16, Revision A.03,
 Gaussian 16:  EM64L-G16RevA.03 25-Dec-2016

 -------------
 #p 6-31g* mp2
 -------------

 ------------------------------------------------------
 Input file generated by CHIRIPA (05-May-2021 14:51:10)
 ------------------------------------------------------
 Symbolic Z-matrix:
 Charge =  0 Multiplicity = 1

                         Standard orientation:
 ---------------------------------------------------------------------
 Center     Atomic      Atomic             Coordinates (Angstroms)
 Number     Number       Type             X           Y           Z
 ---------------------------------------------------------------------
      1          6           0        3.409108   -0.090724   -0.449196
      2          6           0        2.772354   -1.472524   -0.297023
      3          6           0        3.594271   -2.578410   -0.959792
      4          1           0        3.533441    0.133052   -1.517564
      5          1           0        4.418036   -0.109708   -0.014340
      6          1           0        1.764400   -1.450559   -0.730799
      7          1           0        2.649347   -1.692956    0.771104
      8          1           0        4.596101   -2.629297   -0.521216
      9          1           0        3.706126   -2.385523   -2.031653
     10          1           0        3.120862   -3.557763   -0.838913
     11          6           0        2.599118    1.025295    0.208182
     12          6           0        3.235872    2.407096    0.056009
     13          6           0        2.413955    3.512981    0.718779
     14          1           0        1.590190    1.044279   -0.226674
     15          1           0        2.474785    0.801519    1.276550
     16          1           0        3.358879    2.627527   -1.012118
     17          1           0        4.243826    2.385130    0.489785
     18          1           0        2.302100    3.320094    1.790639
     19          1           0        1.412125    3.563868    0.280202
     20          1           0        2.887363    4.492334    0.597899
     21          6           0       -3.642759   -0.236531   -0.229228
     22          6           0       -3.846999    1.278055   -0.181259
     23          6           0       -5.128889    1.724284   -0.885128
     24          1           0       -3.620140   -0.564045   -1.277641
     25          1           0       -4.507748   -0.731005    0.234113
     26          1           0       -2.981242    1.769572   -0.643312
     27          1           0       -3.868942    1.602027    0.867158
     28          1           0       -6.005012    1.260723   -0.420239
     29          1           0       -5.112268    1.429219   -1.939291
     30          1           0       -5.255073    2.810466   -0.838803
     31          6           0       -2.365467   -0.698040    0.470242
     32          6           0       -2.161227   -2.212626    0.422273
     33          6           0       -0.879337   -2.658855    1.126141
     34          1           0       -1.500478   -0.203566    0.006901
     35          1           0       -2.388086   -0.370527    1.518655
     36          1           0       -2.139283   -2.536599   -0.626144
     37          1           0       -3.026984   -2.704143    0.884325
     38          1           0       -0.895958   -2.363791    2.180305
     39          1           0       -0.003214   -2.195294    0.661253
     40          1           0       -0.753154   -3.745037    1.079818
 ---------------------------------------------------------------------

 SCF Done:  E(RHF) =  -470.733025660     A.U. after   11 cycles
 E2 =    -0.1583158727D+01 EUMP2 =    -0.47231618438677D+03

 The electronic state is 1-A.
 Alpha  occ. eigenvalues --  -11.21643 -11.21625 -11.21596 -11.21546 -11.21440
 Alpha  occ. eigenvalues --  -11.21386 -11.21381 -11.21325 -11.21098 -11.21080
 Alpha  occ. eigenvalues --  -11.21067 -11.20907  -1.08472  -1.08399  -1.03573
 Alpha  occ. eigenvalues --   -1.03479  -0.96010  -0.95930  -0.87036  -0.86941
 Alpha  occ. eigenvalues --   -0.79707  -0.79495  -0.78330  -0.78168  -0.65128
 Alpha  occ. eigenvalues --   -0.65008  -0.61004  -0.60862  -0.59390  -0.59299
 Alpha  occ. eigenvalues --   -0.57666  -0.57507  -0.55308  -0.55207  -0.52708
 Alpha  occ. eigenvalues --   -0.52624  -0.52472  -0.52318  -0.49992  -0.49877
 Alpha  occ. eigenvalues --   -0.48105  -0.47712  -0.46727  -0.46565  -0.45979
 Alpha  occ. eigenvalues --   -0.45768  -0.45717  -0.45387  -0.43811  -0.43748
 Alpha virt. eigenvalues --    0.21026   0.23284   0.23603   0.24468   0.25444
 Alpha virt. eigenvalues --    0.26493   0.27137   0.27587   0.28359   0.29445
 Alpha virt. eigenvalues --    0.30723   0.31183   0.31726   0.31842   0.32072

 Mulliken charges:
               1
     1  C   -0.297525
     2  C   -0.304456
     3  C   -0.475657
     4  H    0.149484
     5  H    0.149817
     6  H    0.153874
     7  H    0.154619
     8  H    0.155441
     9  H    0.155014
    10  H    0.161071
    11  C   -0.299419
    12  C   -0.299648
    13  C   -0.475666
    14  H    0.149487
    15  H    0.150386
    16  H    0.151863
    17  H    0.152115
    18  H    0.155404
    19  H    0.155253
    20  H    0.160276
    21  C   -0.298276
    22  C   -0.299460
    23  C   -0.475695
    24  H    0.149378
    25  H    0.149661
    26  H    0.151375
    27  H    0.152142
    28  H    0.155238
    29  H    0.155065
    30  H    0.160243
    31  C   -0.298994
    32  C   -0.299242
    33  C   -0.484749
    34  H    0.149357
    35  H    0.149925
    36  H    0.151077
    37  H    0.151596
    38  H    0.154147
    39  H    0.166436
    40  H    0.159043
 Sum of Mulliken charges =  -0.00000

 Dipole moment (field-independent basis, Debye):
    X=              0.0597    Y=              0.0097    Z=              0.0054  Tot=              0.0608
 Quadrupole moment (field-independent basis, Debye-Ang):
   XX=            -85.2359   YY=            -85.8824   ZZ=            -83.6504
   XY=              0.7310   XZ=             -0.1830   YZ=             -0.3273

 Normal termination of Gaussian 16 at Wed May  5 16:41:17 2021.
