 Gaussian 16, Revision A.03,
 Gaussian 16:  EM64L-G16RevA.03 25-Dec-2016

 -------------
 #p 6-31g* mp2
 -------------

 ------------------------------------------------------
 Input file generated by CHIRIPA (05-May-2021 14:53:16)
 ------------------------------------------------------
 Symbolic Z-matrix:
 Charge =  0 Multiplicity = 1

                         Standard orientation:
 ---------------------------------------------------------------------
 Center     Atomic      Atomic             Coordinates (Angstroms)
 Number     Number       Type             X           Y           Z
 ---------------------------------------------------------------------
      1          6           0       -3.224530    0.012888    0.115700
      2          6           0       -3.982899   -0.547393   -1.088022
      3          6           0       -4.900538   -1.713141   -0.718205
      4          1           0       -2.632166   -0.790714    0.574255
      5          1           0       -3.947454    0.340842    0.875452
      6          1           0       -3.258785   -0.872919   -1.845852
      7          1           0       -4.573378    0.257682   -1.543879
      8          1           0       -5.644902   -1.398205    0.020266
      9          1           0       -4.322840   -2.535230   -0.283423
     10          1           0       -5.432874   -2.098330   -1.593481
     11          6           0       -2.303024    1.178836   -0.238023
     12          6           0       -1.544655    1.739117    0.965699
     13          6           0       -0.627016    2.904865    0.595883
     14          1           0       -1.580100    0.850882   -0.997774
     15          1           0       -2.895388    1.982438   -0.696578
     16          1           0       -0.954177    0.934042    1.421557
     17          1           0       -2.268769    2.064643    1.723530
     18          1           0       -1.204714    3.726954    0.161101
     19          1           0        0.117348    2.589929   -0.142588
     20          1           0       -0.094680    3.290054    1.471159
     21          6           0        1.314627   -1.424489    2.223326
     22          6           0        1.506965   -2.259789    1.117975
     23          6           0        1.974514   -1.739350   -0.092434
     24          6           0        2.240851   -0.372807   -0.162541
     25          6           0        2.059307    0.485189    0.921052
     26          6           0        1.590925   -0.057077    2.121517
     27          1           0        0.951100   -1.837256    3.159738
     28          1           0        1.293215   -3.322122    1.194144
     29          1           0        2.132315   -2.363276   -0.963773
     30          1           0        2.281101    1.540125    0.814592
     31          1           0        1.442487    0.594011    2.978310
     32          7           0        2.736265    0.189711   -1.438683
     33          8           0        2.963548    1.397057   -1.474672
     34          8           0        2.887907   -0.587385   -2.378771
 ---------------------------------------------------------------------

 SCF Done:  E(RHF) =  -669.534630549     A.U. after   15 cycles
 E2 =    -0.2094546802D+01 EUMP2 =    -0.67162917735098D+03

 The electronic state is 1-A.
 Alpha  occ. eigenvalues --  -20.60903 -20.60896 -15.85941 -11.31297 -11.27868
 Alpha  occ. eigenvalues --  -11.27826 -11.27614 -11.26881 -11.26850 -11.21691
 Alpha  occ. eigenvalues --  -11.21646 -11.21519 -11.21417 -11.21222 -11.21215
 Alpha  occ. eigenvalues --   -1.59968  -1.39521  -1.19485  -1.08879  -1.08532
 Alpha  occ. eigenvalues --   -1.04895  -1.03647  -0.96126  -0.95700  -0.87140
 Alpha  occ. eigenvalues --   -0.86271  -0.82538  -0.79718  -0.78346  -0.77586
 Alpha  occ. eigenvalues --   -0.72158  -0.71292  -0.70581  -0.65199  -0.65117
 Alpha  occ. eigenvalues --   -0.64877  -0.62271  -0.61055  -0.59496  -0.57732
 Alpha  occ. eigenvalues --   -0.55516  -0.55295  -0.53177  -0.52985  -0.52801
 Alpha  occ. eigenvalues --   -0.52519  -0.50029  -0.48917  -0.48917  -0.48028
 Alpha  occ. eigenvalues --   -0.46742  -0.45886  -0.45812  -0.44908  -0.43911
 Alpha  occ. eigenvalues --   -0.37443  -0.36379
 Alpha virt. eigenvalues --    0.04931   0.11061   0.16377   0.20845   0.22836
 Alpha virt. eigenvalues --    0.24107   0.26383   0.26572   0.27179   0.28050
 Alpha virt. eigenvalues --    0.29195   0.30069   0.31376   0.31685   0.32115

 Mulliken charges:
               1
     1  C   -0.298053
     2  C   -0.300079
     3  C   -0.475398
     4  H    0.146895
     5  H    0.148258
     6  H    0.153815
     7  H    0.153290
     8  H    0.154750
     9  H    0.152598
    10  H    0.161331
    11  C   -0.297462
    12  C   -0.307128
    13  C   -0.482132
    14  H    0.152024
    15  H    0.150935
    16  H    0.155647
    17  H    0.148948
    18  H    0.159517
    19  H    0.164162
    20  H    0.150468
    21  C   -0.170846
    22  C   -0.218741
    23  C   -0.171128
    24  C    0.157674
    25  C   -0.167093
    26  C   -0.221103
    27  H    0.226582
    28  H    0.223969
    29  H    0.275907
    30  H    0.278750
    31  H    0.225494
    32  N    0.488285
    33  O   -0.460656
    34  O   -0.459480
 Sum of Mulliken charges =  -0.00000

 Dipole moment (field-independent basis, Debye):
    X=             -1.6586    Y=             -2.0149    Z=              4.4229  Tot=              5.1354
 Quadrupole moment (field-independent basis, Debye-Ang):
   XX=           -103.3759   YY=            -89.6549   ZZ=            -95.8776
   XY=             -4.7667   XZ=             10.6980   YZ=              0.7400

 Normal termination of Gaussian 16 at Thu May  6 18:56:02 2021.
