 Gaussian 16, Revision A.03,
 Gaussian 16:  EM64L-G16RevA.03 25-Dec-2016

 -------------
 #p 6-31g* mp2
 -------------

 ------------------------------------------------------
 Input file generated by CHIRIPA (05-May-2021 14:51:13)
 ------------------------------------------------------
 Symbolic Z-matrix:
 Charge =  0 Multiplicity = 1

                         Standard orientation:
 ---------------------------------------------------------------------
 Center     Atomic      Atomic             Coordinates (Angstroms)
 Number     Number       Type             X           Y           Z
 ---------------------------------------------------------------------
      1          6           0        1.962310   -0.896056   -0.238162
      2          6           0        1.899827   -2.385626   -0.577663
      3          6           0        0.479191   -2.864306   -0.878417
      4          1           0        1.315635   -0.696283    0.627197
      5          1           0        1.549567   -0.318348   -1.076787
      6          1           0        2.313838   -2.960275    0.260781
      7          1           0        2.546875   -2.581909   -1.442197
      8          1           0        0.060065   -2.316675   -1.728731
      9          1           0       -0.174296   -2.697190   -0.016077
     10          1           0        0.457664   -3.931887   -1.118556
     11          6           0        3.375934   -0.402564    0.064922
     12          6           0        3.438417    1.087006    0.404423
     13          6           0        4.859053    1.565686    0.705177
     14          1           0        3.788677   -0.980272    0.903547
     15          1           0        4.022609   -0.602337   -0.800437
     16          1           0        2.791369    1.283290    1.268956
     17          1           0        3.024406    1.661655   -0.434022
     18          1           0        5.512540    1.398570   -0.157163
     19          1           0        5.278179    1.018055    1.555491
     20          1           0        4.880580    2.633267    0.945316
     21          6           0       -2.562006    1.378683    0.286550
     22          6           0       -2.091511    2.261562   -0.869801
     23          6           0       -1.881637    3.717921   -0.454154
     24          1           0       -3.499087    1.784561    0.691624
     25          1           0       -1.823721    1.426340    1.098990
     26          1           0       -2.829785    2.211166   -1.680373
     27          1           0       -1.155542    1.853426   -1.272295
     28          1           0       -1.129541    3.787802    0.338354
     29          1           0       -2.813298    4.147574   -0.072043
     30          1           0       -1.545407    4.331213   -1.295986
     31          6           0       -2.776239   -0.080064   -0.113309
     32          6           0       -3.246733   -0.962942    1.043041
     33          6           0       -3.456607   -2.419302    0.627394
     34          1           0       -3.514523   -0.127720   -0.925750
     35          1           0       -1.839157   -0.485941   -0.518384
     36          1           0       -4.182703   -0.554807    1.445535
     37          1           0       -2.508458   -0.912546    1.853614
     38          1           0       -2.524946   -2.848954    0.245284
     39          1           0       -4.208703   -2.489182   -0.165113
     40          1           0       -3.792838   -3.032594    1.469226
 ---------------------------------------------------------------------

 SCF Done:  E(RHF) =  -470.733088812     A.U. after   11 cycles
 E2 =    -0.1583737025D+01 EUMP2 =    -0.47231682583665D+03

 The electronic state is 1-A.
 Alpha  occ. eigenvalues --  -11.21695 -11.21665 -11.21556 -11.21544 -11.21503
 Alpha  occ. eigenvalues --  -11.21435 -11.21328 -11.21251 -11.21167 -11.21116
 Alpha  occ. eigenvalues --  -11.21034 -11.20958  -1.08520  -1.08360  -1.03618
 Alpha  occ. eigenvalues --   -1.03465  -0.96071  -0.95909  -0.87092  -0.86926
 Alpha  occ. eigenvalues --   -0.79712  -0.79508  -0.78360  -0.78143  -0.65162
 Alpha  occ. eigenvalues --   -0.64989  -0.61093  -0.60816  -0.59432  -0.59285
 Alpha  occ. eigenvalues --   -0.57676  -0.57523  -0.55475  -0.55098  -0.52762
 Alpha  occ. eigenvalues --   -0.52616  -0.52514  -0.52315  -0.50112  -0.49745
 Alpha  occ. eigenvalues --   -0.48135  -0.47768  -0.46751  -0.46494  -0.46067
 Alpha  occ. eigenvalues --   -0.45790  -0.45675  -0.45372  -0.43867  -0.43718
 Alpha virt. eigenvalues --    0.20396   0.22831   0.23721   0.24300   0.25713
 Alpha virt. eigenvalues --    0.26223   0.26944   0.27753   0.28249   0.30013
 Alpha virt. eigenvalues --    0.30404   0.31356   0.31648   0.31909   0.32170

 Mulliken charges:
               1
     1  C   -0.299747
     2  C   -0.299932
     3  C   -0.481538
     4  H    0.149644
     5  H    0.149868
     6  H    0.152365
     7  H    0.152431
     8  H    0.156890
     9  H    0.159741
    10  H    0.161160
    11  C   -0.298348
    12  C   -0.299732
    13  C   -0.475771
    14  H    0.149877
    15  H    0.150057
    16  H    0.151694
    17  H    0.152096
    18  H    0.155350
    19  H    0.155298
    20  H    0.160546
    21  C   -0.297678
    22  C   -0.300012
    23  C   -0.475680
    24  H    0.149270
    25  H    0.149128
    26  H    0.151628
    27  H    0.152222
    28  H    0.155378
    29  H    0.155041
    30  H    0.159884
    31  C   -0.303841
    32  C   -0.299136
    33  C   -0.482178
    34  H    0.148936
    35  H    0.156095
    36  H    0.151803
    37  H    0.150322
    38  H    0.162362
    39  H    0.155027
    40  H    0.159479
 Sum of Mulliken charges =  -0.00000

 Dipole moment (field-independent basis, Debye):
    X=              0.0671    Y=             -0.0347    Z=             -0.0251  Tot=              0.0796
 Quadrupole moment (field-independent basis, Debye-Ang):
   XX=            -84.8697   YY=            -86.0821   ZZ=            -83.8392
   XY=             -0.8940   XZ=             -0.1122   YZ=             -0.4880

 Normal termination of Gaussian 16 at Wed May  5 15:20:49 2021.
