 Gaussian 16, Revision A.03,
 Gaussian 16:  EM64L-G16RevA.03 25-Dec-2016

 -------------
 #p 6-31g* mp2
 -------------

 ------------------------------------------------------
 Input file generated by CHIRIPA (05-May-2021 14:53:12)
 ------------------------------------------------------
 Symbolic Z-matrix:
 Charge =  0 Multiplicity = 1

                         Standard orientation:
 ---------------------------------------------------------------------
 Center     Atomic      Atomic             Coordinates (Angstroms)
 Number     Number       Type             X           Y           Z
 ---------------------------------------------------------------------
      1          6           0       -3.887782   -0.011616    0.217907
      2          6           0       -3.665885   -1.330980    0.958194
      3          6           0       -4.973432   -2.054517    1.281623
      4          1           0       -4.528177    0.640378    0.827614
      5          1           0       -4.438354   -0.209233   -0.712261
      6          1           0       -3.114684   -1.131108    1.886012
      7          1           0       -3.025786   -1.979834    0.346738
      8          1           0       -5.524722   -2.282666    0.363675
      9          1           0       -5.614125   -1.429118    1.911694
     10          1           0       -4.791503   -2.995137    1.810770
     11          6           0       -2.589955    0.723409   -0.112417
     12          6           0       -2.811852    2.042773   -0.852705
     13          6           0       -1.504305    2.766310   -1.176134
     14          1           0       -2.039383    0.921026    0.817750
     15          1           0       -1.949560    0.071415   -0.722125
     16          1           0       -3.451951    2.691627   -0.241249
     17          1           0       -3.363053    1.842901   -1.780522
     18          1           0       -0.863612    2.140911   -1.806205
     19          1           0       -0.953015    2.994459   -0.258185
     20          1           0       -1.686234    3.706930   -1.705280
     21          6           0        3.344200    1.356237    1.700265
     22          6           0        3.937199    0.093899    1.593606
     23          6           0        3.494380   -0.819648    0.632413
     24          6           0        2.451687   -0.436040   -0.209566
     25          6           0        1.840575    0.814233   -0.128034
     26          6           0        2.299622    1.711748    0.840620
     27          1           0        3.694496    2.059675    2.449841
     28          1           0        4.748614   -0.184916    2.259876
     29          1           0        3.935555   -1.803458    0.528015
     30          1           0        1.033621    1.063515   -0.806343
     31          1           0        1.837213    2.691409    0.921166
     32          7           0        1.974305   -1.394685   -1.231087
     33          8           0        1.054084   -1.032535   -1.960936
     34          8           0        2.529392   -2.490069   -1.282565
 ---------------------------------------------------------------------

 SCF Done:  E(RHF) =  -669.535985626     A.U. after   15 cycles
 E2 =    -0.2092170643D+01 EUMP2 =    -0.67162815626850D+03

 The electronic state is 1-A.
 Alpha  occ. eigenvalues --  -20.60806 -20.60798 -15.85842 -11.31123 -11.27715
 Alpha  occ. eigenvalues --  -11.27633 -11.27455 -11.26719 -11.26690 -11.21756
 Alpha  occ. eigenvalues --  -11.21600 -11.21373 -11.21300 -11.21222 -11.20863
 Alpha  occ. eigenvalues --   -1.59868  -1.39425  -1.19305  -1.08720  -1.08382
 Alpha  occ. eigenvalues --   -1.04699  -1.03560  -0.96038  -0.95562  -0.87068
 Alpha  occ. eigenvalues --   -0.86103  -0.82398  -0.79641  -0.78179  -0.77431
 Alpha  occ. eigenvalues --   -0.72066  -0.71181  -0.70426  -0.65028  -0.64946
 Alpha  occ. eigenvalues --   -0.64701  -0.62085  -0.60947  -0.59397  -0.57628
 Alpha  occ. eigenvalues --   -0.55343  -0.55208  -0.53035  -0.52850  -0.52738
 Alpha  occ. eigenvalues --   -0.52415  -0.49980  -0.48826  -0.48816  -0.47933
 Alpha  occ. eigenvalues --   -0.46625  -0.45720  -0.45595  -0.44820  -0.43773
 Alpha  occ. eigenvalues --   -0.37295  -0.36293
 Alpha virt. eigenvalues --    0.05054   0.11335   0.16531   0.20240   0.23098
 Alpha virt. eigenvalues --    0.24017   0.25456   0.26155   0.27654   0.28046
 Alpha virt. eigenvalues --    0.29058   0.30450   0.31572   0.31821   0.32547

 Mulliken charges:
               1
     1  C   -0.298020
     2  C   -0.300990
     3  C   -0.475770
     4  H    0.147460
     5  H    0.151664
     6  H    0.149538
     7  H    0.158485
     8  H    0.156211
     9  H    0.153384
    10  H    0.160544
    11  C   -0.306633
    12  C   -0.297705
    13  C   -0.486246
    14  H    0.144350
    15  H    0.164795
    16  H    0.151370
    17  H    0.156673
    18  H    0.162759
    19  H    0.145187
    20  H    0.164224
    21  C   -0.170320
    22  C   -0.219310
    23  C   -0.169896
    24  C    0.156791
    25  C   -0.175943
    26  C   -0.224849
    27  H    0.225367
    28  H    0.223141
    29  H    0.275266
    30  H    0.288783
    31  H    0.224724
    32  N    0.487714
    33  O   -0.462995
    34  O   -0.459752
 Sum of Mulliken charges =  -0.00000

 Dipole moment (field-independent basis, Debye):
    X=              1.5966    Y=              3.2915    Z=              3.4902  Tot=              5.0561
 Quadrupole moment (field-independent basis, Debye-Ang):
   XX=            -85.2417   YY=            -96.1634   ZZ=            -95.7291
   XY=              4.5242   XZ=             10.4470   YZ=             -2.8775

 Normal termination of Gaussian 16 at Thu May  6 00:56:25 2021.
