 Gaussian 16, Revision A.03,
 Gaussian 16:  EM64L-G16RevA.03 25-Dec-2016

 -------------
 #p 6-31g* mp2
 -------------

 ------------------------------------------------------
 Input file generated by CHIRIPA (05-May-2021 14:51:13)
 ------------------------------------------------------
 Symbolic Z-matrix:
 Charge =  0 Multiplicity = 1

                         Standard orientation:
 ---------------------------------------------------------------------
 Center     Atomic      Atomic             Coordinates (Angstroms)
 Number     Number       Type             X           Y           Z
 ---------------------------------------------------------------------
      1          6           0        3.961403    0.133487    0.161333
      2          6           0        4.093904    1.464055   -0.580297
      3          6           0        5.549746    1.861254   -0.826374
      4          1           0        4.491640    0.201561    1.121103
      5          1           0        4.464072   -0.653066   -0.418369
      6          1           0        3.589942    2.247604   -0.000048
      7          1           0        3.563128    1.392869   -1.538329
      8          1           0        6.060771    1.100271   -1.425006
      9          1           0        6.087737    1.959863    0.122015
     10          1           0        5.621244    2.815382   -1.357775
     11          6           0        2.511946   -0.277108    0.414742
     12          6           0        2.379445   -1.607676    1.156373
     13          6           0        0.923604   -2.004874    1.402450
     14          1           0        2.009278    0.509445    0.994444
     15          1           0        1.981709   -0.345182   -0.545028
     16          1           0        2.910221   -1.536490    2.114405
     17          1           0        2.883408   -2.391225    0.576124
     18          1           0        0.385612   -2.103483    0.454060
     19          1           0        0.412578   -1.243892    2.001082
     20          1           0        0.852105   -2.959003    1.933851
     21          6           0       -3.310183    0.828298   -0.363906
     22          6           0       -4.215499    1.458756    0.694824
     23          6           0       -4.352676    2.972607    0.529806
     24          1           0       -2.317172    1.295550   -0.313425
     25          1           0       -3.711693    1.054445   -1.361425
     26          1           0       -3.813164    1.230317    1.690092
     27          1           0       -5.206414    0.989814    0.641945
     28          1           0       -4.775538    3.216559   -0.450132
     29          1           0       -3.374371    3.458427    0.603971
     30          1           0       -5.004073    3.402688    1.296991
     31          6           0       -3.163166   -0.684676   -0.212170
     32          6           0       -2.257850   -1.315135   -1.270899
     33          6           0       -2.120673   -2.828987   -1.105880
     34          1           0       -2.761656   -0.910824    0.785348
     35          1           0       -4.156177   -1.151929   -0.262650
     36          1           0       -1.266935   -0.846194   -1.218021
     37          1           0       -2.660185   -1.086696   -2.266168
     38          1           0       -3.098978   -3.314807   -1.180046
     39          1           0       -1.697811   -3.072937   -0.125944
     40          1           0       -1.469277   -3.259067   -1.873067
 ---------------------------------------------------------------------

 SCF Done:  E(RHF) =  -470.732954064     A.U. after   11 cycles
 E2 =    -0.1583273229D+01 EUMP2 =    -0.47231622729291D+03

 The electronic state is 1-A.
 Alpha  occ. eigenvalues --  -11.21638 -11.21628 -11.21578 -11.21574 -11.21450
 Alpha  occ. eigenvalues --  -11.21388 -11.21364 -11.21304 -11.21090 -11.21081
 Alpha  occ. eigenvalues --  -11.21054 -11.21009  -1.08471  -1.08394  -1.03587
 Alpha  occ. eigenvalues --   -1.03483  -0.96049  -0.95922  -0.87063  -0.86943
 Alpha  occ. eigenvalues --   -0.79640  -0.79559  -0.78284  -0.78208  -0.65156
 Alpha  occ. eigenvalues --   -0.64991  -0.61176  -0.60745  -0.59385  -0.59314
 Alpha  occ. eigenvalues --   -0.57616  -0.57562  -0.55561  -0.55007  -0.52715
 Alpha  occ. eigenvalues --   -0.52648  -0.52448  -0.52340  -0.50118  -0.49704
 Alpha  occ. eigenvalues --   -0.48031  -0.47791  -0.46648  -0.46587  -0.45895
 Alpha  occ. eigenvalues --   -0.45765  -0.45670  -0.45625  -0.43817  -0.43755
 Alpha virt. eigenvalues --    0.20860   0.23064   0.23706   0.24861   0.25830
 Alpha virt. eigenvalues --    0.26271   0.27003   0.27832   0.28195   0.29127
 Alpha virt. eigenvalues --    0.30662   0.30922   0.31614   0.31728   0.32056

 Mulliken charges:
               1
     1  C   -0.298295
     2  C   -0.299723
     3  C   -0.475738
     4  H    0.149862
     5  H    0.149728
     6  H    0.151854
     7  H    0.152061
     8  H    0.155267
     9  H    0.155217
    10  H    0.160371
    11  C   -0.299186
    12  C   -0.299607
    13  C   -0.484164
    14  H    0.149186
    15  H    0.149905
    16  H    0.151981
    17  H    0.152237
    18  H    0.165731
    19  H    0.154415
    20  H    0.160176
    21  C   -0.298497
    22  C   -0.299612
    23  C   -0.475674
    24  H    0.150045
    25  H    0.149288
    26  H    0.151812
    27  H    0.151886
    28  H    0.155153
    29  H    0.155104
    30  H    0.160135
    31  C   -0.298749
    32  C   -0.302106
    33  C   -0.480577
    34  H    0.151057
    35  H    0.149488
    36  H    0.152890
    37  H    0.152040
    38  H    0.155577
    39  H    0.160325
    40  H    0.159138
 Sum of Mulliken charges =  -0.00000

 Dipole moment (field-independent basis, Debye):
    X=              0.0161    Y=             -0.0130    Z=              0.0076  Tot=              0.0220
 Quadrupole moment (field-independent basis, Debye-Ang):
   XX=            -85.1662   YY=            -85.8968   ZZ=            -83.7356
   XY=             -0.0742   XZ=              0.7157   YZ=              0.6003

 Normal termination of Gaussian 16 at Wed May  5 23:11:33 2021.
