 Gaussian 16, Revision A.03,
 Gaussian 16:  EM64L-G16RevA.03 25-Dec-2016

 -------------
 #p 6-31g* mp2
 -------------

 ------------------------------------------------------
 Input file generated by CHIRIPA (05-May-2021 14:55:20)
 ------------------------------------------------------
 Symbolic Z-matrix:
 Charge =  0 Multiplicity = 1

                         Standard orientation:
 ---------------------------------------------------------------------
 Center     Atomic      Atomic             Coordinates (Angstroms)
 Number     Number       Type             X           Y           Z
 ---------------------------------------------------------------------
      1          6           0        0.906969   -0.956969    0.406148
      2          6           0        1.432918   -0.019977    1.301663
      3          6           0        2.725505    0.482750    1.125504
      4          6           0        3.467721    0.024550    0.038094
      5          6           0        2.971669   -0.908269   -0.871340
      6          6           0        1.676667   -1.397348   -0.675588
      7          1           0       -0.098082   -1.342198    0.550603
      8          1           0        0.837441    0.323825    2.142645
      9          1           0        3.157351    1.208780    1.803594
     10          1           0        3.589296   -1.232043   -1.700271
     11          1           0        1.270795   -2.124960   -1.372649
     12          7           0        4.837403    0.549540   -0.158768
     13          8           0        5.471012    0.129871   -1.124716
     14          8           0        5.251416    1.370756    0.656606
     15          6           0       -4.336649   -0.594822    0.216334
     16          6           0       -3.464250   -1.748881   -0.278692
     17          6           0       -3.850385   -3.090996    0.343739
     18          1           0       -4.260150   -0.528828    1.310289
     19          1           0       -5.388734   -0.816166   -0.010642
     20          1           0       -2.413988   -1.524792   -0.052088
     21          1           0       -3.542684   -1.812014   -1.371614
     22          1           0       -4.889588   -3.340856    0.106615
     23          1           0       -3.754479   -3.052002    1.433639
     24          1           0       -3.214066   -3.901989   -0.024025
     25          6           0       -3.962821    0.753477   -0.396916
     26          6           0       -4.835220    1.907536    0.098111
     27          6           0       -4.449085    3.249651   -0.524320
     28          1           0       -2.910736    0.974821   -0.169940
     29          1           0       -4.039319    0.687483   -1.490870
     30          1           0       -4.756786    1.970669    1.191032
     31          1           0       -5.885481    1.683447   -0.128494
     32          1           0       -4.544990    3.210657   -1.614221
     33          1           0       -3.409881    3.499512   -0.287198
     34          1           0       -5.085403    4.060644   -0.156557
 ---------------------------------------------------------------------

 SCF Done:  E(RHF) =  -669.535492482     A.U. after   15 cycles
 E2 =    -0.2091055430D+01 EUMP2 =    -0.67162654791181D+03

 The electronic state is 1-A.
 Alpha  occ. eigenvalues --  -20.60753 -20.60748 -15.85807 -11.31175 -11.27746
 Alpha  occ. eigenvalues --  -11.27739 -11.27470 -11.26765 -11.26748 -11.22742
 Alpha  occ. eigenvalues --  -11.22274 -11.22222 -11.22128 -11.22042 -11.21567
 Alpha  occ. eigenvalues --   -1.59828  -1.39382  -1.19347  -1.09275  -1.08741
 Alpha  occ. eigenvalues --   -1.04751  -1.04346  -0.96761  -0.95577  -0.87777
 Alpha  occ. eigenvalues --   -0.86148  -0.82412  -0.80435  -0.79065  -0.77455
 Alpha  occ. eigenvalues --   -0.72024  -0.71151  -0.70477  -0.65915  -0.64999
 Alpha  occ. eigenvalues --   -0.64755  -0.62099  -0.61754  -0.60155  -0.58376
 Alpha  occ. eigenvalues --   -0.56048  -0.55269  -0.53458  -0.53174  -0.53079
 Alpha  occ. eigenvalues --   -0.52843  -0.50702  -0.48797  -0.48779  -0.48714
 Alpha  occ. eigenvalues --   -0.47478  -0.46595  -0.46518  -0.44787  -0.44592
 Alpha  occ. eigenvalues --   -0.37323  -0.36356
 Alpha virt. eigenvalues --    0.05068   0.11296   0.16501   0.19337   0.22581
 Alpha virt. eigenvalues --    0.23595   0.25169   0.26328   0.27111   0.27460
 Alpha virt. eigenvalues --    0.28964   0.30352   0.30990   0.31075   0.32204

 Mulliken charges:
               1
     1  C   -0.177271
     2  C   -0.221011
     3  C   -0.170701
     4  C    0.158455
     5  C   -0.170822
     6  C   -0.221157
     7  H    0.236858
     8  H    0.223393
     9  H    0.275499
    10  H    0.275612
    11  H    0.223814
    12  N    0.487990
    13  O   -0.460418
    14  O   -0.460477
    15  C   -0.298263
    16  C   -0.305120
    17  C   -0.476040
    18  H    0.149216
    19  H    0.153547
    20  H    0.142212
    21  H    0.155968
    22  H    0.160190
    23  H    0.155598
    24  H    0.159743
    25  C   -0.298526
    26  C   -0.300220
    27  C   -0.476128
    28  H    0.146474
    29  H    0.151847
    30  H    0.151680
    31  H    0.153675
    32  H    0.156577
    33  H    0.155511
    34  H    0.162294
 Sum of Mulliken charges =  -0.00000

 Dipole moment (field-independent basis, Debye):
    X=             -5.0406    Y=             -1.8274    Z=              0.6514  Tot=              5.4011
 Quadrupole moment (field-independent basis, Debye-Ang):
   XX=           -127.5199   YY=            -94.5902   ZZ=            -91.1572
   XY=             -6.9192   XZ=              2.4368   YZ=              3.1940

 Normal termination of Gaussian 16 at Wed May  5 22:09:42 2021.
