 Gaussian 16, Revision A.03,
 Gaussian 16:  EM64L-G16RevA.03 25-Dec-2016

 -------------
 #p 6-31g* mp2
 -------------

 ------------------------------------------------------
 Input file generated by CHIRIPA (05-May-2021 14:51:09)
 ------------------------------------------------------
 Symbolic Z-matrix:
 Charge =  0 Multiplicity = 1

                         Standard orientation:
 ---------------------------------------------------------------------
 Center     Atomic      Atomic             Coordinates (Angstroms)
 Number     Number       Type             X           Y           Z
 ---------------------------------------------------------------------
      1          6           0        3.910240    0.426073    0.591252
      2          6           0        2.814174    1.124851   -0.213940
      3          6           0        1.705632    1.697739    0.669647
      4          1           0        3.461066   -0.380065    1.187347
      5          1           0        4.342069    1.140078    1.306175
      6          1           0        2.385486    0.410122   -0.928087
      7          1           0        3.266038    1.929296   -0.808334
      8          1           0        2.113667    2.431106    1.372698
      9          1           0        1.228113    0.903301    1.252265
     10          1           0        0.932635    2.192773    0.073595
     11          6           0        5.025559   -0.151865   -0.278103
     12          6           0        6.121624   -0.850644    0.527090
     13          6           0        7.230167   -1.423532   -0.356498
     14          1           0        4.593729   -0.865871   -0.993026
     15          1           0        5.474732    0.654273   -0.874198
     16          1           0        5.669761   -1.655088    1.121483
     17          1           0        6.550312   -0.135915    1.241236
     18          1           0        7.707686   -0.629094   -0.939116
     19          1           0        6.822131   -2.156899   -1.059549
     20          1           0        8.003163   -1.918565    0.239554
     21          6           0       -3.924923    0.348138   -0.387118
     22          6           0       -2.527381   -0.271828   -0.409497
     23          6           0       -1.451913    0.711264   -0.872845
     24          1           0       -4.171679    0.716872   -1.392151
     25          1           0       -3.918834    1.225170    0.274830
     26          1           0       -2.536450   -1.148245   -1.070123
     27          1           0       -2.284002   -0.639300    0.595663
     28          1           0       -1.413713    1.581316   -0.209406
     29          1           0       -1.667596    1.069480   -1.884658
     30          1           0       -0.460687    0.247300   -0.881310
     31          6           0       -5.010875   -0.622345    0.073968
     32          6           0       -6.408418   -0.002380    0.096347
     33          6           0       -7.483886   -0.985471    0.559696
     34          1           0       -5.016965   -1.499377   -0.587979
     35          1           0       -4.764120   -0.991078    1.079002
     36          1           0       -6.651797    0.365093   -0.908813
     37          1           0       -6.399349    0.874038    0.756974
     38          1           0       -7.268203   -1.343687    1.571508
     39          1           0       -7.522086   -1.855523   -0.103743
     40          1           0       -8.475111   -0.521507    0.568162
 ---------------------------------------------------------------------

 SCF Done:  E(RHF) =  -470.732145020     A.U. after   11 cycles
 E2 =    -0.1582969662D+01 EUMP2 =    -0.47231511468166D+03

 The electronic state is 1-A.
 Alpha  occ. eigenvalues --  -11.21593 -11.21587 -11.21575 -11.21566 -11.21391
 Alpha  occ. eigenvalues --  -11.21382 -11.21332 -11.21322 -11.21065 -11.21060
 Alpha  occ. eigenvalues --  -11.20984 -11.20911  -1.08424  -1.08394  -1.03558
 Alpha  occ. eigenvalues --   -1.03450  -0.96067  -0.95840  -0.87122  -0.86820
 Alpha  occ. eigenvalues --   -0.79648  -0.79492  -0.78231  -0.78217  -0.65068
 Alpha  occ. eigenvalues --   -0.65023  -0.61023  -0.60855  -0.59527  -0.59123
 Alpha  occ. eigenvalues --   -0.57601  -0.57525  -0.55380  -0.55117  -0.52928
 Alpha  occ. eigenvalues --   -0.52459  -0.52393  -0.52195  -0.49999  -0.49736
 Alpha  occ. eigenvalues --   -0.47951  -0.47814  -0.46657  -0.46537  -0.45775
 Alpha  occ. eigenvalues --   -0.45754  -0.45702  -0.45679  -0.43841  -0.43608
 Alpha virt. eigenvalues --    0.21830   0.23023   0.23569   0.25036   0.26473
 Alpha virt. eigenvalues --    0.26539   0.27086   0.27367   0.27587   0.29070
 Alpha virt. eigenvalues --    0.29467   0.30872   0.31323   0.31885   0.32388

 Mulliken charges:
               1
     1  C   -0.298155
     2  C   -0.302187
     3  C   -0.478620
     4  H    0.149392
     5  H    0.149633
     6  H    0.152212
     7  H    0.152055
     8  H    0.153795
     9  H    0.154289
    10  H    0.167242
    11  C   -0.298243
    12  C   -0.299616
    13  C   -0.475684
    14  H    0.149348
    15  H    0.149647
    16  H    0.151869
    17  H    0.151913
    18  H    0.155170
    19  H    0.155139
    20  H    0.160196
    21  C   -0.298615
    22  C   -0.299973
    23  C   -0.479243
    24  H    0.149577
    25  H    0.149688
    26  H    0.151421
    27  H    0.151622
    28  H    0.156543
    29  H    0.153951
    30  H    0.165771
    31  C   -0.298229
    32  C   -0.299628
    33  C   -0.475692
    34  H    0.149433
    35  H    0.149593
    36  H    0.151907
    37  H    0.151947
    38  H    0.155162
    39  H    0.155139
    40  H    0.160231
 Sum of Mulliken charges =  -0.00000

 Dipole moment (field-independent basis, Debye):
    X=             -0.0108    Y=              0.0178    Z=             -0.0062  Tot=              0.0217
 Quadrupole moment (field-independent basis, Debye-Ang):
   XX=            -86.2668   YY=            -84.4768   ZZ=            -84.2401
   XY=              0.3640   XZ=              0.8458   YZ=              0.2786

 Normal termination of Gaussian 16 at Wed May  5 16:37:41 2021.
