 Gaussian 16, Revision A.03,
 Gaussian 16:  EM64L-G16RevA.03 25-Dec-2016

 -------------
 #p 6-31g* mp2
 -------------

 ------------------------------------------------------
 Input file generated by CHIRIPA (05-May-2021 14:53:17)
 ------------------------------------------------------
 Symbolic Z-matrix:
 Charge =  0 Multiplicity = 1

                         Standard orientation:
 ---------------------------------------------------------------------
 Center     Atomic      Atomic             Coordinates (Angstroms)
 Number     Number       Type             X           Y           Z
 ---------------------------------------------------------------------
      1          6           0        5.031220   -0.430608    0.095090
      2          6           0        6.391520   -0.389191   -0.601943
      3          6           0        7.087191   -1.750600   -0.621974
      4          1           0        5.164544   -0.791021    1.124300
      5          1           0        4.389249   -1.164023   -0.412226
      6          1           0        7.030265    0.344931   -0.094316
      7          1           0        6.254967   -0.028652   -1.629552
      8          1           0        6.472746   -2.489515   -1.146438
      9          1           0        7.252449   -2.113809    0.397520
     10          1           0        8.057830   -1.698090   -1.124927
     11          6           0        4.323431    0.922897    0.123165
     12          6           0        2.963132    0.881480    0.820198
     13          6           0        2.267460    2.242889    0.840229
     14          1           0        4.965403    1.656313    0.630481
     15          1           0        4.190108    1.283311   -0.906045
     16          1           0        3.099684    0.520941    1.847807
     17          1           0        2.324386    0.147358    0.312571
     18          1           0        2.102202    2.606099   -0.179265
     19          1           0        2.881905    2.981805    1.364693
     20          1           0        1.296821    2.190380    1.343182
     21          6           0       -1.133824   -0.106640   -0.004721
     22          6           0       -1.827853   -1.037743    0.774954
     23          6           0       -3.224282   -1.094196    0.738279
     24          6           0       -3.897817   -0.200582   -0.093042
     25          6           0       -3.234806    0.738459   -0.881654
     26          6           0       -1.838274    0.776931   -0.829083
     27          1           0       -0.049003   -0.069770    0.029943
     28          1           0       -1.283387   -1.725164    1.416088
     29          1           0       -3.786695   -1.805000    1.331463
     30          1           0       -3.805162    1.410763   -1.511035
     31          1           0       -1.301914    1.501088   -1.435681
     32          7           0       -5.376210   -0.250830   -0.140282
     33          8           0       -5.946289    0.547383   -0.880894
     34          8           0       -5.936901   -1.087472    0.564197
 ---------------------------------------------------------------------

 SCF Done:  E(RHF) =  -669.535592310     A.U. after   15 cycles
 E2 =    -0.2091255114D+01 EUMP2 =    -0.67162684742423D+03

 The electronic state is 1-A.
 Alpha  occ. eigenvalues --  -20.60726 -20.60721 -15.85780 -11.31138 -11.27706
 Alpha  occ. eigenvalues --  -11.27703 -11.27404 -11.26715 -11.26704 -11.22847
 Alpha  occ. eigenvalues --  -11.22322 -11.22245 -11.22202 -11.22155 -11.21612
 Alpha  occ. eigenvalues --   -1.59802  -1.39356  -1.19307  -1.09330  -1.08699
 Alpha  occ. eigenvalues --   -1.04710  -1.04427  -0.96846  -0.95536  -0.87858
 Alpha  occ. eigenvalues --   -0.86105  -0.82375  -0.80517  -0.79109  -0.77422
 Alpha  occ. eigenvalues --   -0.71998  -0.71126  -0.70436  -0.65963  -0.64957
 Alpha  occ. eigenvalues --   -0.64714  -0.62060  -0.61830  -0.60250  -0.58467
 Alpha  occ. eigenvalues --   -0.56147  -0.55149  -0.53548  -0.53267  -0.53023
 Alpha  occ. eigenvalues --   -0.52800  -0.50789  -0.48820  -0.48753  -0.48750
 Alpha  occ. eigenvalues --   -0.47556  -0.46647  -0.46551  -0.44763  -0.44659
 Alpha  occ. eigenvalues --   -0.37278  -0.36318
 Alpha virt. eigenvalues --    0.05099   0.11330   0.16550   0.19364   0.22475
 Alpha virt. eigenvalues --    0.23836   0.25330   0.26101   0.26714   0.27622
 Alpha virt. eigenvalues --    0.28972   0.30191   0.30865   0.30932   0.31882

 Mulliken charges:
               1
     1  C   -0.298993
     2  C   -0.300295
     3  C   -0.476199
     4  H    0.150904
     5  H    0.148355
     6  H    0.153468
     7  H    0.152761
     8  H    0.155473
     9  H    0.155956
    10  H    0.162372
    11  C   -0.297624
    12  C   -0.305594
    13  C   -0.480031
    14  H    0.153440
    15  H    0.150551
    16  H    0.156331
    17  H    0.142713
    18  H    0.153647
    19  H    0.162307
    20  H    0.161327
    21  C   -0.178844
    22  C   -0.221992
    23  C   -0.170719
    24  C    0.158253
    25  C   -0.170743
    26  C   -0.221890
    27  H    0.239824
    28  H    0.223769
    29  H    0.275392
    30  H    0.275398
    31  H    0.223846
    32  N    0.487980
    33  O   -0.460563
    34  O   -0.460577
 Sum of Mulliken charges =  -0.00000

 Dipole moment (field-independent basis, Debye):
    X=              5.4754    Y=              0.2315    Z=              0.2061  Tot=              5.4841
 Quadrupole moment (field-independent basis, Debye-Ang):
   XX=           -135.1874   YY=            -92.9930   ZZ=            -92.2075
   XY=             -0.9279   XZ=             -0.5342   YZ=             -2.7618

 Normal termination of Gaussian 16 at Wed May  5 18:46:38 2021.
