 Gaussian 16, Revision A.03,
 Gaussian 16:  EM64L-G16RevA.03 25-Dec-2016

 -------------
 #p 6-31g* mp2
 -------------

 ------------------------------------------------------
 Input file generated by CHIRIPA (05-May-2021 14:57:23)
 ------------------------------------------------------
 Symbolic Z-matrix:
 Charge =  0 Multiplicity = 1

                         Standard orientation:
 ---------------------------------------------------------------------
 Center     Atomic      Atomic             Coordinates (Angstroms)
 Number     Number       Type             X           Y           Z
 ---------------------------------------------------------------------
      1          6           0        6.282647    1.095236   -1.119324
      2          6           0        5.291256    1.856610   -0.491651
      3          6           0        4.229325    1.232820    0.169968
      4          6           0        4.189876   -0.160567    0.184346
      5          6           0        5.162398   -0.946702   -0.431674
      6          6           0        6.215173   -0.301527   -1.087389
      7          1           0        7.104024    1.588117   -1.630992
      8          1           0        5.341088    2.941517   -0.514839
      9          1           0        3.448389    1.797932    0.664139
     10          1           0        5.085654   -2.026480   -0.391562
     11          1           0        6.983693   -0.895369   -1.573984
     12          7           0        3.070504   -0.832265    0.881647
     13          8           0        3.058602   -2.061286    0.879964
     14          8           0        2.226237   -0.117002    1.416670
     15          6           0       -1.920585   -0.148063    0.483508
     16          6           0       -2.663819    0.930709    0.973790
     17          6           0       -4.024039    1.050522    0.673798
     18          6           0       -4.611584    0.068997   -0.122877
     19          6           0       -3.897879   -1.017487   -0.626331
     20          6           0       -2.538897   -1.117010   -0.313582
     21          1           0       -0.864415   -0.233255    0.721504
     22          1           0       -2.186266    1.684698    1.593053
     23          1           0       -4.623072    1.875366    1.040145
     24          1           0       -4.401698   -1.753374   -1.241193
     25          1           0       -1.964171   -1.955878   -0.695726
     26          7           0       -6.050932    0.185098   -0.447218
     27          8           0       -6.545114   -0.692905   -1.151159
     28          8           0       -6.657657    1.151901    0.008646
 ---------------------------------------------------------------------

 SCF Done:  E(RHF) =  -868.340518828     A.U. after   16 cycles
 E2 =    -0.2598035291D+01 EUMP2 =    -0.87093855411953D+03

 The electronic state is 1-A.
 Alpha  occ. eigenvalues --  -20.61941 -20.61901 -20.60152 -20.60147 -15.86938
 Alpha  occ. eigenvalues --  -15.85202 -11.32002 -11.30382 -11.28546 -11.28520
 Alpha  occ. eigenvalues --  -11.28207 -11.27475 -11.27460 -11.26963 -11.26951
 Alpha  occ. eigenvalues --  -11.26423 -11.25853 -11.25829  -1.60980  -1.59233
 Alpha  occ. eigenvalues --   -1.40541  -1.38792  -1.20144  -1.18526  -1.09592
 Alpha  occ. eigenvalues --   -1.07910  -1.05500  -1.03917  -0.96477  -0.94780
 Alpha  occ. eigenvalues --   -0.86911  -0.85296  -0.83322  -0.81636  -0.78405
 Alpha  occ. eigenvalues --   -0.76750  -0.73169  -0.72279  -0.71421  -0.71243
 Alpha  occ. eigenvalues --   -0.70556  -0.69498  -0.65798  -0.65495  -0.64157
 Alpha  occ. eigenvalues --   -0.63898  -0.62851  -0.61281  -0.56004  -0.54239
 Alpha  occ. eigenvalues --   -0.53842  -0.53585  -0.52247  -0.51990  -0.49936
 Alpha  occ. eigenvalues --   -0.49893  -0.48188  -0.48161  -0.46005  -0.44240
 Alpha  occ. eigenvalues --   -0.38101  -0.37089  -0.36434  -0.35549
 Alpha virt. eigenvalues --    0.04075   0.05799   0.10571   0.12124   0.15620
 Alpha virt. eigenvalues --    0.17358   0.20744   0.22503   0.26680   0.27582
 Alpha virt. eigenvalues --    0.28168   0.29486   0.30379   0.31711   0.32312

 Mulliken charges:
               1
     1  C   -0.169587
     2  C   -0.218333
     3  C   -0.170552
     4  C    0.157409
     5  C   -0.170390
     6  C   -0.218451
     7  H    0.228488
     8  H    0.225695
     9  H    0.274069
    10  H    0.276566
    11  H    0.226030
    12  N    0.489187
    13  O   -0.456690
    14  O   -0.469551
    15  C   -0.179221
    16  C   -0.221058
    17  C   -0.172005
    18  C    0.156953
    19  C   -0.171847
    20  C   -0.220901
    21  H    0.248673
    22  H    0.222844
    23  H    0.272423
    24  H    0.272838
    25  H    0.224701
    26  N    0.488311
    27  O   -0.462650
    28  O   -0.462951
 Sum of Mulliken charges =  -0.00000

 Dipole moment (field-independent basis, Debye):
    X=              9.6432    Y=              1.9190    Z=             -1.3357  Tot=              9.9226
 Quadrupole moment (field-independent basis, Debye-Ang):
   XX=           -119.0464   YY=            -98.2775   ZZ=           -105.6992
   XY=              9.6468   XZ=            -16.8711   YZ=              4.7334

 Normal termination of Gaussian 16 at Thu May  6 09:46:31 2021.
