 Gaussian 16, Revision A.03,
 Gaussian 16:  EM64L-G16RevA.03 25-Dec-2016

 -------------
 #p 6-31g* mp2
 -------------

 ------------------------------------------------------
 Input file generated by CHIRIPA (05-May-2021 14:55:20)
 ------------------------------------------------------
 Symbolic Z-matrix:
 Charge =  0 Multiplicity = 1

                         Standard orientation:
 ---------------------------------------------------------------------
 Center     Atomic      Atomic             Coordinates (Angstroms)
 Number     Number       Type             X           Y           Z
 ---------------------------------------------------------------------
      1          6           0        3.587091   -1.788816   -1.283189
      2          6           0        2.459982   -2.234242   -0.584805
      3          6           0        1.800036   -1.388413    0.311629
      4          6           0        2.296592   -0.097576    0.486164
      5          6           0        3.417177    0.375451   -0.194883
      6          6           0        4.061256   -0.487685   -1.086347
      7          1           0        4.093590   -2.452598   -1.977630
      8          1           0        2.089507   -3.244207   -0.735679
      9          1           0        0.925364   -1.707448    0.865328
     10          1           0        3.762964    1.387607   -0.023448
     11          1           0        4.936363   -0.139057   -1.627355
     12          7           0        1.606337    0.807026    1.432547
     13          8           0        2.063661    1.939719    1.568553
     14          8           0        0.621060    0.366232    2.020396
     15          6           0       -3.284172   -0.205870    0.098699
     16          6           0       -4.523168   -1.012102   -0.292280
     17          6           0       -4.908615   -2.051541    0.760712
     18          1           0       -2.443318   -0.893825    0.261872
     19          1           0       -3.469184    0.294938    1.059093
     20          1           0       -4.336381   -1.510130   -1.252330
     21          1           0       -5.361121   -0.322132   -0.454728
     22          1           0       -5.121637   -1.567906    1.719523
     23          1           0       -4.091075   -2.762653    0.917389
     24          1           0       -5.796819   -2.616415    0.460925
     25          6           0       -2.886336    0.837333   -0.943981
     26          6           0       -1.647341    1.643566   -0.553002
     27          6           0       -1.261894    2.683005   -1.605993
     28          1           0       -2.701324    0.336525   -1.904375
     29          1           0       -3.727191    1.525288   -1.107155
     30          1           0       -0.809387    0.953595   -0.390554
     31          1           0       -1.834127    2.141593    0.407048
     32          1           0       -2.079435    3.394118   -1.762672
     33          1           0       -1.048871    2.199370   -2.564805
     34          1           0       -0.373690    3.247878   -1.306207
 ---------------------------------------------------------------------

 SCF Done:  E(RHF) =  -669.535670409     A.U. after   15 cycles
 E2 =    -0.2092487514D+01 EUMP2 =    -0.67162815792274D+03

 The electronic state is 1-A.
 Alpha  occ. eigenvalues --  -20.60869 -20.60864 -15.85888 -11.31270 -11.27838
 Alpha  occ. eigenvalues --  -11.27826 -11.27572 -11.26849 -11.26839 -11.21248
 Alpha  occ. eigenvalues --  -11.20878 -11.20827 -11.20794 -11.20783 -11.20463
 Alpha  occ. eigenvalues --   -1.59926  -1.39482  -1.19438  -1.08833  -1.07899
 Alpha  occ. eigenvalues --   -1.04840  -1.03021  -0.95667  -0.95493  -0.86512
 Alpha  occ. eigenvalues --   -0.86238  -0.82500  -0.79078  -0.77709  -0.77522
 Alpha  occ. eigenvalues --   -0.72120  -0.71249  -0.70543  -0.65092  -0.64843
 Alpha  occ. eigenvalues --   -0.64541  -0.62186  -0.60431  -0.58851  -0.57077
 Alpha  occ. eigenvalues --   -0.55339  -0.54801  -0.53166  -0.52931  -0.52188
 Alpha  occ. eigenvalues --   -0.51911  -0.49457  -0.48888  -0.48882  -0.47416
 Alpha  occ. eigenvalues --   -0.46142  -0.45477  -0.45143  -0.44545  -0.43265
 Alpha  occ. eigenvalues --   -0.37413  -0.36439
 Alpha virt. eigenvalues --    0.04970   0.11153   0.16440   0.21136   0.23172
 Alpha virt. eigenvalues --    0.24706   0.25969   0.27459   0.27683   0.28266
 Alpha virt. eigenvalues --    0.28880   0.31098   0.31738   0.32168   0.32231

 Mulliken charges:
               1
     1  C   -0.170666
     2  C   -0.218449
     3  C   -0.173003
     4  C    0.157231
     5  C   -0.170832
     6  C   -0.218436
     7  H    0.225933
     8  H    0.223746
     9  H    0.276302
    10  H    0.275864
    11  H    0.223836
    12  N    0.489317
    13  O   -0.459302
    14  O   -0.457383
    15  C   -0.295566
    16  C   -0.299570
    17  C   -0.474597
    18  H    0.146492
    19  H    0.155626
    20  H    0.148336
    21  H    0.151681
    22  H    0.157377
    23  H    0.152116
    24  H    0.158297
    25  C   -0.299084
    26  C   -0.297674
    27  C   -0.477594
    28  H    0.144170
    29  H    0.148323
    30  H    0.147037
    31  H    0.163673
    32  H    0.153736
    33  H    0.149322
    34  H    0.163741
 Sum of Mulliken charges =  -0.00000

 Dipole moment (field-independent basis, Debye):
    X=              2.5436    Y=             -3.1087    Z=             -3.1629  Tot=              5.1125
 Quadrupole moment (field-independent basis, Debye-Ang):
   XX=            -81.7432   YY=            -92.0264   ZZ=            -98.9845
   XY=             -5.9490   XZ=             -7.8999   YZ=             -0.9071

 Normal termination of Gaussian 16 at Wed May  5 20:33:52 2021.
