 Gaussian 16, Revision A.03,
 Gaussian 16:  EM64L-G16RevA.03 25-Dec-2016

 -------------
 #p 6-31g* mp2
 -------------

 ------------------------------------------------------
 Input file generated by CHIRIPA (05-May-2021 14:51:13)
 ------------------------------------------------------
 Symbolic Z-matrix:
 Charge =  0 Multiplicity = 1

                         Standard orientation:
 ---------------------------------------------------------------------
 Center     Atomic      Atomic             Coordinates (Angstroms)
 Number     Number       Type             X           Y           Z
 ---------------------------------------------------------------------
      1          6           0       -3.960996    0.600136   -0.213895
      2          6           0       -3.692586    1.854138    0.618824
      3          6           0       -4.785347    2.912180    0.463214
      4          1           0       -4.051871    0.882639   -1.271666
      5          1           0       -4.930075    0.173706    0.080108
      6          1           0       -2.723663    2.277295    0.324306
      7          1           0       -3.602150    1.568591    1.674713
      8          1           0       -5.755574    2.512809    0.775884
      9          1           0       -4.872096    3.225540   -0.582195
     10          1           0       -4.573400    3.800051    1.067055
     11          6           0       -2.877331   -0.466806   -0.068872
     12          6           0       -3.145741   -1.720807   -0.901592
     13          6           0       -2.052980   -2.778849   -0.745982
     14          1           0       -1.908252   -0.040375   -0.362875
     15          1           0       -2.786456   -0.749308    0.988899
     16          1           0       -3.236177   -1.435261   -1.957481
     17          1           0       -4.114664   -2.143965   -0.607073
     18          1           0       -1.966231   -3.092209    0.299428
     19          1           0       -1.082753   -2.379478   -1.058652
     20          1           0       -2.264927   -3.666720   -1.349822
     21          6           0        4.088871    0.298992    0.106467
     22          6           0        3.987896    1.690913   -0.518309
     23          6           0        5.335838    2.409868   -0.581178
     24          1           0        4.506223    0.387846    1.118824
     25          1           0        4.800803   -0.304731   -0.473244
     26          1           0        3.275322    2.291388    0.061592
     27          1           0        3.570557    1.598754   -1.529224
     28          1           0        6.051877    1.834567   -1.176927
     29          1           0        5.754965    2.531137    0.422927
     30          1           0        5.240548    3.402953   -1.031247
     31          6           0        2.749456   -0.432322    0.176300
     32          6           0        2.850431   -1.824243    0.801076
     33          6           0        1.502489   -2.543198    0.863946
     34          1           0        2.037524    0.171400    0.756012
     35          1           0        2.332104   -0.521177   -0.836056
     36          1           0        3.267771   -1.732085    1.811993
     37          1           0        3.563006   -2.424719    0.221176
     38          1           0        1.083362   -2.664468   -0.140159
     39          1           0        0.786450   -1.967898    1.459695
     40          1           0        1.597778   -3.536283    1.314015
 ---------------------------------------------------------------------

 SCF Done:  E(RHF) =  -470.732916177     A.U. after   11 cycles
 E2 =    -0.1582692058D+01 EUMP2 =    -0.47231560823492D+03

 The electronic state is 1-A.
 Alpha  occ. eigenvalues --  -11.21606 -11.21589 -11.21556 -11.21549 -11.21400
 Alpha  occ. eigenvalues --  -11.21376 -11.21341 -11.21316 -11.21074 -11.21062
 Alpha  occ. eigenvalues --  -11.20963 -11.20963  -1.08420  -1.08395  -1.03528
 Alpha  occ. eigenvalues --   -1.03470  -0.96004  -0.95892  -0.87055  -0.86876
 Alpha  occ. eigenvalues --   -0.79670  -0.79463  -0.78263  -0.78176  -0.65061
 Alpha  occ. eigenvalues --   -0.65018  -0.60974  -0.60831  -0.59345  -0.59292
 Alpha  occ. eigenvalues --   -0.57721  -0.57423  -0.55367  -0.55116  -0.52717
 Alpha  occ. eigenvalues --   -0.52625  -0.52591  -0.52107  -0.50038  -0.49739
 Alpha  occ. eigenvalues --   -0.48125  -0.47622  -0.46695  -0.46482  -0.45881
 Alpha  occ. eigenvalues --   -0.45713  -0.45681  -0.45555  -0.43766  -0.43748
 Alpha virt. eigenvalues --    0.22000   0.23109   0.23566   0.24867   0.25915
 Alpha virt. eigenvalues --    0.26605   0.26726   0.27521   0.27998   0.29348
 Alpha virt. eigenvalues --    0.29879   0.31498   0.31820   0.32015   0.32034

 Mulliken charges:
               1
     1  C   -0.298206
     2  C   -0.299652
     3  C   -0.475671
     4  H    0.149597
     5  H    0.149472
     6  H    0.151928
     7  H    0.151726
     8  H    0.155172
     9  H    0.155190
    10  H    0.160136
    11  C   -0.298455
    12  C   -0.299862
    13  C   -0.477792
    14  H    0.150072
    15  H    0.149273
    16  H    0.151421
    17  H    0.151553
    18  H    0.156828
    19  H    0.158153
    20  H    0.159211
    21  C   -0.298170
    22  C   -0.299648
    23  C   -0.475693
    24  H    0.149778
    25  H    0.149544
    26  H    0.151881
    27  H    0.151693
    28  H    0.155203
    29  H    0.155239
    30  H    0.160199
    31  C   -0.298233
    32  C   -0.300136
    33  C   -0.478114
    34  H    0.149703
    35  H    0.148495
    36  H    0.151580
    37  H    0.151616
    38  H    0.159702
    39  H    0.155546
    40  H    0.159722
 Sum of Mulliken charges =  -0.00000

 Dipole moment (field-independent basis, Debye):
    X=              0.0011    Y=             -0.0179    Z=              0.0039  Tot=              0.0183
 Quadrupole moment (field-independent basis, Debye-Ang):
   XX=            -85.9562   YY=            -85.6090   ZZ=            -83.3258
   XY=              0.1766   XZ=             -0.5025   YZ=              0.1205

 Normal termination of Gaussian 16 at Thu May  6 03:59:22 2021.
