 Gaussian 16, Revision A.03,
 Gaussian 16:  EM64L-G16RevA.03 25-Dec-2016

 -------------
 #p 6-31g* mp2
 -------------

 ------------------------------------------------------
 Input file generated by CHIRIPA (05-May-2021 14:57:24)
 ------------------------------------------------------
 Symbolic Z-matrix:
 Charge =  0 Multiplicity = 1

                         Standard orientation:
 ---------------------------------------------------------------------
 Center     Atomic      Atomic             Coordinates (Angstroms)
 Number     Number       Type             X           Y           Z
 ---------------------------------------------------------------------
      1          6           0       -3.517146    2.635038    0.210626
      2          6           0       -2.566310    1.985793    1.004927
      3          6           0       -2.354746    0.609753    0.877245
      4          6           0       -3.115058   -0.089281   -0.059006
      5          6           0       -4.069803    0.529046   -0.864874
      6          6           0       -4.264540    1.905877   -0.720099
      7          1           0       -3.674958    3.704286    0.316451
      8          1           0       -1.984425    2.549530    1.728567
      9          1           0       -1.625174    0.081954    1.479384
     10          1           0       -4.634587   -0.059663   -1.577516
     11          1           0       -5.003655    2.407451   -1.338304
     12          7           0       -2.899992   -1.546452   -0.203225
     13          8           0       -3.582718   -2.139720   -1.035424
     14          8           0       -2.052769   -2.067723    0.518667
     15          6           0        1.614158   -1.953882    0.903994
     16          6           0        1.968744   -0.879903    1.727012
     17          6           0        2.819301    0.124799    1.256190
     18          6           0        3.299032    0.023430   -0.048752
     19          6           0        2.964031   -1.034082   -0.892987
     20          6           0        2.112055   -2.027414   -0.401078
     21          1           0        0.952873   -2.729943    1.277930
     22          1           0        1.583582   -0.820198    2.740979
     23          1           0        3.109944    0.967285    1.871952
     24          1           0        3.363901   -1.066206   -1.899213
     25          1           0        1.838369   -2.860322   -1.042486
     26          7           0        4.200230    1.081045   -0.558352
     27          8           0        4.609432    0.968610   -1.711846
     28          8           0        4.480323    2.002412    0.205367
 ---------------------------------------------------------------------

 SCF Done:  E(RHF) =  -868.339895449     A.U. after   16 cycles
 E2 =    -0.2599086149D+01 EUMP2 =    -0.87093898159812D+03

 The electronic state is 1-A.
 Alpha  occ. eigenvalues --  -20.61507 -20.61459 -20.60598 -20.60584 -15.86526
 Alpha  occ. eigenvalues --  -15.85646 -11.31644 -11.30861 -11.28208 -11.28173
 Alpha  occ. eigenvalues --  -11.27869 -11.27513 -11.27414 -11.27147 -11.27128
 Alpha  occ. eigenvalues --  -11.26980 -11.26422 -11.26256  -1.60549  -1.59675
 Alpha  occ. eigenvalues --   -1.40113  -1.39233  -1.19792  -1.19024  -1.09228
 Alpha  occ. eigenvalues --   -1.08396  -1.05163  -1.04422  -0.96110  -0.95257
 Alpha  occ. eigenvalues --   -0.86571  -0.85796  -0.82962  -0.82111  -0.78036
 Alpha  occ. eigenvalues --   -0.77221  -0.72778  -0.71865  -0.71852  -0.71002
 Alpha  occ. eigenvalues --   -0.70899  -0.69993  -0.65452  -0.65166  -0.64654
 Alpha  occ. eigenvalues --   -0.64398  -0.62523  -0.61780  -0.55662  -0.54746
 Alpha  occ. eigenvalues --   -0.53497  -0.53264  -0.52733  -0.52491  -0.49524
 Alpha  occ. eigenvalues --   -0.49480  -0.48629  -0.48606  -0.45572  -0.44673
 Alpha  occ. eigenvalues --   -0.37748  -0.36906  -0.36747  -0.36059
 Alpha virt. eigenvalues --    0.04468   0.05362   0.10901   0.11546   0.16002
 Alpha virt. eigenvalues --    0.16927   0.20831   0.21988   0.26586   0.27453
 Alpha virt. eigenvalues --    0.28140   0.29041   0.30709   0.31462   0.31995

 Mulliken charges:
               1
     1  C   -0.169515
     2  C   -0.218002
     3  C   -0.168517
     4  C    0.157871
     5  C   -0.170437
     6  C   -0.218402
     7  H    0.228169
     8  H    0.224510
     9  H    0.270472
    10  H    0.276094
    11  H    0.225318
    12  N    0.490688
    13  O   -0.457442
    14  O   -0.471434
    15  C   -0.163285
    16  C   -0.227662
    17  C   -0.172926
    18  C    0.156815
    19  C   -0.171480
    20  C   -0.220650
    21  H    0.241859
    22  H    0.219535
    23  H    0.271680
    24  H    0.274762
    25  H    0.228336
    26  N    0.488262
    27  O   -0.460945
    28  O   -0.463674
 Sum of Mulliken charges =  -0.00000

 Dipole moment (field-independent basis, Debye):
    X=             -4.2034    Y=              1.2947    Z=              2.1963  Tot=              4.9161
 Quadrupole moment (field-independent basis, Debye-Ang):
   XX=           -120.0290   YY=           -105.2291   ZZ=            -99.3642
   XY=            -29.3251   XZ=              7.2329   YZ=              2.4053

 Normal termination of Gaussian 16 at Wed May  5 21:05:43 2021.
