 Gaussian 16, Revision A.03,
 Gaussian 16:  EM64L-G16RevA.03 25-Dec-2016

 -------------
 #p 6-31g* mp2
 -------------

 ------------------------------------------------------
 Input file generated by CHIRIPA (05-May-2021 14:51:08)
 ------------------------------------------------------
 Symbolic Z-matrix:
 Charge =  0 Multiplicity = 1

                         Standard orientation:
 ---------------------------------------------------------------------
 Center     Atomic      Atomic             Coordinates (Angstroms)
 Number     Number       Type             X           Y           Z
 ---------------------------------------------------------------------
      1          6           0       -2.816087    0.849448   -0.438085
      2          6           0       -3.510035    2.081104    0.144534
      3          6           0       -2.755599    3.378431   -0.147978
      4          1           0       -1.797962    0.783048   -0.030704
      5          1           0       -2.710416    0.976285   -1.524428
      6          1           0       -3.615608    1.951370    1.229264
      7          1           0       -4.526692    2.144472   -0.264134
      8          1           0       -2.662493    3.534901   -1.227538
      9          1           0       -1.746233    3.340702    0.274345
     10          1           0       -3.269184    4.246195    0.277552
     11          6           0       -3.558294   -0.455213   -0.153981
     12          6           0       -2.864346   -1.686870   -0.736599
     13          6           0       -3.618782   -2.984197   -0.444087
     14          1           0       -3.663965   -0.582051    0.932362
     15          1           0       -4.576419   -0.388814   -0.561362
     16          1           0       -1.847690   -1.750238   -0.327931
     17          1           0       -2.758773   -1.557136   -1.821329
     18          1           0       -4.628148   -2.946468   -0.866411
     19          1           0       -3.711888   -3.140667    0.635473
     20          1           0       -3.105197   -3.851961   -0.869618
     21          6           0        2.629306   -0.022258    0.787583
     22          6           0        1.448018   -0.991622    0.733951
     23          6           0        0.340025   -0.628588    1.723068
     24          1           0        3.036954   -0.007091    1.807651
     25          1           0        2.269635    0.994972    0.579558
     26          1           0        1.810037   -2.006921    0.940651
     27          1           0        1.043255   -1.004627   -0.286154
     28          1           0       -0.048843    0.373491    1.515175
     29          1           0        0.722296   -0.634498    2.748951
     30          1           0       -0.494515   -1.334535    1.667921
     31          6           0        3.745075   -0.371976   -0.195517
     32          6           0        4.926363    0.597388   -0.141885
     33          6           0        6.034356    0.234354   -1.131003
     34          1           0        4.104746   -1.389207    0.012508
     35          1           0        3.337427   -0.387143   -1.215585
     36          1           0        5.331126    0.610392    0.878220
     37          1           0        4.564344    1.612687   -0.348585
     38          1           0        5.652084    0.240263   -2.156886
     39          1           0        6.423224   -0.767725   -0.923110
     40          1           0        6.868896    0.940300   -1.075855
 ---------------------------------------------------------------------

 SCF Done:  E(RHF) =  -470.732607137     A.U. after   11 cycles
 E2 =    -0.1583911973D+01 EUMP2 =    -0.47231651910967D+03

 The electronic state is 1-A.
 Alpha  occ. eigenvalues --  -11.21674 -11.21622 -11.21574 -11.21550 -11.21449
 Alpha  occ. eigenvalues --  -11.21385 -11.21351 -11.21280 -11.21159 -11.21085
 Alpha  occ. eigenvalues --  -11.21079 -11.21057  -1.08487  -1.08387  -1.03590
 Alpha  occ. eigenvalues --   -1.03505  -0.96050  -0.95949  -0.87060  -0.86975
 Alpha  occ. eigenvalues --   -0.79655  -0.79567  -0.78285  -0.78212  -0.65242
 Alpha  occ. eigenvalues --   -0.64940  -0.60986  -0.60962  -0.59438  -0.59271
 Alpha  occ. eigenvalues --   -0.57665  -0.57547  -0.55471  -0.55123  -0.52760
 Alpha  occ. eigenvalues --   -0.52637  -0.52511  -0.52344  -0.50081  -0.49820
 Alpha  occ. eigenvalues --   -0.48016  -0.47843  -0.46775  -0.46504  -0.45883
 Alpha  occ. eigenvalues --   -0.45751  -0.45713  -0.45522  -0.43824  -0.43750
 Alpha virt. eigenvalues --    0.20264   0.23048   0.23404   0.24313   0.26256
 Alpha virt. eigenvalues --    0.26717   0.27193   0.27573   0.27901   0.29334
 Alpha virt. eigenvalues --    0.30463   0.31306   0.31700   0.32020   0.32348

 Mulliken charges:
               1
     1  C   -0.305811
     2  C   -0.299519
     3  C   -0.475521
     4  H    0.158211
     5  H    0.148698
     6  H    0.152122
     7  H    0.151883
     8  H    0.155124
     9  H    0.153986
    10  H    0.160405
    11  C   -0.297447
    12  C   -0.307165
    13  C   -0.475672
    14  H    0.149504
    15  H    0.149573
    16  H    0.159364
    17  H    0.151606
    18  H    0.155320
    19  H    0.154772
    20  H    0.160130
    21  C   -0.298252
    22  C   -0.302791
    23  C   -0.481611
    24  H    0.149882
    25  H    0.149567
    26  H    0.152530
    27  H    0.154364
    28  H    0.157138
    29  H    0.156280
    30  H    0.162754
    31  C   -0.298413
    32  C   -0.299737
    33  C   -0.475748
    34  H    0.149610
    35  H    0.149990
    36  H    0.151951
    37  H    0.152084
    38  H    0.155288
    39  H    0.155201
    40  H    0.160350
 Sum of Mulliken charges =  -0.00000

 Dipole moment (field-independent basis, Debye):
    X=              0.0412    Y=             -0.0084    Z=              0.0123  Tot=              0.0438
 Quadrupole moment (field-independent basis, Debye-Ang):
   XX=            -85.3360   YY=            -85.5554   ZZ=            -83.9853
   XY=             -0.6624   XZ=              1.3813   YZ=             -0.4855

 Normal termination of Gaussian 16 at Wed May  5 18:06:49 2021.
