 Gaussian 16, Revision A.03,
 Gaussian 16:  EM64L-G16RevA.03 25-Dec-2016

 -------------
 #p 6-31g* mp2
 -------------

 ------------------------------------------------------
 Input file generated by CHIRIPA (05-May-2021 14:55:25)
 ------------------------------------------------------
 Symbolic Z-matrix:
 Charge =  0 Multiplicity = 1

                         Standard orientation:
 ---------------------------------------------------------------------
 Center     Atomic      Atomic             Coordinates (Angstroms)
 Number     Number       Type             X           Y           Z
 ---------------------------------------------------------------------
      1          6           0        1.732409   -2.345307    0.779820
      2          6           0        0.958129   -1.554984   -0.075984
      3          6           0        1.435683   -0.321859   -0.529738
      4          6           0        2.697585    0.091955   -0.105886
      5          6           0        3.492770   -0.672784    0.746255
      6          6           0        2.995033   -1.902466    1.187489
      7          1           0        1.353594   -3.301891    1.127445
      8          1           0       -0.022803   -1.896367   -0.394221
      9          1           0        0.857218    0.309994   -1.192730
     10          1           0        4.466793   -0.305774    1.046258
     11          1           0        3.598545   -2.514143    1.852070
     12          7           0        3.213834    1.395587   -0.579628
     13          8           0        4.328795    1.737613   -0.191666
     14          8           0        2.493732    2.050662   -1.329940
     15          6           0       -2.994199   -0.521711    0.034864
     16          6           0       -3.769098   -1.602191   -0.720170
     17          6           0       -3.056546   -2.954969   -0.712760
     18          1           0       -1.996522   -0.414688   -0.412499
     19          1           0       -2.838173   -0.849316    1.072036
     20          1           0       -3.924819   -1.272039   -1.755239
     21          1           0       -4.765114   -1.706519   -0.271079
     22          1           0       -2.914670   -3.310033    0.313107
     23          1           0       -2.069601   -2.873085   -1.179486
     24          1           0       -3.627887   -3.712658   -1.258047
     25          6           0       -3.693804    0.836331    0.036323
     26          6           0       -2.918904    1.916813    0.791358
     27          6           0       -3.631456    3.269591    0.783947
     28          1           0       -3.849829    1.163937   -1.000848
     29          1           0       -4.691480    0.729309    0.483687
     30          1           0       -1.922887    2.021141    0.342267
     31          1           0       -2.763184    1.586661    1.826426
     32          1           0       -4.618402    3.187706    1.250673
     33          1           0       -3.773332    3.624655   -0.241919
     34          1           0       -3.060116    4.027279    1.329235
 ---------------------------------------------------------------------

 SCF Done:  E(RHF) =  -669.535019041     A.U. after   15 cycles
 E2 =    -0.2092425382D+01 EUMP2 =    -0.67162744442283D+03

 The electronic state is 1-A.
 Alpha  occ. eigenvalues --  -20.60733 -20.60728 -15.85785 -11.31134 -11.27695
 Alpha  occ. eigenvalues --  -11.27689 -11.27413 -11.26713 -11.26631 -11.22413
 Alpha  occ. eigenvalues --  -11.22190 -11.22166 -11.21887 -11.21827 -11.21187
 Alpha  occ. eigenvalues --   -1.59809  -1.39363  -1.19296  -1.09059  -1.08691
 Alpha  occ. eigenvalues --   -1.04699  -1.04109  -0.96588  -0.95533  -0.87604
 Alpha  occ. eigenvalues --   -0.86098  -0.82379  -0.80207  -0.78845  -0.77408
 Alpha  occ. eigenvalues --   -0.72004  -0.71131  -0.70406  -0.65735  -0.64944
 Alpha  occ. eigenvalues --   -0.64702  -0.62101  -0.61456  -0.59967  -0.58179
 Alpha  occ. eigenvalues --   -0.55906  -0.55195  -0.53252  -0.53083  -0.52990
 Alpha  occ. eigenvalues --   -0.52785  -0.50542  -0.48781  -0.48761  -0.48461
 Alpha  occ. eigenvalues --   -0.47220  -0.46348  -0.46252  -0.44773  -0.44360
 Alpha  occ. eigenvalues --   -0.37272  -0.36282
 Alpha virt. eigenvalues --    0.05093   0.11330   0.16534   0.19397   0.22674
 Alpha virt. eigenvalues --    0.23511   0.24854   0.26286   0.26601   0.28859
 Alpha virt. eigenvalues --    0.29608   0.30225   0.31120   0.31608   0.31947

 Mulliken charges:
               1
     1  C   -0.174163
     2  C   -0.224802
     3  C   -0.174722
     4  C    0.158910
     5  C   -0.171417
     6  C   -0.218373
     7  H    0.226079
     8  H    0.237165
     9  H    0.274779
    10  H    0.275301
    11  H    0.223121
    12  N    0.488202
    13  O   -0.460587
    14  O   -0.460960
    15  C   -0.300861
    16  C   -0.300379
    17  C   -0.480748
    18  H    0.142081
    19  H    0.150859
    20  H    0.155338
    21  H    0.156314
    22  H    0.154941
    23  H    0.147954
    24  H    0.166809
    25  C   -0.298906
    26  C   -0.300762
    27  C   -0.476181
    28  H    0.151739
    29  H    0.151469
    30  H    0.154463
    31  H    0.152033
    32  H    0.154545
    33  H    0.157003
    34  H    0.163759
 Sum of Mulliken charges =  -0.00000

 Dipole moment (field-independent basis, Debye):
    X=             -2.0292    Y=             -4.5327    Z=              1.7064  Tot=              5.2511
 Quadrupole moment (field-independent basis, Debye-Ang):
   XX=           -100.4144   YY=            -96.8739   ZZ=            -93.6205
   XY=            -12.8343   XZ=              6.9765   YZ=             -0.1228

 Normal termination of Gaussian 16 at Thu May  6 16:04:21 2021.
