 Gaussian 16, Revision A.03,
 Gaussian 16:  EM64L-G16RevA.03 25-Dec-2016

 -------------
 #p 6-31g* mp2
 -------------

 ------------------------------------------------------
 Input file generated by CHIRIPA (05-May-2021 14:51:13)
 ------------------------------------------------------
 Symbolic Z-matrix:
 Charge =  0 Multiplicity = 1

                         Standard orientation:
 ---------------------------------------------------------------------
 Center     Atomic      Atomic             Coordinates (Angstroms)
 Number     Number       Type             X           Y           Z
 ---------------------------------------------------------------------
      1          6           0        3.206040   -0.588041   -0.815837
      2          6           0        2.695412   -1.854091   -0.127098
      3          6           0        2.564554   -3.037271   -1.086657
      4          1           0        2.523905   -0.323593   -1.635412
      5          1           0        4.181483   -0.797509   -1.276304
      6          1           0        1.721861   -1.641910    0.333114
      7          1           0        3.378738   -2.115447    0.691055
      8          1           0        3.533291   -3.277223   -1.536739
      9          1           0        1.867000   -2.800995   -1.896714
     10          1           0        2.198033   -3.931764   -0.573427
     11          6           0        3.342156    0.603498    0.130437
     12          6           0        3.852785    1.869548   -0.558303
     13          6           0        3.983642    3.052729    0.401256
     14          1           0        2.366714    0.812967    0.590903
     15          1           0        4.024292    0.339050    0.950012
     16          1           0        3.169458    2.130904   -1.376455
     17          1           0        4.826335    1.657367   -1.018515
     18          1           0        4.681197    2.816452    1.211313
     19          1           0        3.014906    3.292680    0.851339
     20          1           0        4.350164    3.947221   -0.111974
     21          6           0       -3.981933    0.274552    0.290547
     22          6           0       -4.467705    0.430917   -1.150828
     23          6           0       -5.885419    0.996733   -1.238759
     24          1           0       -4.674601   -0.381712    0.835041
     25          1           0       -4.019218    1.252191    0.790772
     26          1           0       -4.428203   -0.546468   -1.648599
     27          1           0       -3.773695    1.086730   -1.692008
     28          1           0       -5.936364    1.983398   -0.767062
     29          1           0       -6.594591    0.340921   -0.723407
     30          1           0       -6.212626    1.100239   -2.278029
     31          6           0       -2.566264   -0.290009    0.394854
     32          6           0       -2.080493   -0.446373    1.836229
     33          6           0       -0.662777   -1.012190    1.924159
     34          1           0       -2.528978   -1.267648   -0.105372
     35          1           0       -1.873597    0.366254   -0.149641
     36          1           0       -2.774502   -1.102187    2.377408
     37          1           0       -2.119993    0.531011    2.334000
     38          1           0        0.046395   -0.356378    1.408808
     39          1           0       -0.611833   -1.998855    1.452462
     40          1           0       -0.335571   -1.115697    2.963429
 ---------------------------------------------------------------------

 SCF Done:  E(RHF) =  -470.732652755     A.U. after   11 cycles
 E2 =    -0.1583378801D+01 EUMP2 =    -0.47231603155682D+03

 The electronic state is 1-A.
 Alpha  occ. eigenvalues --  -11.21662 -11.21640 -11.21591 -11.21462 -11.21402
 Alpha  occ. eigenvalues --  -11.21400 -11.21368 -11.21287 -11.21142 -11.21101
 Alpha  occ. eigenvalues --  -11.21070 -11.20982  -1.08489  -1.08373  -1.03596
 Alpha  occ. eigenvalues --   -1.03460  -0.96045  -0.95929  -0.87078  -0.86935
 Alpha  occ. eigenvalues --   -0.79724  -0.79480  -0.78330  -0.78148  -0.65138
 Alpha  occ. eigenvalues --   -0.65004  -0.60987  -0.60884  -0.59405  -0.59301
 Alpha  occ. eigenvalues --   -0.57664  -0.57525  -0.55363  -0.55193  -0.52744
 Alpha  occ. eigenvalues --   -0.52647  -0.52495  -0.52334  -0.49996  -0.49872
 Alpha  occ. eigenvalues --   -0.48170  -0.47748  -0.46714  -0.46535  -0.45977
 Alpha  occ. eigenvalues --   -0.45763  -0.45705  -0.45312  -0.43838  -0.43723
 Alpha virt. eigenvalues --    0.21316   0.23077   0.23990   0.24474   0.25393
 Alpha virt. eigenvalues --    0.26567   0.27104   0.27596   0.27759   0.29238
 Alpha virt. eigenvalues --    0.30972   0.31460   0.31700   0.31974   0.32123

 Mulliken charges:
               1
     1  C   -0.297650
     2  C   -0.310152
     3  C   -0.475238
     4  H    0.148834
     5  H    0.149150
     6  H    0.165593
     7  H    0.150868
     8  H    0.154630
     9  H    0.154565
    10  H    0.159443
    11  C   -0.301866
    12  C   -0.299477
    13  C   -0.475618
    14  H    0.151483
    15  H    0.149998
    16  H    0.151635
    17  H    0.152193
    18  H    0.155312
    19  H    0.154756
    20  H    0.160203
    21  C   -0.298282
    22  C   -0.299690
    23  C   -0.475745
    24  H    0.149882
    25  H    0.149632
    26  H    0.152035
    27  H    0.151853
    28  H    0.155243
    29  H    0.155279
    30  H    0.160383
    31  C   -0.298346
    32  C   -0.299743
    33  C   -0.481934
    34  H    0.149720
    35  H    0.148898
    36  H    0.152277
    37  H    0.152041
    38  H    0.159737
    39  H    0.156625
    40  H    0.161473
 Sum of Mulliken charges =  -0.00000

 Dipole moment (field-independent basis, Debye):
    X=             -0.0520    Y=             -0.0007    Z=              0.0400  Tot=              0.0656
 Quadrupole moment (field-independent basis, Debye-Ang):
   XX=            -84.8467   YY=            -84.9429   ZZ=            -85.1134
   XY=              0.4460   XZ=             -0.0640   YZ=             -0.6030

 Normal termination of Gaussian 16 at Wed May  5 19:56:52 2021.
