 Gaussian 16, Revision A.03,
 Gaussian 16:  EM64L-G16RevA.03 25-Dec-2016

 -------------
 #p 6-31g* mp2
 -------------

 ------------------------------------------------------
 Input file generated by CHIRIPA (05-May-2021 14:51:13)
 ------------------------------------------------------
 Symbolic Z-matrix:
 Charge =  0 Multiplicity = 1

                         Standard orientation:
 ---------------------------------------------------------------------
 Center     Atomic      Atomic             Coordinates (Angstroms)
 Number     Number       Type             X           Y           Z
 ---------------------------------------------------------------------
      1          6           0       -3.313013   -0.486978   -0.460085
      2          6           0       -4.492019    0.220422    0.208881
      3          6           0       -5.469014    0.824294   -0.800383
      4          1           0       -2.782248    0.227650   -1.103934
      5          1           0       -3.695495   -1.277955   -1.119977
      6          1           0       -4.107370    1.008920    0.868375
      7          1           0       -5.019924   -0.495924    0.851361
      8          1           0       -5.880455    0.046098   -1.451328
      9          1           0       -4.962715    1.559492   -1.434217
     10          1           0       -6.304081    1.325038   -0.300605
     11          6           0       -2.327554   -1.095832    0.535855
     12          6           0       -1.148548   -1.803232   -0.133111
     13          6           0       -0.171553   -2.407104    0.876153
     14          1           0       -1.945071   -0.304855    1.195747
     15          1           0       -2.858318   -1.810459    1.179704
     16          1           0       -0.620642   -1.086886   -0.775591
     17          1           0       -1.533197   -2.591729   -0.792605
     18          1           0       -0.677852   -3.142302    1.509987
     19          1           0        0.239888   -1.628908    1.527098
     20          1           0        0.663514   -2.907848    0.376375
     21          6           0        3.131190    0.163798   -0.342645
     22          6           0        4.626001    0.025302   -0.052223
     23          6           0        5.233642   -1.235162   -0.668498
     24          1           0        2.606283   -0.722502    0.039310
     25          1           0        2.975559    0.174670   -1.430329
     26          1           0        4.778894    0.016085    1.034587
     27          1           0        5.147385    0.912122   -0.434743
     28          1           0        5.110404   -1.230004   -1.756334
     29          1           0        4.739819   -2.131132   -0.278656
     30          1           0        6.302866   -1.314233   -0.448570
     31          6           0        2.509377    1.419012    0.266875
     32          6           0        1.014567    1.557508   -0.023547
     33          6           0        0.406924    2.817971    0.592729
     34          1           0        2.665008    1.408139    1.354559
     35          1           0        3.034285    2.305312   -0.115080
     36          1           0        0.493181    0.670686    0.358974
     37          1           0        0.861672    1.566724   -1.110357
     38          1           0        0.900747    3.713942    0.202886
     39          1           0        0.530162    2.812813    1.680564
     40          1           0       -0.662300    2.897042    0.372799
 ---------------------------------------------------------------------

 SCF Done:  E(RHF) =  -470.732619887     A.U. after   11 cycles
 E2 =    -0.1584633171D+01 EUMP2 =    -0.47231725305760D+03

 The electronic state is 1-A.
 Alpha  occ. eigenvalues --  -11.21618 -11.21605 -11.21598 -11.21560 -11.21414
 Alpha  occ. eigenvalues --  -11.21409 -11.21350 -11.21342 -11.21137 -11.21134
 Alpha  occ. eigenvalues --  -11.21074 -11.21069  -1.08497  -1.08394  -1.03605
 Alpha  occ. eigenvalues --   -1.03502  -0.96024  -0.95983  -0.87042  -0.86998
 Alpha  occ. eigenvalues --   -0.79690  -0.79547  -0.78301  -0.78220  -0.65358
 Alpha  occ. eigenvalues --   -0.64859  -0.61208  -0.60721  -0.59370  -0.59345
 Alpha  occ. eigenvalues --   -0.57635  -0.57587  -0.55369  -0.55227  -0.52708
 Alpha  occ. eigenvalues --   -0.52694  -0.52470  -0.52380  -0.50008  -0.49893
 Alpha  occ. eigenvalues --   -0.48116  -0.47785  -0.46702  -0.46575  -0.45973
 Alpha  occ. eigenvalues --   -0.45810  -0.45627  -0.45479  -0.43804  -0.43789
 Alpha virt. eigenvalues --    0.19994   0.22378   0.23931   0.24419   0.25864
 Alpha virt. eigenvalues --    0.26552   0.26641   0.27785   0.28800   0.29777
 Alpha virt. eigenvalues --    0.30175   0.31397   0.31759   0.32076   0.32478

 Mulliken charges:
               1
     1  C   -0.298490
     2  C   -0.299818
     3  C   -0.475689
     4  H    0.150179
     5  H    0.149608
     6  H    0.151939
     7  H    0.151965
     8  H    0.155208
     9  H    0.155109
    10  H    0.160307
    11  C   -0.299915
    12  C   -0.306012
    13  C   -0.478169
    14  H    0.150356
    15  H    0.149790
    16  H    0.157450
    17  H    0.153152
    18  H    0.155802
    19  H    0.154818
    20  H    0.160986
    21  C   -0.303727
    22  C   -0.299414
    23  C   -0.475717
    24  H    0.155693
    25  H    0.149063
    26  H    0.151943
    27  H    0.151883
    28  H    0.155111
    29  H    0.155165
    30  H    0.160284
    31  C   -0.297279
    32  C   -0.310520
    33  C   -0.475493
    34  H    0.149081
    35  H    0.149679
    36  H    0.164147
    37  H    0.151227
    38  H    0.155627
    39  H    0.155061
    40  H    0.159609
 Sum of Mulliken charges =  -0.00000

 Dipole moment (field-independent basis, Debye):
    X=             -0.0005    Y=             -0.0164    Z=             -0.0046  Tot=              0.0170
 Quadrupole moment (field-independent basis, Debye-Ang):
   XX=            -85.4766   YY=            -84.7774   ZZ=            -84.5802
   XY=              1.4704   XZ=             -0.4158   YZ=             -0.4758

 Normal termination of Gaussian 16 at Thu May  6 03:56:57 2021.
