 Gaussian 16, Revision A.03,
 Gaussian 16:  EM64L-G16RevA.03 25-Dec-2016

 -------------
 #p 6-31g* mp2
 -------------

 ------------------------------------------------------
 Input file generated by CHIRIPA (05-May-2021 14:53:12)
 ------------------------------------------------------
 Symbolic Z-matrix:
 Charge =  0 Multiplicity = 1

                         Standard orientation:
 ---------------------------------------------------------------------
 Center     Atomic      Atomic             Coordinates (Angstroms)
 Number     Number       Type             X           Y           Z
 ---------------------------------------------------------------------
      1          6           0        3.075538   -0.089020   -0.613384
      2          6           0        2.621358   -1.498531   -0.232615
      3          6           0        3.422959   -2.589915   -0.942621
      4          1           0        2.985781    0.036964   -1.701049
      5          1           0        4.141847    0.022628   -0.372732
      6          1           0        1.555885   -1.607032   -0.472635
      7          1           0        2.712025   -1.621110    0.854294
      8          1           0        4.486262   -2.510133   -0.694382
      9          1           0        3.323553   -2.495975   -2.028851
     10          1           0        3.081713   -3.589517   -0.655902
     11          6           0        2.283617    1.012901    0.088300
     12          6           0        2.737797    2.422412   -0.292469
     13          6           0        1.936195    3.513796    0.417538
     14          1           0        1.217307    0.901253   -0.152352
     15          1           0        2.373374    0.886916    1.175966
     16          1           0        2.647129    2.544991   -1.379377
     17          1           0        3.803270    2.530913   -0.052448
     18          1           0        2.035602    3.419856    1.503767
     19          1           0        0.872892    3.434013    0.169299
     20          1           0        2.277441    4.513398    0.130818
     21          6           0       -0.540027   -1.856520    1.515068
     22          6           0       -0.758760   -0.538925    1.930545
     23          6           0       -1.617369    0.298725    1.212435
     24          6           0       -2.243596   -0.216299    0.078469
     25          6           0       -2.046052   -1.524462   -0.360822
     26          6           0       -1.183237   -2.344223    0.372725
     27          1           0        0.128595   -2.500278    2.078908
     28          1           0       -0.260586   -0.157476    2.817316
     29          1           0       -1.804692    1.322812    1.511725
     30          1           0       -2.556902   -1.876337   -1.248871
     31          1           0       -1.015251   -3.367060    0.047716
     32          7           0       -3.154793    0.661014   -0.689932
     33          8           0       -3.694472    0.183324   -1.685520
     34          8           0       -3.312057    1.809732   -0.282067
 ---------------------------------------------------------------------

 SCF Done:  E(RHF) =  -669.534148060     A.U. after   15 cycles
 E2 =    -0.2094902794D+01 EUMP2 =    -0.67162905085436D+03

 The electronic state is 1-A.
 Alpha  occ. eigenvalues --  -20.60829 -20.60823 -15.85885 -11.31258 -11.27839
 Alpha  occ. eigenvalues --  -11.27827 -11.27529 -11.26812 -11.26789 -11.21978
 Alpha  occ. eigenvalues --  -11.21765 -11.21698 -11.21595 -11.21564 -11.21223
 Alpha  occ. eigenvalues --   -1.59906  -1.39459  -1.19442  -1.08866  -1.08690
 Alpha  occ. eigenvalues --   -1.04839  -1.03843  -0.96292  -0.95656  -0.87307
 Alpha  occ. eigenvalues --   -0.86229  -0.82486  -0.79922  -0.78567  -0.77529
 Alpha  occ. eigenvalues --   -0.72099  -0.71233  -0.70525  -0.65377  -0.65074
 Alpha  occ. eigenvalues --   -0.64823  -0.62179  -0.61243  -0.59692  -0.57916
 Alpha  occ. eigenvalues --   -0.55579  -0.55313  -0.53376  -0.52921  -0.52890
 Alpha  occ. eigenvalues --   -0.52723  -0.50234  -0.48860  -0.48855  -0.48254
 Alpha  occ. eigenvalues --   -0.46959  -0.46098  -0.45897  -0.44863  -0.44085
 Alpha  occ. eigenvalues --   -0.37276  -0.36387
 Alpha virt. eigenvalues --    0.04985   0.11065   0.16447   0.20614   0.22935
 Alpha virt. eigenvalues --    0.23621   0.25705   0.26924   0.27499   0.27665
 Alpha virt. eigenvalues --    0.28669   0.29765   0.31394   0.31620   0.32063

 Mulliken charges:
               1
     1  C   -0.297837
     2  C   -0.305544
     3  C   -0.474997
     4  H    0.151929
     5  H    0.149087
     6  H    0.161170
     7  H    0.141665
     8  H    0.156456
     9  H    0.157615
    10  H    0.154312
    11  C   -0.300375
    12  C   -0.299773
    13  C   -0.477101
    14  H    0.156119
    15  H    0.141353
    16  H    0.154654
    17  H    0.151212
    18  H    0.150519
    19  H    0.158878
    20  H    0.162865
    21  C   -0.165300
    22  C   -0.213842
    23  C   -0.172607
    24  C    0.157765
    25  C   -0.171605
    26  C   -0.221211
    27  H    0.226833
    28  H    0.223897
    29  H    0.276394
    30  H    0.275918
    31  H    0.224225
    32  N    0.488092
    33  O   -0.460288
    34  O   -0.460476
 Sum of Mulliken charges =  -0.00000

 Dipole moment (field-independent basis, Debye):
    X=              3.1174    Y=             -3.0520    Z=              2.6715  Tot=              5.1156
 Quadrupole moment (field-independent basis, Debye-Ang):
   XX=           -110.0214   YY=            -91.7693   ZZ=            -92.2204
   XY=              7.6606   XZ=             -4.7276   YZ=              1.3547

 Normal termination of Gaussian 16 at Thu May  6 07:16:08 2021.
