 Gaussian 16, Revision A.03,
 Gaussian 16:  EM64L-G16RevA.03 25-Dec-2016

 -------------
 #p 6-31g* mp2
 -------------

 ------------------------------------------------------
 Input file generated by CHIRIPA (05-May-2021 14:57:21)
 ------------------------------------------------------
 Symbolic Z-matrix:
 Charge =  0 Multiplicity = 1

                         Standard orientation:
 ---------------------------------------------------------------------
 Center     Atomic      Atomic             Coordinates (Angstroms)
 Number     Number       Type             X           Y           Z
 ---------------------------------------------------------------------
      1          6           0       -5.061853    1.931372    0.524187
      2          6           0       -3.890234    2.172817   -0.200749
      3          6           0       -3.022568    1.123475   -0.517902
      4          6           0       -3.359050   -0.160659   -0.092379
      5          6           0       -4.518933   -0.433178    0.631287
      6          6           0       -5.371917    0.631437    0.937164
      7          1           0       -5.730174    2.752459    0.766179
      8          1           0       -3.646885    3.181344   -0.522773
      9          1           0       -2.108983    1.282191   -1.077893
     10          1           0       -4.734658   -1.449272    0.938591
     11          1           0       -6.281125    0.440972    1.500288
     12          7           0       -2.448262   -1.279635   -0.422166
     13          8           0       -2.767378   -2.401888   -0.035709
     14          8           0       -1.432517   -1.013246   -1.060864
     15          6           0        4.788418    2.149530    0.116897
     16          6           0        5.038332    1.155229    1.068437
     17          6           0        4.335507   -0.052838    1.034382
     18          6           0        3.385485   -0.233868    0.030401
     19          6           0        3.113859    0.737609   -0.931754
     20          6           0        3.828671    1.937920   -0.878407
     21          1           0        5.339045    3.084972    0.150844
     22          1           0        5.783111    1.316812    1.842543
     23          1           0        4.509014   -0.839508    1.758581
     24          1           0        2.365387    0.547491   -1.691400
     25          1           0        3.632492    2.708335   -1.618691
     26          7           0        2.635090   -1.508688   -0.015862
     27          8           0        1.803218   -1.643655   -0.910518
     28          8           0        2.893012   -2.348788    0.843410
 ---------------------------------------------------------------------

 SCF Done:  E(RHF) =  -868.334766204     A.U. after   16 cycles
 E2 =    -0.2600638038D+01 EUMP2 =    -0.87093540424162D+03

 The electronic state is 1-A.
 Alpha  occ. eigenvalues --  -20.59992 -20.59944 -20.59795 -20.59652 -15.85036
 Alpha  occ. eigenvalues --  -15.84775 -11.30767 -11.30565 -11.27407 -11.27358
 Alpha  occ. eigenvalues --  -11.27195 -11.27185 -11.27167 -11.27026 -11.26494
 Alpha  occ. eigenvalues --  -11.26453 -11.26308 -11.26296  -1.59039  -1.58798
 Alpha  occ. eigenvalues --   -1.38588  -1.38334  -1.18973  -1.18784  -1.08298
 Alpha  occ. eigenvalues --   -1.08104  -1.04433  -1.04248  -0.95073  -0.94859
 Alpha  occ. eigenvalues --   -0.85813  -0.85625  -0.81914  -0.81679  -0.76902
 Alpha  occ. eigenvalues --   -0.76657  -0.71308  -0.70905  -0.70399  -0.70129
 Alpha  occ. eigenvalues --   -0.70075  -0.69886  -0.64618  -0.64444  -0.64415
 Alpha  occ. eigenvalues --   -0.64260  -0.61782  -0.61586  -0.54919  -0.54746
 Alpha  occ. eigenvalues --   -0.52739  -0.52561  -0.52532  -0.52346  -0.48037
 Alpha  occ. eigenvalues --   -0.47998  -0.47744  -0.47710  -0.44006  -0.43527
 Alpha  occ. eigenvalues --   -0.36971  -0.36793  -0.36053  -0.35876
 Alpha virt. eigenvalues --    0.05608   0.05919   0.11596   0.11774   0.17040
 Alpha virt. eigenvalues --    0.17326   0.21644   0.21878   0.27501   0.27742
 Alpha virt. eigenvalues --    0.28490   0.28893   0.31089   0.31453   0.32673

 Mulliken charges:
               1
     1  C   -0.171959
     2  C   -0.218298
     3  C   -0.171347
     4  C    0.159693
     5  C   -0.171172
     6  C   -0.218356
     7  H    0.223588
     8  H    0.220205
     9  H    0.272230
    10  H    0.276309
    11  H    0.222352
    12  N    0.487212
    13  O   -0.459304
    14  O   -0.451131
    15  C   -0.172284
    16  C   -0.218742
    17  C   -0.171766
    18  C    0.159059
    19  C   -0.172237
    20  C   -0.219345
    21  H    0.222552
    22  H    0.221166
    23  H    0.275098
    24  H    0.278864
    25  H    0.219918
    26  N    0.486123
    27  O   -0.443020
    28  O   -0.465410
 Sum of Mulliken charges =  -0.00000

 Dipole moment (field-independent basis, Debye):
    X=             -0.6521    Y=              8.1581    Z=              1.1933  Tot=              8.2706
 Quadrupole moment (field-independent basis, Debye-Ang):
   XX=            -65.0145   YY=           -106.9662   ZZ=           -101.6869
   XY=              3.1876   XZ=             -2.5558   YZ=             -3.4757

 Normal termination of Gaussian 16 at Thu May  6 08:03:05 2021.
