 Gaussian 16, Revision A.03,
 Gaussian 16:  EM64L-G16RevA.03 25-Dec-2016

 -------------
 #p 6-31g* mp2
 -------------

 ------------------------------------------------------
 Input file generated by CHIRIPA (05-May-2021 14:57:24)
 ------------------------------------------------------
 Symbolic Z-matrix:
 Charge =  0 Multiplicity = 1

                         Standard orientation:
 ---------------------------------------------------------------------
 Center     Atomic      Atomic             Coordinates (Angstroms)
 Number     Number       Type             X           Y           Z
 ---------------------------------------------------------------------
      1          6           0        4.060160    0.710832   -1.828774
      2          6           0        4.135368    1.470045   -0.656399
      3          6           0        3.484583    1.047036    0.506395
      4          6           0        2.764185   -0.145550    0.461062
      5          6           0        2.670463   -0.924027   -0.691535
      6          6           0        3.329236   -0.481678   -1.842575
      7          1           0        4.568808    1.046948   -2.727495
      8          1           0        4.702288    2.396576   -0.642760
      9          1           0        3.526227    1.615332    1.427656
     10          1           0        2.097690   -1.843295   -0.674353
     11          1           0        3.269091   -1.073332   -2.751626
     12          7           0        2.071000   -0.603608    1.685838
     13          8           0        1.442778   -1.657946    1.619915
     14          8           0        2.169028    0.100378    2.688551
     15          6           0       -2.376711   -2.369953   -0.659892
     16          6           0       -1.392960   -1.404653   -0.898535
     17          6           0       -1.659827   -0.049823   -0.679986
     18          6           0       -2.926934    0.305947   -0.220467
     19          6           0       -3.927978   -0.632231    0.026564
     20          6           0       -3.638855   -1.981346   -0.198917
     21          1           0       -2.160757   -3.420199   -0.832359
     22          1           0       -0.411874   -1.703546   -1.256555
     23          1           0       -0.916688    0.718281   -0.856557
     24          1           0       -4.896614   -0.303670    0.383227
     25          1           0       -4.404783   -2.728831   -0.012727
     26          7           0       -3.221236    1.737221    0.014570
     27          8           0       -4.345458    2.024813    0.419603
     28          8           0       -2.322113    2.544361   -0.210689
 ---------------------------------------------------------------------

 SCF Done:  E(RHF) =  -868.337406773     A.U. after   16 cycles
 E2 =    -0.2600808202D+01 EUMP2 =    -0.87093821497462D+03

 The electronic state is 1-A.
 Alpha  occ. eigenvalues --  -20.61247 -20.61221 -20.60430 -20.60422 -15.86284
 Alpha  occ. eigenvalues --  -15.85482 -11.31763 -11.30778 -11.28416 -11.28224
 Alpha  occ. eigenvalues --  -11.27995 -11.27387 -11.27363 -11.27333 -11.27253
 Alpha  occ. eigenvalues --  -11.27075 -11.26404 -11.26342  -1.60302  -1.59502
 Alpha  occ. eigenvalues --   -1.39855  -1.39060  -1.19914  -1.18941  -1.09271
 Alpha  occ. eigenvalues --   -1.08351  -1.05331  -1.04353  -0.96101  -0.95201
 Alpha  occ. eigenvalues --   -0.86716  -0.85762  -0.82930  -0.82052  -0.77992
 Alpha  occ. eigenvalues --   -0.77105  -0.72499  -0.71709  -0.71627  -0.71001
 Alpha  occ. eigenvalues --   -0.70817  -0.70068  -0.65554  -0.65337  -0.64612
 Alpha  occ. eigenvalues --   -0.64397  -0.62692  -0.61705  -0.55780  -0.54866
 Alpha  occ. eigenvalues --   -0.53639  -0.53426  -0.52647  -0.52452  -0.49275
 Alpha  occ. eigenvalues --   -0.49245  -0.48463  -0.48457  -0.45232  -0.44482
 Alpha  occ. eigenvalues --   -0.37863  -0.36937  -0.36887  -0.35915
 Alpha virt. eigenvalues --    0.04523   0.05449   0.10621   0.11720   0.16034
 Alpha virt. eigenvalues --    0.16969   0.19980   0.22015   0.25464   0.27369
 Alpha virt. eigenvalues --    0.28403   0.28930   0.30326   0.31206   0.32363

 Mulliken charges:
               1
     1  C   -0.170420
     2  C   -0.216649
     3  C   -0.169075
     4  C    0.159416
     5  C   -0.180179
     6  C   -0.218359
     7  H    0.228347
     8  H    0.227525
     9  H    0.279639
    10  H    0.269200
    11  H    0.223157
    12  N    0.488324
    13  O   -0.463591
    14  O   -0.454594
    15  C   -0.168626
    16  C   -0.206683
    17  C   -0.172642
    18  C    0.159930
    19  C   -0.170424
    20  C   -0.217798
    21  H    0.224671
    22  H    0.214188
    23  H    0.272175
    24  H    0.274733
    25  H    0.222660
    26  N    0.488549
    27  O   -0.460857
    28  O   -0.462617
 Sum of Mulliken charges =  -0.00000

 Dipole moment (field-independent basis, Debye):
    X=              3.6735    Y=             -3.3044    Z=             -4.9950  Tot=              7.0259
 Quadrupole moment (field-independent basis, Debye-Ang):
   XX=            -92.4172   YY=           -105.6892   ZZ=           -107.9794
   XY=             23.0060   XZ=             -9.4730   YZ=              4.0429

 Normal termination of Gaussian 16 at Thu May  6 21:15:33 2021.
