 Gaussian 16, Revision A.03,
 Gaussian 16:  EM64L-G16RevA.03 25-Dec-2016

 -------------
 #p 6-31g* mp2
 -------------

 ------------------------------------------------------
 Input file generated by CHIRIPA (05-May-2021 14:53:17)
 ------------------------------------------------------
 Symbolic Z-matrix:
 Charge =  0 Multiplicity = 1

                         Standard orientation:
 ---------------------------------------------------------------------
 Center     Atomic      Atomic             Coordinates (Angstroms)
 Number     Number       Type             X           Y           Z
 ---------------------------------------------------------------------
      1          6           0       -4.202745   -0.509607    0.223271
      2          6           0       -4.619186   -1.157982   -1.097400
      3          6           0       -5.480886   -2.405152   -0.897818
      4          1           0       -3.652932   -1.244034    0.827645
      5          1           0       -5.103678   -0.246354    0.794596
      6          1           0       -3.717753   -1.418676   -1.666674
      7          1           0       -5.167905   -0.421868   -1.698781
      8          1           0       -6.396682   -2.157264   -0.351494
      9          1           0       -4.938290   -3.159736   -0.319204
     10          1           0       -5.767265   -2.852596   -1.854709
     11          6           0       -3.340870    0.738349    0.040222
     12          6           0       -2.924430    1.386724    1.360893
     13          6           0       -2.062729    2.633894    1.161311
     14          1           0       -2.439937    0.475096   -0.531102
     15          1           0       -3.890684    1.472776   -0.564152
     16          1           0       -2.375710    0.650610    1.962274
     17          1           0       -3.825862    1.647418    1.930167
     18          1           0       -2.605325    3.388478    0.582698
     19          1           0       -1.146933    2.386006    0.614987
     20          1           0       -1.776350    3.081339    2.118202
     21          6           0        3.749044   -2.160810    1.093430
     22          6           0        2.727749   -1.382992    1.648839
     23          6           0        2.275282   -0.233215    0.994748
     24          6           0        2.869160    0.110908   -0.218587
     25          6           0        3.888510   -0.643471   -0.797486
     26          6           0        4.325148   -1.789223   -0.125810
     27          1           0        4.094382   -3.052421    1.608373
     28          1           0        2.278499   -1.669157    2.595584
     29          1           0        1.486228    0.387105    1.402196
     30          1           0        4.316962   -0.332772   -1.742639
     31          1           0        5.118466   -2.391384   -0.559509
     32          7           0        2.398531    1.325995   -0.920352
     33          8           0        2.938102    1.607695   -1.988127
     34          8           0        1.498993    1.973672   -0.389332
 ---------------------------------------------------------------------

 SCF Done:  E(RHF) =  -669.536079284     A.U. after   15 cycles
 E2 =    -0.2090987113D+01 EUMP2 =    -0.67162706639648D+03

 The electronic state is 1-A.
 Alpha  occ. eigenvalues --  -20.60937 -20.60922 -15.85975 -11.31293 -11.27858
 Alpha  occ. eigenvalues --  -11.27854 -11.27595 -11.26866 -11.26856 -11.21372
 Alpha  occ. eigenvalues --  -11.21139 -11.21116 -11.20928 -11.20922 -11.20153
 Alpha  occ. eigenvalues --   -1.59997  -1.39553  -1.19463  -1.08867  -1.08067
 Alpha  occ. eigenvalues --   -1.04860  -1.03121  -0.95713  -0.95538  -0.86550
 Alpha  occ. eigenvalues --   -0.86260  -0.82544  -0.79194  -0.77871  -0.77592
 Alpha  occ. eigenvalues --   -0.72201  -0.71313  -0.70572  -0.65122  -0.64864
 Alpha  occ. eigenvalues --   -0.64703  -0.62208  -0.60518  -0.58945  -0.57156
 Alpha  occ. eigenvalues --   -0.55363  -0.54814  -0.53192  -0.52951  -0.52239
 Alpha  occ. eigenvalues --   -0.51946  -0.49482  -0.48949  -0.48926  -0.47490
 Alpha  occ. eigenvalues --   -0.46237  -0.45415  -0.45342  -0.44926  -0.43387
 Alpha  occ. eigenvalues --   -0.37443  -0.36462
 Alpha virt. eigenvalues --    0.04919   0.11190   0.16404   0.20977   0.23055
 Alpha virt. eigenvalues --    0.24309   0.26682   0.27412   0.27768   0.27938
 Alpha virt. eigenvalues --    0.28944   0.30681   0.31627   0.32141   0.32248

 Mulliken charges:
               1
     1  C   -0.297431
     2  C   -0.299391
     3  C   -0.475324
     4  H    0.145664
     5  H    0.148657
     6  H    0.152020
     7  H    0.152951
     8  H    0.154862
     9  H    0.153189
    10  H    0.159822
    11  C   -0.298426
    12  C   -0.298065
    13  C   -0.487935
    14  H    0.152673
    15  H    0.151042
    16  H    0.142618
    17  H    0.149269
    18  H    0.154771
    19  H    0.181416
    20  H    0.154715
    21  C   -0.170598
    22  C   -0.218711
    23  C   -0.171309
    24  C    0.157778
    25  C   -0.170864
    26  C   -0.218567
    27  H    0.226028
    28  H    0.223986
    29  H    0.276607
    30  H    0.275857
    31  H    0.223840
    32  N    0.494195
    33  O   -0.458840
    34  O   -0.466498
 Sum of Mulliken charges =  -0.00000

 Dipole moment (field-independent basis, Debye):
    X=              1.8530    Y=             -4.2256    Z=              2.3544  Tot=              5.1800
 Quadrupole moment (field-independent basis, Debye-Ang):
   XX=            -83.5638   YY=            -96.7399   ZZ=            -93.7330
   XY=            -14.2087   XZ=              4.3130   YZ=              1.5879

 Normal termination of Gaussian 16 at Wed May  5 17:14:47 2021.
