 Gaussian 16, Revision A.03,
 Gaussian 16:  EM64L-G16RevA.03 25-Dec-2016

 -------------
 #p 6-31g* mp2
 -------------

 ------------------------------------------------------
 Input file generated by CHIRIPA (05-May-2021 14:53:14)
 ------------------------------------------------------
 Symbolic Z-matrix:
 Charge =  0 Multiplicity = 1

                         Standard orientation:
 ---------------------------------------------------------------------
 Center     Atomic      Atomic             Coordinates (Angstroms)
 Number     Number       Type             X           Y           Z
 ---------------------------------------------------------------------
      1          6           0       -3.536587    1.171244    0.333298
      2          6           0       -2.527133    2.137563   -0.287358
      3          6           0       -2.687863    3.569440    0.224197
      4          1           0       -4.553942    1.526497    0.119451
      5          1           0       -3.423630    1.185994    1.426193
      6          1           0       -2.641024    2.119961   -1.378841
      7          1           0       -1.512065    1.779865   -0.072171
      8          1           0       -2.553319    3.607981    1.310021
      9          1           0       -3.688693    3.950009   -0.004072
     10          1           0       -1.956328    4.243385   -0.232435
     11          6           0       -3.388539   -0.264130   -0.168210
     12          6           0       -4.397993   -1.230449    0.452446
     13          6           0       -4.237263   -2.662325   -0.059109
     14          1           0       -3.501496   -0.278880   -1.261104
     15          1           0       -2.371184   -0.619383    0.045638
     16          1           0       -5.413061   -0.872751    0.237260
     17          1           0       -4.284102   -1.212847    1.543929
     18          1           0       -3.236433   -3.042895    0.169161
     19          1           0       -4.371807   -2.700867   -1.144933
     20          1           0       -4.968798   -3.336271    0.397524
     21          6           0        1.114631   -2.303161   -0.260310
     22          6           0        0.717410   -1.030260   -0.682752
     23          6           0        1.590372    0.056808   -0.578975
     24          6           0        2.858890   -0.165937   -0.045556
     25          6           0        3.283962   -1.422150    0.384017
     26          6           0        2.394383   -2.494706    0.270790
     27          1           0        0.430040   -3.141985   -0.344597
     28          1           0       -0.275858   -0.878553   -1.095606
     29          1           0        1.308720    1.052844   -0.898354
     30          1           0        4.280464   -1.542287    0.791408
     31          1           0        2.705582   -3.482148    0.599667
     32          7           0        3.791852    0.977212    0.069310
     33          8           0        4.904045    0.754723    0.542766
     34          8           0        3.393247    2.074055   -0.316288
 ---------------------------------------------------------------------

 SCF Done:  E(RHF) =  -669.535693815     A.U. after   15 cycles
 E2 =    -0.2092021492D+01 EUMP2 =    -0.67162771530720D+03

 The electronic state is 1-A.
 Alpha  occ. eigenvalues --  -20.60754 -20.60749 -15.85807 -11.31175 -11.27749
 Alpha  occ. eigenvalues --  -11.27730 -11.27482 -11.26763 -11.26698 -11.22373
 Alpha  occ. eigenvalues --  -11.22270 -11.22237 -11.22021 -11.21929 -11.21417
 Alpha  occ. eigenvalues --   -1.59830  -1.39383  -1.19346  -1.09169  -1.08739
 Alpha  occ. eigenvalues --   -1.04746  -1.04199  -0.96645  -0.95575  -0.87657
 Alpha  occ. eigenvalues --   -0.86144  -0.82407  -0.80283  -0.79030  -0.77441
 Alpha  occ. eigenvalues --   -0.72025  -0.71153  -0.70453  -0.65824  -0.64995
 Alpha  occ. eigenvalues --   -0.64729  -0.62093  -0.61585  -0.60017  -0.58263
 Alpha  occ. eigenvalues --   -0.55942  -0.55244  -0.53311  -0.53130  -0.53069
 Alpha  occ. eigenvalues --   -0.52786  -0.50577  -0.48792  -0.48781  -0.48586
 Alpha  occ. eigenvalues --   -0.47316  -0.46514  -0.46437  -0.44788  -0.44464
 Alpha  occ. eigenvalues --   -0.37325  -0.36336
 Alpha virt. eigenvalues --    0.05056   0.11194   0.16461   0.19848   0.22760
 Alpha virt. eigenvalues --    0.23014   0.25152   0.26005   0.26823   0.27247
 Alpha virt. eigenvalues --    0.29951   0.30533   0.30944   0.31306   0.31811

 Mulliken charges:
               1
     1  C   -0.297612
     2  C   -0.303518
     3  C   -0.476161
     4  H    0.152761
     5  H    0.152855
     6  H    0.151302
     7  H    0.148225
     8  H    0.157977
     9  H    0.156354
    10  H    0.164827
    11  C   -0.305331
    12  C   -0.299440
    13  C   -0.475586
    14  H    0.148508
    15  H    0.146153
    16  H    0.155564
    17  H    0.154852
    18  H    0.147925
    19  H    0.155786
    20  H    0.164184
    21  C   -0.172991
    22  C   -0.222846
    23  C   -0.174255
    24  C    0.158900
    25  C   -0.170886
    26  C   -0.218394
    27  H    0.225978
    28  H    0.231602
    29  H    0.277077
    30  H    0.275576
    31  H    0.223417
    32  N    0.488106
    33  O   -0.460517
    34  O   -0.460391
 Sum of Mulliken charges =  -0.00000

 Dipole moment (field-independent basis, Debye):
    X=             -3.4525    Y=             -3.9334    Z=             -0.3439  Tot=              5.2449
 Quadrupole moment (field-independent basis, Debye-Ang):
   XX=           -110.3234   YY=            -92.7061   ZZ=            -94.1802
   XY=            -13.8031   XZ=              0.8541   YZ=             -1.5395

 Normal termination of Gaussian 16 at Thu May  6 07:26:10 2021.
