 Gaussian 16, Revision A.03,
 Gaussian 16:  EM64L-G16RevA.03 25-Dec-2016

 -------------
 #p 6-31g* mp2
 -------------

 ------------------------------------------------------
 Input file generated by CHIRIPA (05-May-2021 14:55:23)
 ------------------------------------------------------
 Symbolic Z-matrix:
 Charge =  0 Multiplicity = 1

                         Standard orientation:
 ---------------------------------------------------------------------
 Center     Atomic      Atomic             Coordinates (Angstroms)
 Number     Number       Type             X           Y           Z
 ---------------------------------------------------------------------
      1          6           0        2.465683    2.683621    0.498534
      2          6           0        3.436478    2.394859   -0.466191
      3          6           0        3.791939    1.071121   -0.741717
      4          6           0        3.153605    0.056233   -0.030506
      5          6           0        2.182622    0.311834    0.936525
      6          6           0        1.842951    1.643021    1.195584
      7          1           0        2.195685    3.714825    0.706174
      8          1           0        3.921754    3.200978   -1.009075
      9          1           0        4.540182    0.819248   -1.483411
     10          1           0        1.716310   -0.513076    1.461402
     11          1           0        1.088671    1.864308    1.945344
     12          7           0        3.521558   -1.349092   -0.313477
     13          8           0        2.944464   -2.225203    0.326859
     14          8           0        4.380086   -1.547866   -1.170248
     15          6           0       -3.207721   -0.425480   -0.146234
     16          6           0       -2.541509   -1.542131    0.658276
     17          6           0       -1.038569   -1.643696    0.396264
     18          1           0       -3.031560   -0.598264   -1.216775
     19          1           0       -2.726298    0.531244    0.099336
     20          1           0       -3.024968   -2.496268    0.412293
     21          1           0       -2.719441   -1.366773    1.727016
     22          1           0       -0.537448   -0.706566    0.659444
     23          1           0       -0.844711   -1.842478   -0.662747
     24          1           0       -0.582492   -2.448277    0.981503
     25          6           0       -4.710262   -0.311409    0.104940
     26          6           0       -5.376474    0.805242   -0.699570
     27          6           0       -6.879414    0.906807   -0.437559
     28          1           0       -5.191686   -1.268133   -0.140630
     29          1           0       -4.886423   -0.138625    1.175481
     30          1           0       -5.198543    0.629884   -1.768311
     31          1           0       -4.893016    1.759379   -0.453589
     32          1           0       -7.073273    1.105590    0.621453
     33          1           0       -7.380536   -0.030323   -0.700738
     34          1           0       -7.335491    1.711388   -1.022797
 ---------------------------------------------------------------------

 SCF Done:  E(RHF) =  -669.535029002     A.U. after   15 cycles
 E2 =    -0.2091924397D+01 EUMP2 =    -0.67162695339891D+03

 The electronic state is 1-A.
 Alpha  occ. eigenvalues --  -20.60743 -20.60733 -15.85789 -11.31150 -11.27749
 Alpha  occ. eigenvalues --  -11.27698 -11.27499 -11.26760 -11.26750 -11.21761
 Alpha  occ. eigenvalues --  -11.21667 -11.21544 -11.21485 -11.21213 -11.21041
 Alpha  occ. eigenvalues --   -1.59810  -1.39363  -1.19344  -1.08736  -1.08557
 Alpha  occ. eigenvalues --   -1.04757  -1.03634  -0.96087  -0.95565  -0.87106
 Alpha  occ. eigenvalues --   -0.86139  -0.82405  -0.79708  -0.78378  -0.77438
 Alpha  occ. eigenvalues --   -0.72010  -0.71130  -0.70462  -0.65206  -0.64997
 Alpha  occ. eigenvalues --   -0.64758  -0.62148  -0.61015  -0.59431  -0.57687
 Alpha  occ. eigenvalues --   -0.55459  -0.55199  -0.53133  -0.52928  -0.52675
 Alpha  occ. eigenvalues --   -0.52417  -0.50014  -0.48769  -0.48759  -0.48007
 Alpha  occ. eigenvalues --   -0.46741  -0.45912  -0.45848  -0.44767  -0.43870
 Alpha  occ. eigenvalues --   -0.37326  -0.36315
 Alpha virt. eigenvalues --    0.05054   0.11276   0.16473   0.21090   0.22785
 Alpha virt. eigenvalues --    0.24170   0.26302   0.26812   0.27351   0.27880
 Alpha virt. eigenvalues --    0.29207   0.30199   0.31539   0.31711   0.32017

 Mulliken charges:
               1
     1  C   -0.170226
     2  C   -0.218743
     3  C   -0.170867
     4  C    0.155976
     5  C   -0.168227
     6  C   -0.220796
     7  H    0.225480
     8  H    0.223332
     9  H    0.275554
    10  H    0.280156
    11  H    0.223152
    12  N    0.488378
    13  O   -0.460280
    14  O   -0.460731
    15  C   -0.297492
    16  C   -0.300681
    17  C   -0.478673
    18  H    0.151435
    19  H    0.145083
    20  H    0.154702
    21  H    0.148903
    22  H    0.144174
    23  H    0.160948
    24  H    0.169415
    25  C   -0.298236
    26  C   -0.299387
    27  C   -0.475709
    28  H    0.151062
    29  H    0.148605
    30  H    0.152740
    31  H    0.149852
    32  H    0.154762
    33  H    0.156162
    34  H    0.160178
 Sum of Mulliken charges =  -0.00000

 Dipole moment (field-independent basis, Debye):
    X=             -1.2805    Y=              4.8520    Z=              0.9483  Tot=              5.1069
 Quadrupole moment (field-independent basis, Debye-Ang):
   XX=           -102.4801   YY=            -93.6473   ZZ=            -92.3819
   XY=             17.3470   XZ=              0.9149   YZ=             -0.8034

 Normal termination of Gaussian 16 at Wed May  5 20:43:51 2021.
