 Gaussian 16, Revision A.03,
 Gaussian 16:  EM64L-G16RevA.03 25-Dec-2016

 -------------
 #p 6-31g* mp2
 -------------

 ------------------------------------------------------
 Input file generated by CHIRIPA (05-May-2021 14:53:11)
 ------------------------------------------------------
 Symbolic Z-matrix:
 Charge =  0 Multiplicity = 1

                         Standard orientation:
 ---------------------------------------------------------------------
 Center     Atomic      Atomic             Coordinates (Angstroms)
 Number     Number       Type             X           Y           Z
 ---------------------------------------------------------------------
      1          6           0        4.473169    0.122879    0.332255
      2          6           0        4.595088   -1.348647   -0.064902
      3          6           0        5.884439   -1.993557    0.444467
      4          1           0        5.339594    0.674348   -0.057788
      5          1           0        4.517544    0.204844    1.427110
      6          1           0        4.549106   -1.427944   -1.158617
      7          1           0        3.728174   -1.896641    0.325968
      8          1           0        5.934492   -1.943909    1.537001
      9          1           0        6.760088   -1.472548    0.043980
     10          1           0        5.951061   -3.045349    0.149246
     11          6           0        3.189419    0.781484   -0.169693
     12          6           0        3.067500    2.253010    0.227464
     13          6           0        1.778148    2.897921   -0.281905
     14          1           0        3.145043    0.699519   -1.264548
     15          1           0        2.322993    0.230015    0.220350
     16          1           0        3.934414    2.801004   -0.163406
     17          1           0        3.113482    2.332307    1.321179
     18          1           0        0.902499    2.376912    0.118581
     19          1           0        1.728095    2.848272   -1.374439
     20          1           0        1.711527    3.949712    0.013315
     21          6           0       -5.344046    0.384649    0.479565
     22          6           0       -4.342192    1.337808    0.269096
     23          6           0       -3.036157    0.940413   -0.032402
     24          6           0       -2.765927   -0.424606   -0.116002
     25          6           0       -3.742362   -1.398304    0.088387
     26          6           0       -5.041467   -0.977963    0.388699
     27          1           0       -6.355913    0.702268    0.713315
     28          1           0       -4.574288    2.396716    0.339022
     29          1           0       -2.241375    1.657102   -0.200022
     30          1           0       -3.480554   -2.446650    0.011926
     31          1           0       -5.817510   -1.720422    0.551662
     32          7           0       -1.386955   -0.857457   -0.434556
     33          8           0       -1.174584   -2.066141   -0.502506
     34          8           0       -0.544599    0.020156   -0.610258
 ---------------------------------------------------------------------

 SCF Done:  E(RHF) =  -669.536064418     A.U. after   15 cycles
 E2 =    -0.2091664618D+01 EUMP2 =    -0.67162772903603D+03

 The electronic state is 1-A.
 Alpha  occ. eigenvalues --  -20.60996 -20.60990 -15.86018 -11.31319 -11.27880
 Alpha  occ. eigenvalues --  -11.27875 -11.27614 -11.26883 -11.26872 -11.20503
 Alpha  occ. eigenvalues --  -11.20492 -11.20244 -11.20199 -11.19957 -11.19862
 Alpha  occ. eigenvalues --   -1.60055  -1.39612  -1.19486  -1.08895  -1.07226
 Alpha  occ. eigenvalues --   -1.04878  -1.02437  -0.95741  -0.94884  -0.86280
 Alpha  occ. eigenvalues --   -0.85909  -0.82578  -0.78508  -0.77634  -0.76974
 Alpha  occ. eigenvalues --   -0.72239  -0.71366  -0.70594  -0.65144  -0.64880
 Alpha  occ. eigenvalues --   -0.63863  -0.62226  -0.59846  -0.58252  -0.56484
 Alpha  occ. eigenvalues --   -0.55384  -0.54176  -0.53212  -0.52969  -0.51647
 Alpha  occ. eigenvalues --   -0.51308  -0.49092  -0.49010  -0.48708  -0.46805
 Alpha  occ. eigenvalues --   -0.45557  -0.45064  -0.44542  -0.44325  -0.42661
 Alpha  occ. eigenvalues --   -0.37465  -0.36478
 Alpha virt. eigenvalues --    0.04870   0.11175   0.16356   0.21089   0.24004
 Alpha virt. eigenvalues --    0.25024   0.26545   0.27561   0.28008   0.28950
 Alpha virt. eigenvalues --    0.29243   0.30618   0.31636   0.32626   0.32813

 Mulliken charges:
               1
     1  C   -0.298113
     2  C   -0.299173
     3  C   -0.475071
     4  H    0.144489
     5  H    0.145109
     6  H    0.152068
     7  H    0.157541
     8  H    0.152684
     9  H    0.152327
    10  H    0.158337
    11  C   -0.301697
    12  C   -0.298729
    13  C   -0.478627
    14  H    0.149584
    15  H    0.170439
    16  H    0.146450
    17  H    0.146514
    18  H    0.166660
    19  H    0.154885
    20  H    0.149416
    21  C   -0.170431
    22  C   -0.218936
    23  C   -0.171494
    24  C    0.157284
    25  C   -0.170646
    26  C   -0.218648
    27  H    0.226113
    28  H    0.224252
    29  H    0.277723
    30  H    0.275820
    31  H    0.223882
    32  N    0.492546
    33  O   -0.458832
    34  O   -0.463726
 Sum of Mulliken charges =  -0.00000

 Dipole moment (field-independent basis, Debye):
    X=             -5.2298    Y=              1.3407    Z=              1.0648  Tot=              5.5029
 Quadrupole moment (field-independent basis, Debye-Ang):
   XX=            -69.9649   YY=            -92.6457   ZZ=            -95.3417
   XY=             -0.3681   XZ=             -3.6561   YZ=             -1.0008

 Normal termination of Gaussian 16 at Wed May  5 15:26:43 2021.
