 Gaussian 16, Revision A.03,
 Gaussian 16:  EM64L-G16RevA.03 25-Dec-2016

 -------------
 #p 6-31g* mp2
 -------------

 ------------------------------------------------------
 Input file generated by CHIRIPA (05-May-2021 14:55:20)
 ------------------------------------------------------
 Symbolic Z-matrix:
 Charge =  0 Multiplicity = 1

                         Standard orientation:
 ---------------------------------------------------------------------
 Center     Atomic      Atomic             Coordinates (Angstroms)
 Number     Number       Type             X           Y           Z
 ---------------------------------------------------------------------
      1          6           0        1.023378   -2.802122    0.068496
      2          6           0        0.401442   -1.751635   -0.614288
      3          6           0        1.030040   -0.508070   -0.728131
      4          6           0        2.285996   -0.349221   -0.144495
      5          6           0        2.931405   -1.376488    0.542135
      6          6           0        2.284152   -2.611531    0.643515
      7          1           0        0.527822   -3.764843    0.152092
      8          1           0       -0.577674   -1.896779   -1.061847
      9          1           0        0.571287    0.322264   -1.251113
     10          1           0        3.907616   -1.201549    0.977825
     11          1           0        2.769538   -3.425563    1.174362
     12          7           0        2.961339    0.962775   -0.258419
     13          8           0        4.067686    1.077180    0.264595
     14          8           0        2.371537    1.851868   -0.868570
     15          6           0       -3.337841    0.334180   -0.191875
     16          6           0       -3.571931   -1.056568    0.398892
     17          6           0       -4.683727   -1.823685   -0.317514
     18          1           0       -4.272788    0.908921   -0.141943
     19          1           0       -3.088390    0.235069   -1.257401
     20          1           0       -3.819510   -0.954952    1.463314
     21          1           0       -2.636269   -1.627999    0.347722
     22          1           0       -4.440604   -1.954494   -1.376938
     23          1           0       -5.630568   -1.277622   -0.255008
     24          1           0       -4.834289   -2.815124    0.120940
     25          6           0       -2.229368    1.113382    0.513716
     26          6           0       -1.995277    2.504130   -0.077051
     27          6           0       -0.883482    3.271248    0.639354
     28          1           0       -2.478818    1.212494    1.579243
     29          1           0       -1.294422    0.538641    0.463783
     30          1           0       -2.930940    3.075562   -0.025880
     31          1           0       -1.747698    2.402514   -1.141473
     32          1           0        0.063359    2.725184    0.576848
     33          1           0       -1.126605    3.402057    1.698780
     34          1           0       -0.732920    4.262686    0.200902
 ---------------------------------------------------------------------

 SCF Done:  E(RHF) =  -669.534645865     A.U. after   15 cycles
 E2 =    -0.2095184910D+01 EUMP2 =    -0.67162983077431D+03

 The electronic state is 1-A.
 Alpha  occ. eigenvalues --  -20.60980 -20.60975 -15.85997 -11.31330 -11.27891
 Alpha  occ. eigenvalues --  -11.27887 -11.27623 -11.26891 -11.26878 -11.22221
 Alpha  occ. eigenvalues --  -11.21842 -11.21682 -11.21533 -11.21473 -11.20480
 Alpha  occ. eigenvalues --   -1.60034  -1.39591  -1.19510  -1.08905  -1.08741
 Alpha  occ. eigenvalues --   -1.04911  -1.03721  -0.96132  -0.95744  -0.87150
 Alpha  occ. eigenvalues --   -0.86299  -0.82583  -0.79830  -0.78523  -0.77616
 Alpha  occ. eigenvalues --   -0.72223  -0.71347  -0.70616  -0.65507  -0.65147
 Alpha  occ. eigenvalues --   -0.64920  -0.62197  -0.61114  -0.59568  -0.57730
 Alpha  occ. eigenvalues --   -0.55445  -0.55391  -0.53271  -0.53019  -0.52780
 Alpha  occ. eigenvalues --   -0.52518  -0.50100  -0.48984  -0.48963  -0.48105
 Alpha  occ. eigenvalues --   -0.46919  -0.46053  -0.45979  -0.44859  -0.43970
 Alpha  occ. eigenvalues --   -0.37473  -0.36399
 Alpha virt. eigenvalues --    0.04842   0.10971   0.16197   0.19149   0.23104
 Alpha virt. eigenvalues --    0.23284   0.25871   0.27016   0.27755   0.28390
 Alpha virt. eigenvalues --    0.29688   0.30523   0.31431   0.31866   0.31957

 Mulliken charges:
               1
     1  C   -0.171570
     2  C   -0.218409
     3  C   -0.173809
     4  C    0.157404
     5  C   -0.170537
     6  C   -0.218304
     7  H    0.226628
     8  H    0.228217
     9  H    0.279626
    10  H    0.276098
    11  H    0.224156
    12  N    0.487800
    13  O   -0.458157
    14  O   -0.458600
    15  C   -0.298506
    16  C   -0.302385
    17  C   -0.475877
    18  H    0.153699
    19  H    0.143077
    20  H    0.156008
    21  H    0.143984
    22  H    0.152444
    23  H    0.159171
    24  H    0.159756
    25  C   -0.307412
    26  C   -0.301052
    27  C   -0.480523
    28  H    0.151669
    29  H    0.151495
    30  H    0.151716
    31  H    0.148772
    32  H    0.168685
    33  H    0.150994
    34  H    0.163742
 Sum of Mulliken charges =  -0.00000

 Dipole moment (field-independent basis, Debye):
    X=             -2.2046    Y=             -4.5722    Z=              0.4506  Tot=              5.0959
 Quadrupole moment (field-independent basis, Debye-Ang):
   XX=           -102.7626   YY=            -91.4651   ZZ=            -93.9833
   XY=            -12.2068   XZ=              2.7013   YZ=             -0.6463

 Normal termination of Gaussian 16 at Wed May  5 23:47:23 2021.
