 Gaussian 16, Revision A.03,
 Gaussian 16:  EM64L-G16RevA.03 25-Dec-2016

 -------------
 #p 6-31g* mp2
 -------------

 ------------------------------------------------------
 Input file generated by CHIRIPA (05-May-2021 14:55:22)
 ------------------------------------------------------
 Symbolic Z-matrix:
 Charge =  0 Multiplicity = 1

                         Standard orientation:
 ---------------------------------------------------------------------
 Center     Atomic      Atomic             Coordinates (Angstroms)
 Number     Number       Type             X           Y           Z
 ---------------------------------------------------------------------
      1          6           0        5.156289    0.596543   -1.330909
      2          6           0        4.953555   -0.784045   -1.233978
      3          6           0        3.926376   -1.296535   -0.435977
      4          6           0        3.117097   -0.395651    0.254504
      5          6           0        3.293881    0.985015    0.178349
      6          6           0        4.327266    1.475118   -0.625680
      7          1           0        5.956637    0.985962   -1.953156
      8          1           0        5.595841   -1.468720   -1.780544
      9          1           0        3.747188   -2.360795   -0.342918
     10          1           0        2.637347    1.642644    0.735040
     11          1           0        4.482380    2.547778   -0.699069
     12          7           0        2.026383   -0.926351    1.102503
     13          8           0        1.327144   -0.111658    1.700815
     14          8           0        1.891373   -2.146957    1.152794
     15          6           0       -4.937068    0.184436    0.011556
     16          6           0       -5.492591   -0.857126   -0.960311
     17          6           0       -6.928095   -1.267261   -0.630289
     18          1           0       -4.979480   -0.217263    1.033214
     19          1           0       -5.585321    1.071544   -0.002670
     20          1           0       -4.842710   -1.741459   -0.945284
     21          1           0       -5.448675   -0.452974   -1.979795
     22          1           0       -7.594301   -0.399159   -0.664476
     23          1           0       -6.984893   -1.694964    0.375914
     24          1           0       -7.305369   -2.012501   -1.337496
     25          6           0       -3.502892    0.604518   -0.305301
     26          6           0       -2.947368    1.646080    0.666567
     27          6           0       -1.511866    2.056214    0.336544
     28          1           0       -2.854639   -0.282591   -0.291075
     29          1           0       -3.460480    1.006216   -1.326958
     30          1           0       -2.991285    1.241928    1.686051
     31          1           0       -3.597250    2.530412    0.651539
     32          1           0       -1.455067    2.483917   -0.669658
     33          1           0       -0.845659    1.188113    0.370731
     34          1           0       -1.134590    2.801454    1.043752
 ---------------------------------------------------------------------

 SCF Done:  E(RHF) =  -669.536262636     A.U. after   15 cycles
 E2 =    -0.2090839619D+01 EUMP2 =    -0.67162710225465D+03

 The electronic state is 1-A.
 Alpha  occ. eigenvalues --  -20.60938 -20.60932 -15.85958 -11.31256 -11.27824
 Alpha  occ. eigenvalues --  -11.27808 -11.27559 -11.26826 -11.26813 -11.21083
 Alpha  occ. eigenvalues --  -11.20805 -11.20777 -11.20653 -11.20627 -11.20145
 Alpha  occ. eigenvalues --   -1.59997  -1.39553  -1.19426  -1.08837  -1.07767
 Alpha  occ. eigenvalues --   -1.04818  -1.02857  -0.95683  -0.95309  -0.86334
 Alpha  occ. eigenvalues --   -0.86220  -0.82515  -0.78940  -0.77602  -0.77546
 Alpha  occ. eigenvalues --   -0.72185  -0.71308  -0.70536  -0.65083  -0.64823
 Alpha  occ. eigenvalues --   -0.64387  -0.62165  -0.60236  -0.58700  -0.56929
 Alpha  occ. eigenvalues --   -0.55328  -0.54579  -0.53152  -0.52911  -0.52021
 Alpha  occ. eigenvalues --   -0.51748  -0.49269  -0.48945  -0.48920  -0.47265
 Alpha  occ. eigenvalues --   -0.45993  -0.45173  -0.45083  -0.44769  -0.43128
 Alpha  occ. eigenvalues --   -0.37406  -0.36418
 Alpha virt. eigenvalues --    0.04922   0.11230   0.16390   0.21318   0.23544
 Alpha virt. eigenvalues --    0.24963   0.27085   0.27344   0.27859   0.28184
 Alpha virt. eigenvalues --    0.28938   0.30827   0.31865   0.32293   0.32683

 Mulliken charges:
               1
     1  C   -0.170530
     2  C   -0.218643
     3  C   -0.170856
     4  C    0.158028
     5  C   -0.170735
     6  C   -0.218635
     7  H    0.225877
     8  H    0.223647
     9  H    0.275609
    10  H    0.277175
    11  H    0.223937
    12  N    0.487936
    13  O   -0.459261
    14  O   -0.459191
    15  C   -0.298075
    16  C   -0.299493
    17  C   -0.475424
    18  H    0.151281
    19  H    0.147266
    20  H    0.153347
    21  H    0.149903
    22  H    0.153871
    23  H    0.155685
    24  H    0.158720
    25  C   -0.299130
    26  C   -0.298195
    27  C   -0.482630
    28  H    0.154431
    29  H    0.145642
    30  H    0.156628
    31  H    0.147015
    32  H    0.145768
    33  H    0.173147
    34  H    0.155883
 Sum of Mulliken charges =  -0.00000

 Dipole moment (field-independent basis, Debye):
    X=              4.0553    Y=              1.7520    Z=             -2.9039  Tot=              5.2866
 Quadrupole moment (field-independent basis, Debye-Ang):
   XX=            -72.5976   YY=            -91.9343   ZZ=            -96.4050
   XY=              2.6390   XZ=             -8.9318   YZ=              2.6308

 Normal termination of Gaussian 16 at Thu May  6 20:46:46 2021.
