 Gaussian 16, Revision A.03,
 Gaussian 16:  EM64L-G16RevA.03 25-Dec-2016

 -------------
 #p 6-31g* mp2
 -------------

 ------------------------------------------------------
 Input file generated by CHIRIPA (05-May-2021 14:57:24)
 ------------------------------------------------------
 Symbolic Z-matrix:
 Charge =  0 Multiplicity = 1

                         Standard orientation:
 ---------------------------------------------------------------------
 Center     Atomic      Atomic             Coordinates (Angstroms)
 Number     Number       Type             X           Y           Z
 ---------------------------------------------------------------------
      1          6           0       -5.426422    1.399141   -0.698367
      2          6           0       -4.472232    1.944313    0.166982
      3          6           0       -3.406470    1.166597    0.629432
      4          6           0       -3.325297   -0.158577    0.204447
      5          6           0       -4.260135   -0.730508   -0.657099
      6          6           0       -5.317521    0.065821   -1.106926
      7          1           0       -6.251078    2.010519   -1.052706
      8          1           0       -4.554279    2.979486    0.485932
      9          1           0       -2.653787    1.563272    1.299906
     10          1           0       -4.151714   -1.765582   -0.957573
     11          1           0       -6.057092   -0.360226   -1.778910
     12          7           0       -2.201456   -0.991763    0.687340
     13          8           0       -2.152427   -2.156574    0.298177
     14          8           0       -1.390899   -0.464225    1.445851
     15          6           0        4.775738    2.203837   -0.086193
     16          6           0        3.391353    2.193607    0.113550
     17          6           0        2.680075    0.990171    0.094210
     18          6           0        3.388203   -0.189745   -0.128599
     19          6           0        4.767281   -0.212229   -0.330902
     20          6           0        5.458080    1.003003   -0.307392
     21          1           0        5.320321    3.143277   -0.069549
     22          1           0        2.858820    3.124663    0.285560
     23          1           0        1.608139    0.953416    0.245937
     24          1           0        5.270563   -1.156437   -0.500008
     25          1           0        6.533191    1.007927   -0.462818
     26          7           0        2.646044   -1.470014   -0.151281
     27          8           0        3.293184   -2.495942   -0.349569
     28          8           0        1.431253   -1.423318    0.029660
 ---------------------------------------------------------------------

 SCF Done:  E(RHF) =  -868.335405725     A.U. after   16 cycles
 E2 =    -0.2600860088D+01 EUMP2 =    -0.87093626581275D+03

 The electronic state is 1-A.
 Alpha  occ. eigenvalues --  -20.60018 -20.59970 -20.59641 -20.59527 -15.85062
 Alpha  occ. eigenvalues --  -15.84641 -11.30797 -11.30376 -11.27445 -11.27368
 Alpha  occ. eigenvalues --  -11.27204 -11.27024 -11.26951 -11.26850 -11.26523
 Alpha  occ. eigenvalues --  -11.26470 -11.26120 -11.26107  -1.59031  -1.58670
 Alpha  occ. eigenvalues --   -1.38593  -1.38205  -1.18996  -1.18599  -1.08317
 Alpha  occ. eigenvalues --   -1.07934  -1.04457  -1.04056  -0.95094  -0.94695
 Alpha  occ. eigenvalues --   -0.85837  -0.85437  -0.81934  -0.81521  -0.76921
 Alpha  occ. eigenvalues --   -0.76502  -0.71283  -0.70898  -0.70294  -0.70103
 Alpha  occ. eigenvalues --   -0.70019  -0.69704  -0.64644  -0.64463  -0.64237
 Alpha  occ. eigenvalues --   -0.64072  -0.61806  -0.61390  -0.54938  -0.54565
 Alpha  occ. eigenvalues --   -0.52762  -0.52556  -0.52372  -0.52155  -0.48062
 Alpha  occ. eigenvalues --   -0.47998  -0.47620  -0.47556  -0.43918  -0.43510
 Alpha  occ. eigenvalues --   -0.36991  -0.36615  -0.36079  -0.35679
 Alpha virt. eigenvalues --    0.05610   0.06038   0.11569   0.11971   0.17027
 Alpha virt. eigenvalues --    0.17451   0.21626   0.22058   0.27498   0.27878
 Alpha virt. eigenvalues --    0.28479   0.29059   0.31054   0.31620   0.32673

 Mulliken charges:
               1
     1  C   -0.172050
     2  C   -0.218356
     3  C   -0.172882
     4  C    0.160344
     5  C   -0.170950
     6  C   -0.218342
     7  H    0.223788
     8  H    0.220498
     9  H    0.271073
    10  H    0.277333
    11  H    0.222716
    12  N    0.489688
    13  O   -0.450199
    14  O   -0.460809
    15  C   -0.171922
    16  C   -0.219054
    17  C   -0.172407
    18  C    0.158110
    19  C   -0.171601
    20  C   -0.218920
    21  H    0.222058
    22  H    0.219177
    23  H    0.282335
    24  H    0.274422
    25  H    0.220613
    26  N    0.486314
    27  O   -0.466685
    28  O   -0.444291
 Sum of Mulliken charges =  -0.00000

 Dipole moment (field-independent basis, Debye):
    X=             -1.5427    Y=              7.1355    Z=             -1.5800  Tot=              7.4694
 Quadrupole moment (field-independent basis, Debye-Ang):
   XX=            -59.3333   YY=           -104.2810   ZZ=           -105.6038
   XY=              5.1026   XZ=              5.3398   YZ=              3.0620

 Normal termination of Gaussian 16 at Thu May  6 22:46:50 2021.
