 Gaussian 16, Revision A.03,
 Gaussian 16:  EM64L-G16RevA.03 25-Dec-2016

 -------------
 #p 6-31g* mp2
 -------------

 ------------------------------------------------------
 Input file generated by CHIRIPA (05-May-2021 14:57:24)
 ------------------------------------------------------
 Symbolic Z-matrix:
 Charge =  0 Multiplicity = 1

                         Standard orientation:
 ---------------------------------------------------------------------
 Center     Atomic      Atomic             Coordinates (Angstroms)
 Number     Number       Type             X           Y           Z
 ---------------------------------------------------------------------
      1          6           0       -1.634772    0.193181    0.939213
      2          6           0       -2.597447    1.183146    1.162255
      3          6           0       -3.903809    1.022163    0.691032
      4          6           0       -4.214315   -0.146547   -0.002504
      5          6           0       -3.277467   -1.150980   -0.240667
      6          6           0       -1.977251   -0.968674    0.239697
      7          1           0       -0.622345    0.326518    1.308820
      8          1           0       -2.334313    2.086487    1.705192
      9          1           0       -4.668746    1.772585    0.849638
     10          1           0       -3.569704   -2.040632   -0.785216
     11          1           0       -1.231687   -1.739168    0.065005
     12          7           0       -5.594049   -0.328260   -0.506204
     13          8           0       -5.842335   -1.367048   -1.114406
     14          8           0       -6.401074    0.571544   -0.283266
     15          6           0        5.210005   -2.075278    0.175723
     16          6           0        5.813674   -1.012090   -0.503786
     17          6           0        5.145324    0.206907   -0.651791
     18          6           0        3.868675    0.328502   -0.105283
     19          6           0        3.240633   -0.712267    0.577105
     20          6           0        3.927671   -1.922244    0.713052
     21          1           0        5.736453   -3.018721    0.286012
     22          1           0        6.809462   -1.128082   -0.922115
     23          1           0        5.589203    1.046328   -1.173099
     24          1           0        2.247038   -0.566546    0.983248
     25          1           0        3.456395   -2.746218    1.241266
     26          7           0        3.151231    1.614224   -0.255588
     27          8           0        2.027299    1.695944    0.235061
     28          8           0        3.726415    2.515909   -0.861199
 ---------------------------------------------------------------------

 SCF Done:  E(RHF) =  -868.338547834     A.U. after   16 cycles
 E2 =    -0.2599021802D+01 EUMP2 =    -0.87093756963584D+03

 The electronic state is 1-A.
 Alpha  occ. eigenvalues --  -20.61744 -20.61695 -20.60415 -20.60406 -15.86768
 Alpha  occ. eigenvalues --  -15.85466 -11.32043 -11.30737 -11.28688 -11.28534
 Alpha  occ. eigenvalues --  -11.28267 -11.27606 -11.27523 -11.27358 -11.27283
 Alpha  occ. eigenvalues --  -11.26963 -11.26356 -11.26205  -1.60780  -1.59491
 Alpha  occ. eigenvalues --   -1.40344  -1.39048  -1.20191  -1.18904  -1.09590
 Alpha  occ. eigenvalues --   -1.08297  -1.05589  -1.04306  -0.96451  -0.95148
 Alpha  occ. eigenvalues --   -0.86987  -0.85701  -0.83297  -0.81994  -0.78370
 Alpha  occ. eigenvalues --   -0.77072  -0.73001  -0.72089  -0.71686  -0.71298
 Alpha  occ. eigenvalues --   -0.70814  -0.69960  -0.65848  -0.65585  -0.64555
 Alpha  occ. eigenvalues --   -0.64316  -0.62954  -0.61668  -0.56062  -0.54741
 Alpha  occ. eigenvalues --   -0.53906  -0.53677  -0.52622  -0.52402  -0.49759
 Alpha  occ. eigenvalues --   -0.49713  -0.48446  -0.48435  -0.45765  -0.44475
 Alpha  occ. eigenvalues --   -0.38139  -0.37185  -0.36836  -0.35916
 Alpha virt. eigenvalues --    0.04181   0.05485   0.10472   0.11748   0.15709
 Alpha virt. eigenvalues --    0.17006   0.19020   0.21843   0.25213   0.26952
 Alpha virt. eigenvalues --    0.27759   0.28897   0.30568   0.31036   0.32742

 Mulliken charges:
               1
     1  C   -0.170559
     2  C   -0.219007
     3  C   -0.170913
     4  C    0.157600
     5  C   -0.171032
     6  C   -0.219637
     7  H    0.236511
     8  H    0.227560
     9  H    0.274941
    10  H    0.273079
    11  H    0.215302
    12  N    0.488226
    13  O   -0.462488
    14  O   -0.460918
    15  C   -0.169904
    16  C   -0.218030
    17  C   -0.169807
    18  C    0.159250
    19  C   -0.170704
    20  C   -0.218899
    21  H    0.228555
    22  H    0.226621
    23  H    0.277915
    24  H    0.267233
    25  H    0.224035
    26  N    0.491115
    27  O   -0.471618
    28  O   -0.454428
 Sum of Mulliken charges =  -0.00000

 Dipole moment (field-independent basis, Debye):
    X=              7.8088    Y=             -3.7669    Z=              2.2736  Tot=              8.9631
 Quadrupole moment (field-independent basis, Debye-Ang):
   XX=           -122.7196   YY=           -103.8114   ZZ=           -104.3009
   XY=            -20.4353   XZ=             -8.9827   YZ=              1.2452

 Normal termination of Gaussian 16 at Thu May  6 06:41:22 2021.
