 Gaussian 16, Revision A.03,
 Gaussian 16:  EM64L-G16RevA.03 25-Dec-2016

 -------------
 #p 6-31g* mp2
 -------------

 ------------------------------------------------------
 Input file generated by CHIRIPA (05-May-2021 14:57:25)
 ------------------------------------------------------
 Symbolic Z-matrix:
 Charge =  0 Multiplicity = 1

                         Standard orientation:
 ---------------------------------------------------------------------
 Center     Atomic      Atomic             Coordinates (Angstroms)
 Number     Number       Type             X           Y           Z
 ---------------------------------------------------------------------
      1          6           0       -3.662560   -1.785347   -0.373498
      2          6           0       -4.351561   -0.711240    0.199296
      3          6           0       -3.729006    0.531173    0.352210
      4          6           0       -2.410639    0.664797   -0.080623
      5          6           0       -1.697647   -0.386361   -0.655077
      6          6           0       -2.340133   -1.619772   -0.798108
      7          1           0       -4.153917   -2.746987   -0.488447
      8          1           0       -5.378649   -0.836930    0.529958
      9          1           0       -4.239003    1.379476    0.792325
     10          1           0       -0.674574   -0.230522   -0.975163
     11          1           0       -1.802593   -2.452180   -1.243296
     12          7           0       -1.741018    1.975319    0.076030
     13          8           0       -0.578877    2.067253   -0.313346
     14          8           0       -2.390989    2.885756    0.585223
     15          6           0        3.686796    1.710011   -0.482073
     16          6           0        3.308793    0.820403   -1.493129
     17          6           0        2.662302   -0.378646   -1.178679
     18          6           0        2.408296   -0.657513    0.163336
     19          6           0        2.772516    0.208450    1.193259
     20          6           0        3.417925    1.401738    0.855535
     21          1           0        4.188585    2.639223   -0.735386
     22          1           0        3.516319    1.057197   -2.532796
     23          1           0        2.358730   -1.085328   -1.941477
     24          1           0        2.552122   -0.055150    2.220566
     25          1           0        3.710342    2.090735    1.642823
     26          7           0        1.724459   -1.923844    0.508550
     27          8           0        1.512095   -2.146265    1.698536
     28          8           0        1.413777   -2.669995   -0.417395
 ---------------------------------------------------------------------

 SCF Done:  E(RHF) =  -868.340177140     A.U. after   16 cycles
 E2 =    -0.2600788573D+01 EUMP2 =    -0.87094096571221D+03

 The electronic state is 1-A.
 Alpha  occ. eigenvalues --  -20.61081 -20.61003 -20.60575 -20.60566 -15.86053
 Alpha  occ. eigenvalues --  -15.85608 -11.30988 -11.30722 -11.27557 -11.27452
 Alpha  occ. eigenvalues --  -11.27259 -11.27184 -11.27115 -11.26883 -11.26440
 Alpha  occ. eigenvalues --  -11.26367 -11.26252 -11.26050  -1.60112  -1.59652
 Alpha  occ. eigenvalues --   -1.39679  -1.39211  -1.19094  -1.18842  -1.08573
 Alpha  occ. eigenvalues --   -1.08284  -1.04442  -1.04189  -0.95488  -0.95172
 Alpha  occ. eigenvalues --   -0.85881  -0.85605  -0.82351  -0.81996  -0.77455
 Alpha  occ. eigenvalues --   -0.77088  -0.72290  -0.71854  -0.71438  -0.70964
 Alpha  occ. eigenvalues --   -0.70222  -0.69941  -0.64769  -0.64486  -0.64464
 Alpha  occ. eigenvalues --   -0.64168  -0.61834  -0.61533  -0.54956  -0.54708
 Alpha  occ. eigenvalues --   -0.52775  -0.52558  -0.52544  -0.52220  -0.49070
 Alpha  occ. eigenvalues --   -0.48999  -0.48603  -0.48573  -0.45168  -0.44673
 Alpha  occ. eigenvalues --   -0.36999  -0.36800  -0.35980  -0.35772
 Alpha virt. eigenvalues --    0.05019   0.05403   0.11550   0.11864   0.16642
 Alpha virt. eigenvalues --    0.16981   0.21625   0.22132   0.27227   0.27870
 Alpha virt. eigenvalues --    0.28624   0.28832   0.31397   0.31605   0.32441

 Mulliken charges:
               1
     1  C   -0.170709
     2  C   -0.218093
     3  C   -0.172192
     4  C    0.158574
     5  C   -0.177103
     6  C   -0.216054
     7  H    0.226030
     8  H    0.221653
     9  H    0.272874
    10  H    0.272047
    11  H    0.237570
    12  N    0.487720
    13  O   -0.465070
    14  O   -0.462546
    15  C   -0.163843
    16  C   -0.212521
    17  C   -0.176588
    18  C    0.157836
    19  C   -0.166492
    20  C   -0.211710
    21  H    0.227206
    22  H    0.222926
    23  H    0.269515
    24  H    0.274500
    25  H    0.224998
    26  N    0.488090
    27  O   -0.456154
    28  O   -0.472466
 Sum of Mulliken charges =  -0.00000

 Dipole moment (field-independent basis, Debye):
    X=              0.2680    Y=             -0.0625    Z=             -1.6803  Tot=              1.7027
 Quadrupole moment (field-independent basis, Debye-Ang):
   XX=            -78.8527   YY=           -116.9437   ZZ=           -100.2396
   XY=             18.5792   XZ=             -2.5229   YZ=              3.7205

 Normal termination of Gaussian 16 at Thu May  6 16:23:05 2021.
