 Gaussian 16, Revision A.03,
 Gaussian 16:  EM64L-G16RevA.03 25-Dec-2016

 -------------
 #p 6-31g* mp2
 -------------

 ------------------------------------------------------
 Input file generated by CHIRIPA (05-May-2021 14:57:26)
 ------------------------------------------------------
 Symbolic Z-matrix:
 Charge =  0 Multiplicity = 1

                         Standard orientation:
 ---------------------------------------------------------------------
 Center     Atomic      Atomic             Coordinates (Angstroms)
 Number     Number       Type             X           Y           Z
 ---------------------------------------------------------------------
      1          6           0       -4.126555    0.696189    1.927608
      2          6           0       -3.347518   -0.451569    2.107252
      3          6           0       -2.653180   -1.013871    1.031957
      4          6           0       -2.760785   -0.399678   -0.214829
      5          6           0       -3.528818    0.744429   -0.425627
      6          6           0       -4.214564    1.289479    0.663969
      7          1           0       -4.662597    1.126298    2.768478
      8          1           0       -3.277327   -0.914461    3.087481
      9          1           0       -2.042890   -1.901927    1.142960
     10          1           0       -3.579374    1.183366   -1.414666
     11          1           0       -4.818822    2.180896    0.521513
     12          7           0       -2.030269   -0.985830   -1.360766
     13          8           0       -2.141460   -0.425731   -2.449142
     14          8           0       -1.360331   -1.994256   -1.148877
     15          6           0        1.806037    2.436968   -0.784266
     16          6           0        1.369564    1.202533   -1.276383
     17          6           0        1.958005    0.013807   -0.834551
     18          6           0        2.985124    0.096776    0.104295
     19          6           0        3.442089    1.311358    0.613472
     20          6           0        2.839086    2.487352    0.157432
     21          1           0        1.343266    3.355454   -1.133010
     22          1           0        0.567482    1.160373   -2.007775
     23          1           0        1.639598   -0.955366   -1.198884
     24          1           0        4.243722    1.321450    1.341965
     25          1           0        3.180100    3.444616    0.541362
     26          7           0        3.615789   -1.154936    0.579565
     27          8           0        4.518928   -1.054878    1.407191
     28          8           0        3.195023   -2.212383    0.115454
 ---------------------------------------------------------------------

 SCF Done:  E(RHF) =  -868.339940675     A.U. after   16 cycles
 E2 =    -0.2599743404D+01 EUMP2 =    -0.87093968407918D+03

 The electronic state is 1-A.
 Alpha  occ. eigenvalues --  -20.61634 -20.61584 -20.60231 -20.60199 -15.86607
 Alpha  occ. eigenvalues --  -15.85266 -11.31713 -11.30577 -11.28292 -11.28202
 Alpha  occ. eigenvalues --  -11.27951 -11.27237 -11.27233 -11.27169 -11.26986
 Alpha  occ. eigenvalues --  -11.26949 -11.26254 -11.26028  -1.60673  -1.59300
 Alpha  occ. eigenvalues --   -1.40227  -1.38849  -1.19864  -1.18765  -1.09311
 Alpha  occ. eigenvalues --   -1.08185  -1.05225  -1.04138  -0.96184  -0.95016
 Alpha  occ. eigenvalues --   -0.86636  -0.85543  -0.83019  -0.81833  -0.78101
 Alpha  occ. eigenvalues --   -0.76872  -0.72820  -0.71988  -0.71482  -0.70968
 Alpha  occ. eigenvalues --   -0.70629  -0.69872  -0.65518  -0.65223  -0.64408
 Alpha  occ. eigenvalues --   -0.64118  -0.62570  -0.61432  -0.55738  -0.54685
 Alpha  occ. eigenvalues --   -0.53570  -0.53310  -0.52516  -0.52206  -0.49609
 Alpha  occ. eigenvalues --   -0.49568  -0.48254  -0.48229  -0.45661  -0.44265
 Alpha  occ. eigenvalues --   -0.37834  -0.36820  -0.36788  -0.35756
 Alpha virt. eigenvalues --    0.04353   0.05618   0.10832   0.11891   0.15875
 Alpha virt. eigenvalues --    0.17092   0.20988   0.22137   0.26942   0.27610
 Alpha virt. eigenvalues --    0.28290   0.28960   0.30653   0.31519   0.32145

 Mulliken charges:
               1
     1  C   -0.169855
     2  C   -0.218559
     3  C   -0.169720
     4  C    0.157625
     5  C   -0.172534
     6  C   -0.218824
     7  H    0.227476
     8  H    0.226921
     9  H    0.280372
    10  H    0.273397
    11  H    0.223882
    12  N    0.486287
    13  O   -0.465728
    14  O   -0.455397
    15  C   -0.171429
    16  C   -0.231360
    17  C   -0.176788
    18  C    0.156599
    19  C   -0.172322
    20  C   -0.219596
    21  H    0.222418
    22  H    0.236397
    23  H    0.291897
    24  H    0.272909
    25  H    0.219852
    26  N    0.487236
    27  O   -0.464749
    28  O   -0.456406
 Sum of Mulliken charges =  -0.00000

 Dipole moment (field-independent basis, Debye):
    X=             -5.0900    Y=              6.2406    Z=              2.3979  Tot=              8.4025
 Quadrupole moment (field-independent basis, Debye-Ang):
   XX=           -102.8786   YY=           -102.5013   ZZ=           -104.1632
   XY=              8.3621   XZ=            -13.4771   YZ=             -2.4036

 Normal termination of Gaussian 16 at Fri May  7 00:28:33 2021.
