 Gaussian 16, Revision A.03,
 Gaussian 16:  EM64L-G16RevA.03 25-Dec-2016

 -------------
 #p 6-31g* mp2
 -------------

 ------------------------------------------------------
 Input file generated by CHIRIPA (05-May-2021 14:57:23)
 ------------------------------------------------------
 Symbolic Z-matrix:
 Charge =  0 Multiplicity = 1

                         Standard orientation:
 ---------------------------------------------------------------------
 Center     Atomic      Atomic             Coordinates (Angstroms)
 Number     Number       Type             X           Y           Z
 ---------------------------------------------------------------------
      1          6           0       -1.623188    2.604573    0.553014
      2          6           0       -1.354425    1.471520    1.327921
      3          6           0       -2.025499    0.269434    1.084620
      4          6           0       -2.963336    0.235805    0.053785
      5          6           0       -3.253136    1.347608   -0.735645
      6          6           0       -2.570016    2.539116   -0.474484
      7          1           0       -1.097202    3.534273    0.748953
      8          1           0       -0.619615    1.519434    2.126547
      9          1           0       -1.836866   -0.622812    1.669199
     10          1           0       -3.991002    1.269062   -1.524823
     11          1           0       -2.780777    3.417479   -1.077893
     12          7           0       -3.680148   -1.031191   -0.213241
     13          8           0       -4.501849   -1.034828   -1.127261
     14          8           0       -3.406713   -1.996634    0.496541
     15          6           0        0.699162   -1.738908    0.194237
     16          6           0        1.116233   -1.354348   -1.084311
     17          6           0        2.303551   -0.636951   -1.257987
     18          6           0        3.052668   -0.319494   -0.126026
     19          6           0        2.663731   -0.688404    1.160801
     20          6           0        1.472879   -1.405297    1.310745
     21          1           0       -0.224548   -2.296003    0.319936
     22          1           0        0.517367   -1.612055   -1.953214
     23          1           0        2.649907   -0.326676   -2.236346
     24          1           0        3.281914   -0.416960    2.007906
     25          1           0        1.151437   -1.702634    2.304883
     26          7           0        4.311499    0.439716   -0.297328
     27          8           0        4.953569    0.707112    0.716024
     28          8           0        4.632265    0.753012   -1.441702
 ---------------------------------------------------------------------

 SCF Done:  E(RHF) =  -868.338252285     A.U. after   16 cycles
 E2 =    -0.2602032075D+01 EUMP2 =    -0.87094028436034D+03

 The electronic state is 1-A.
 Alpha  occ. eigenvalues --  -20.61729 -20.61682 -20.61059 -20.61049 -15.86726
 Alpha  occ. eigenvalues --  -15.86112 -11.31852 -11.31442 -11.28450 -11.28359
 Alpha  occ. eigenvalues --  -11.28081 -11.28020 -11.28006 -11.27640 -11.27315
 Alpha  occ. eigenvalues --  -11.27297 -11.27045 -11.26914  -1.60771  -1.60137
 Alpha  occ. eigenvalues --   -1.40334  -1.39690  -1.20001  -1.19618  -1.09420
 Alpha  occ. eigenvalues --   -1.09004  -1.05365  -1.05025  -0.96310  -0.95835
 Alpha  occ. eigenvalues --   -0.86778  -0.86417  -0.83142  -0.82679  -0.78247
 Alpha  occ. eigenvalues --   -0.77746  -0.72947  -0.72327  -0.72106  -0.71466
 Alpha  occ. eigenvalues --   -0.71155  -0.70604  -0.65645  -0.65377  -0.65244
 Alpha  occ. eigenvalues --   -0.65016  -0.62743  -0.62368  -0.55859  -0.55422
 Alpha  occ. eigenvalues --   -0.53941  -0.53442  -0.53113  -0.53101  -0.49727
 Alpha  occ. eigenvalues --   -0.49671  -0.49086  -0.49081  -0.45776  -0.45104
 Alpha  occ. eigenvalues --   -0.38118  -0.37797  -0.36680  -0.36457
 Alpha virt. eigenvalues --    0.04138   0.04885   0.10676   0.10930   0.15790
 Alpha virt. eigenvalues --    0.16350   0.19954   0.21772   0.25795   0.27193
 Alpha virt. eigenvalues --    0.27509   0.28849   0.30361   0.31158   0.31820

 Mulliken charges:
               1
     1  C   -0.170038
     2  C   -0.213337
     3  C   -0.169058
     4  C    0.155694
     5  C   -0.171633
     6  C   -0.218430
     7  H    0.229989
     8  H    0.224450
     9  H    0.266521
    10  H    0.276348
    11  H    0.226251
    12  N    0.488006
    13  O   -0.455440
    14  O   -0.468274
    15  C   -0.177238
    16  C   -0.219098
    17  C   -0.170425
    18  C    0.157308
    19  C   -0.173092
    20  C   -0.226369
    21  H    0.241914
    22  H    0.227688
    23  H    0.276093
    24  H    0.274429
    25  H    0.221294
    26  N    0.487911
    27  O   -0.461539
    28  O   -0.459924
 Sum of Mulliken charges =  -0.00000

 Dipole moment (field-independent basis, Debye):
    X=             -2.0077    Y=              1.9344    Z=              1.3855  Tot=              3.1132
 Quadrupole moment (field-independent basis, Debye-Ang):
   XX=           -147.0838   YY=           -100.7907   ZZ=            -97.6000
   XY=            -21.1081   XZ=              2.8202   YZ=             -1.1840

 Normal termination of Gaussian 16 at Fri May  7 09:28:23 2021.
