 Gaussian 16, Revision A.03,
 Gaussian 16:  EM64L-G16RevA.03 25-Dec-2016

 -------------
 #p 6-31g* mp2
 -------------

 ------------------------------------------------------
 Input file generated by CHIRIPA (05-May-2021 14:57:25)
 ------------------------------------------------------
 Symbolic Z-matrix:
 Charge =  0 Multiplicity = 1

                         Standard orientation:
 ---------------------------------------------------------------------
 Center     Atomic      Atomic             Coordinates (Angstroms)
 Number     Number       Type             X           Y           Z
 ---------------------------------------------------------------------
      1          6           0        1.882017   -0.458779    0.745423
      2          6           0        2.218744   -0.441009   -0.612082
      3          6           0        3.528702   -0.165121   -1.015123
      4          6           0        4.481052    0.089646   -0.029520
      5          6           0        4.176621    0.079219    1.330812
      6          6           0        2.860305   -0.199067    1.710836
      7          1           0        0.861940   -0.674027    1.049575
      8          1           0        1.461059   -0.642336   -1.364030
      9          1           0        3.816791   -0.144942   -2.059162
     10          1           0        4.953695    0.283801    2.057256
     11          1           0        2.601671   -0.212194    2.765815
     12          7           0        5.871211    0.382985   -0.444017
     13          8           0        6.691847    0.604152    0.443833
     14          8           0        6.113859    0.386184   -1.648903
     15          6           0       -5.615496    2.080827   -0.095435
     16          6           0       -6.228846    0.847914   -0.340894
     17          6           0       -5.483144   -0.334308   -0.312098
     18          6           0       -4.120113   -0.246459   -0.033318
     19          6           0       -3.480183    0.966763    0.215424
     20          6           0       -4.245537    2.136218    0.181453
     21          1           0       -6.202408    2.994246   -0.119814
     22          1           0       -7.292598    0.801875   -0.556198
     23          1           0       -5.932537   -1.302164   -0.498431
     24          1           0       -2.417938    0.980826    0.427214
     25          1           0       -3.766535    3.092311    0.372467
     26          7           0       -3.320269   -1.491267   -0.000095
     27          8           0       -2.120993   -1.387000    0.247905
     28          8           0       -3.907772   -2.547644   -0.222682
 ---------------------------------------------------------------------

 SCF Done:  E(RHF) =  -868.339845073     A.U. after   16 cycles
 E2 =    -0.2598276560D+01 EUMP2 =    -0.87093812163261D+03

 The electronic state is 1-A.
 Alpha  occ. eigenvalues --  -20.61846 -20.61769 -20.60330 -20.60325 -15.86858
 Alpha  occ. eigenvalues --  -15.85380 -11.31985 -11.30608 -11.28562 -11.28491
 Alpha  occ. eigenvalues --  -11.28194 -11.27485 -11.27453 -11.27190 -11.27156
 Alpha  occ. eigenvalues --  -11.26710 -11.26128 -11.26045  -1.60868  -1.59410
 Alpha  occ. eigenvalues --   -1.40436  -1.38967  -1.20128  -1.18756  -1.09559
 Alpha  occ. eigenvalues --   -1.08141  -1.05498  -1.04146  -0.96439  -0.95003
 Alpha  occ. eigenvalues --   -0.86906  -0.85526  -0.83288  -0.81851  -0.78366
 Alpha  occ. eigenvalues --   -0.76948  -0.73096  -0.72176  -0.71598  -0.71232
 Alpha  occ. eigenvalues --   -0.70733  -0.69756  -0.65785  -0.65492  -0.64388
 Alpha  occ. eigenvalues --   -0.64122  -0.62855  -0.61500  -0.55990  -0.54505
 Alpha  occ. eigenvalues --   -0.53835  -0.53585  -0.52482  -0.52216  -0.49850
 Alpha  occ. eigenvalues --   -0.49791  -0.48363  -0.48343  -0.45893  -0.44404
 Alpha  occ. eigenvalues --   -0.38083  -0.37090  -0.36688  -0.35772
 Alpha virt. eigenvalues --    0.04162   0.05588   0.10568   0.11895   0.15712
 Alpha virt. eigenvalues --    0.17124   0.20460   0.22111   0.26285   0.27093
 Alpha virt. eigenvalues --    0.27996   0.29007   0.30537   0.31270   0.33065

 Mulliken charges:
               1
     1  C   -0.178822
     2  C   -0.221283
     3  C   -0.172142
     4  C    0.157398
     5  C   -0.171737
     6  C   -0.220216
     7  H    0.244772
     8  H    0.228072
     9  H    0.273571
    10  H    0.273201
    11  H    0.221674
    12  N    0.488223
    13  O   -0.462348
    14  O   -0.462003
    15  C   -0.169921
    16  C   -0.218248
    17  C   -0.170410
    18  C    0.158311
    19  C   -0.170573
    20  C   -0.218184
    21  H    0.228474
    22  H    0.226140
    23  H    0.277144
    24  H    0.270147
    25  H    0.225620
    26  N    0.493651
    27  O   -0.476328
    28  O   -0.454185
 Sum of Mulliken charges =  -0.00000

 Dipole moment (field-independent basis, Debye):
    X=             -8.2686    Y=              3.3332    Z=              1.3145  Tot=              9.0116
 Quadrupole moment (field-independent basis, Debye-Ang):
   XX=           -122.1853   YY=           -106.6394   ZZ=           -101.0428
   XY=            -20.3613   XZ=              9.9032   YZ=              1.2805

 Normal termination of Gaussian 16 at Wed May  5 17:56:04 2021.
