 Gaussian 16, Revision A.03,
 Gaussian 16:  EM64L-G16RevA.03 25-Dec-2016

 -------------
 #p 6-31g* mp2
 -------------

 ------------------------------------------------------
 Input file generated by CHIRIPA (05-May-2021 14:55:21)
 ------------------------------------------------------
 Symbolic Z-matrix:
 Charge =  0 Multiplicity = 1

                         Standard orientation:
 ---------------------------------------------------------------------
 Center     Atomic      Atomic             Coordinates (Angstroms)
 Number     Number       Type             X           Y           Z
 ---------------------------------------------------------------------
      1          6           0        2.999531   -2.461461    0.199327
      2          6           0        3.406232   -1.806282   -0.967659
      3          6           0        3.421844   -0.409671   -1.029144
      4          6           0        3.022569    0.303661    0.100027
      5          6           0        2.612154   -0.320099    1.277215
      6          6           0        2.604487   -1.717590    1.316071
      7          1           0        2.990490   -3.546723    0.238301
      8          1           0        3.713555   -2.381410   -1.836466
      9          1           0        3.732102    0.123145   -1.919799
     10          1           0        2.311337    0.280316    2.127174
     11          1           0        2.288156   -2.223727    2.223708
     12          7           0        3.034891    1.782656    0.046914
     13          8           0        2.678454    2.388224    1.055317
     14          8           0        3.400753    2.308320   -1.002114
     15          6           0       -4.568478   -0.047314   -0.438404
     16          6           0       -5.661752    0.193352    0.603141
     17          6           0       -7.060970    0.249572   -0.010717
     18          1           0       -4.607674    0.750330   -1.192839
     19          1           0       -4.776047   -0.987995   -0.967015
     20          1           0       -5.451431    1.132602    1.130579
     21          1           0       -5.619825   -0.604852    1.355289
     22          1           0       -7.295829   -0.690144   -0.520987
     23          1           0       -7.126477    1.057182   -0.746974
     24          1           0       -7.827125    0.422410    0.751514
     25          6           0       -3.164099   -0.106042    0.159926
     26          6           0       -2.070825   -0.346708   -0.881619
     27          6           0       -0.671607   -0.402929   -0.267762
     28          1           0       -2.956531    0.834639    0.688536
     29          1           0       -3.124903   -0.903687    0.914360
     30          1           0       -2.112752    0.451496   -1.633768
     31          1           0       -2.281147   -1.285958   -1.409058
     32          1           0       -0.606099   -1.210539    0.468495
     33          1           0       -0.436749    0.536788    0.242509
     34          1           0        0.094548   -0.575765   -1.029992
 ---------------------------------------------------------------------

 SCF Done:  E(RHF) =  -669.535219597     A.U. after   15 cycles
 E2 =    -0.2092790608D+01 EUMP2 =    -0.67162801020511D+03

 The electronic state is 1-A.
 Alpha  occ. eigenvalues --  -20.60769 -20.60763 -15.85816 -11.31146 -11.27747
 Alpha  occ. eigenvalues --  -11.27727 -11.27492 -11.26771 -11.26748 -11.21575
 Alpha  occ. eigenvalues --  -11.21546 -11.21374 -11.21315 -11.21046 -11.21002
 Alpha  occ. eigenvalues --   -1.59840  -1.39396  -1.19347  -1.08743  -1.08397
 Alpha  occ. eigenvalues --   -1.04755  -1.03495  -0.95953  -0.95577  -0.86972
 Alpha  occ. eigenvalues --   -0.86151  -0.82417  -0.79569  -0.78215  -0.77463
 Alpha  occ. eigenvalues --   -0.72039  -0.71159  -0.70462  -0.65031  -0.65001
 Alpha  occ. eigenvalues --   -0.64761  -0.62105  -0.60894  -0.59340  -0.57565
 Alpha  occ. eigenvalues --   -0.55274  -0.55227  -0.53519  -0.52849  -0.52402
 Alpha  occ. eigenvalues --   -0.52148  -0.49897  -0.48796  -0.48794  -0.47893
 Alpha  occ. eigenvalues --   -0.46601  -0.45759  -0.45680  -0.44800  -0.43727
 Alpha  occ. eigenvalues --   -0.37292  -0.36308
 Alpha virt. eigenvalues --    0.05074   0.11250   0.16557   0.21380   0.22891
 Alpha virt. eigenvalues --    0.24269   0.26656   0.27082   0.27593   0.27894
 Alpha virt. eigenvalues --    0.28404   0.30628   0.31491   0.31699   0.31888

 Mulliken charges:
               1
     1  C   -0.170391
     2  C   -0.218456
     3  C   -0.173187
     4  C    0.162459
     5  C   -0.167380
     6  C   -0.216781
     7  H    0.225433
     8  H    0.223364
     9  H    0.275499
    10  H    0.275364
    11  H    0.223163
    12  N    0.487897
    13  O   -0.461082
    14  O   -0.460578
    15  C   -0.298202
    16  C   -0.299667
    17  C   -0.475700
    18  H    0.151006
    19  H    0.148237
    20  H    0.153140
    21  H    0.150668
    22  H    0.154457
    23  H    0.155907
    24  H    0.160198
    25  C   -0.298477
    26  C   -0.300808
    27  C   -0.477228
    28  H    0.152240
    29  H    0.146609
    30  H    0.154264
    31  H    0.149044
    32  H    0.149503
    33  H    0.157894
    34  H    0.161592
 Sum of Mulliken charges =  -0.00000

 Dipole moment (field-independent basis, Debye):
    X=              0.0238    Y=             -5.1807    Z=              0.2039  Tot=              5.1847
 Quadrupole moment (field-independent basis, Debye-Ang):
   XX=            -96.4799   YY=            -97.5820   ZZ=            -90.4551
   XY=            -16.0531   XZ=             -1.5335   YZ=             -0.4243

 Normal termination of Gaussian 16 at Thu May  6 19:10:23 2021.
