 Gaussian 16, Revision A.03,
 Gaussian 16:  EM64L-G16RevA.03 25-Dec-2016

 -------------
 #p 6-31g* mp2
 -------------

 ------------------------------------------------------
 Input file generated by CHIRIPA (05-May-2021 14:57:25)
 ------------------------------------------------------
 Symbolic Z-matrix:
 Charge =  0 Multiplicity = 1

                         Standard orientation:
 ---------------------------------------------------------------------
 Center     Atomic      Atomic             Coordinates (Angstroms)
 Number     Number       Type             X           Y           Z
 ---------------------------------------------------------------------
      1          6           0       -3.726506   -2.295436   -0.415413
      2          6           0       -2.511921   -1.610714   -0.303790
      3          6           0       -2.492687   -0.233386   -0.064740
      4          6           0       -3.712188    0.430747    0.057888
      5          6           0       -4.938612   -0.223384   -0.048352
      6          6           0       -4.933847   -1.600810   -0.287564
      7          1           0       -3.732126   -3.365416   -0.601176
      8          1           0       -1.572750   -2.147585   -0.402641
      9          1           0       -1.566781    0.321476    0.026063
     10          1           0       -5.858649    0.339026    0.054818
     11          1           0       -5.878617   -2.129978   -0.373792
     12          7           0       -3.704529    1.888914    0.311045
     13          8           0       -4.792566    2.451026    0.415169
     14          8           0       -2.610633    2.442104    0.400551
     15          6           0        1.735156   -1.735967    0.235963
     16          6           0        2.767122   -1.760161    1.179881
     17          6           0        3.868053   -0.908286    1.050227
     18          6           0        3.904704   -0.041005   -0.040539
     19          6           0        2.892256    0.006666   -0.997601
     20          6           0        1.800900   -0.854185   -0.847854
     21          1           0        0.883645   -2.401210    0.344486
     22          1           0        2.718733   -2.443923    2.022599
     23          1           0        4.680844   -0.906221    1.766317
     24          1           0        2.968612    0.699247   -1.827009
     25          1           0        1.000915   -0.833217   -1.582449
     26          7           0        5.065142    0.865588   -0.188433
     27          8           0        5.073692    1.620398   -1.158394
     28          8           0        5.944170    0.804198    0.668408
 ---------------------------------------------------------------------

 SCF Done:  E(RHF) =  -868.336395803     A.U. after   16 cycles
 E2 =    -0.2600266935D+01 EUMP2 =    -0.87093666273796D+03

 The electronic state is 1-A.
 Alpha  occ. eigenvalues --  -20.61271 -20.61265 -20.61007 -20.61001 -15.86334
 Alpha  occ. eigenvalues --  -15.86066 -11.31862 -11.31609 -11.28518 -11.28437
 Alpha  occ. eigenvalues --  -11.28273 -11.28208 -11.28186 -11.28137 -11.27663
 Alpha  occ. eigenvalues --  -11.27458 -11.27356 -11.27273  -1.60344  -1.60077
 Alpha  occ. eigenvalues --   -1.39893  -1.39625  -1.20074  -1.19820  -1.09437
 Alpha  occ. eigenvalues --   -1.09217  -1.05523  -1.05242  -0.96235  -0.96013
 Alpha  occ. eigenvalues --   -0.86911  -0.86657  -0.83086  -0.82828  -0.78106
 Alpha  occ. eigenvalues --   -0.77810  -0.72546  -0.72286  -0.71673  -0.71399
 Alpha  occ. eigenvalues --   -0.71177  -0.71020  -0.65738  -0.65600  -0.65472
 Alpha  occ. eigenvalues --   -0.65255  -0.62888  -0.62548  -0.56039  -0.55840
 Alpha  occ. eigenvalues --   -0.53820  -0.53618  -0.53553  -0.53348  -0.49321
 Alpha  occ. eigenvalues --   -0.49291  -0.49060  -0.49025  -0.45262  -0.44991
 Alpha  occ. eigenvalues --   -0.38055  -0.37859  -0.37128  -0.36826
 Alpha virt. eigenvalues --    0.04455   0.04717   0.10515   0.10709   0.15858
 Alpha virt. eigenvalues --    0.16140   0.17678   0.22093   0.24766   0.26354
 Alpha virt. eigenvalues --    0.27848   0.28753   0.30056   0.31309   0.32184

 Mulliken charges:
               1
     1  C   -0.170619
     2  C   -0.222511
     3  C   -0.173623
     4  C    0.159370
     5  C   -0.169175
     6  C   -0.218439
     7  H    0.226755
     8  H    0.214573
     9  H    0.277012
    10  H    0.278266
    11  H    0.226043
    12  N    0.487929
    13  O   -0.458271
    14  O   -0.458547
    15  C   -0.174462
    16  C   -0.217178
    17  C   -0.169271
    18  C    0.159639
    19  C   -0.167766
    20  C   -0.222731
    21  H    0.218718
    22  H    0.225080
    23  H    0.277917
    24  H    0.279226
    25  H    0.220789
    26  N    0.488030
    27  O   -0.457885
    28  O   -0.458871
 Sum of Mulliken charges =  -0.00000

 Dipole moment (field-independent basis, Debye):
    X=             -4.0823    Y=             -8.1453    Z=             -0.3267  Tot=              9.1168
 Quadrupole moment (field-independent basis, Debye-Ang):
   XX=           -129.1283   YY=           -109.6823   ZZ=           -102.4829
   XY=              6.0577   XZ=              7.4756   YZ=             -2.5098

 Normal termination of Gaussian 16 at Thu May  6 19:40:47 2021.
