 Gaussian 16, Revision A.03,
 Gaussian 16:  EM64L-G16RevA.03 25-Dec-2016

 -------------
 #p 6-31g* mp2
 -------------

 ------------------------------------------------------
 Input file generated by CHIRIPA (05-May-2021 14:57:23)
 ------------------------------------------------------
 Symbolic Z-matrix:
 Charge =  0 Multiplicity = 1

                         Standard orientation:
 ---------------------------------------------------------------------
 Center     Atomic      Atomic             Coordinates (Angstroms)
 Number     Number       Type             X           Y           Z
 ---------------------------------------------------------------------
      1          6           0       -4.400118   -2.282361    0.414127
      2          6           0       -4.431554   -1.672909   -0.844484
      3          6           0       -3.848715   -0.417291   -1.040108
      4          6           0       -3.240159    0.203209    0.049814
      5          6           0       -3.192508   -0.378204    1.315901
      6          6           0       -3.781785   -1.634206    1.488409
      7          1           0       -4.855382   -3.257905    0.557114
      8          1           0       -4.911064   -2.173937   -1.680597
      9          1           0       -3.858642    0.077291   -2.003804
     10          1           0       -2.707195    0.145876    2.130290
     11          1           0       -3.755862   -2.105128    2.466982
     12          7           0       -2.619725    1.532680   -0.145049
     13          8           0       -2.089761    2.058546    0.831291
     14          8           0       -2.675142    2.023678   -1.270431
     15          6           0        1.619067    1.858590   -0.104368
     16          6           0        2.721823    1.941889    0.752085
     17          6           0        3.682893    0.926775    0.772944
     18          6           0        3.509020   -0.162241   -0.079760
     19          6           0        2.421249   -0.274071   -0.944363
     20          6           0        1.472558    0.752826   -0.948370
     21          1           0        0.877293    2.651732   -0.114026
     22          1           0        2.838185    2.799468    1.408640
     23          1           0        4.546255    0.965817    1.426013
     24          1           0        2.332447   -1.141310   -1.587347
     25          1           0        0.617154    0.685468   -1.614547
     26          7           0        4.519910   -1.243134   -0.066598
     27          8           0        4.343771   -2.192120   -0.827542
     28          8           0        5.469243   -1.120883    0.704413
 ---------------------------------------------------------------------

 SCF Done:  E(RHF) =  -868.340618562     A.U. after   16 cycles
 E2 =    -0.2598732194D+01 EUMP2 =    -0.87093935075540D+03

 The electronic state is 1-A.
 Alpha  occ. eigenvalues --  -20.61913 -20.61898 -20.60314 -20.60307 -15.86914
 Alpha  occ. eigenvalues --  -15.85363 -11.31932 -11.30519 -11.28467 -11.28441
 Alpha  occ. eigenvalues --  -11.28118 -11.27387 -11.27364 -11.27110 -11.27098
 Alpha  occ. eigenvalues --  -11.26558 -11.25967 -11.25954  -1.60979  -1.59396
 Alpha  occ. eigenvalues --   -1.40534  -1.38955  -1.20070  -1.18666  -1.09529
 Alpha  occ. eigenvalues --   -1.08045  -1.05415  -1.04055  -0.96420  -0.94919
 Alpha  occ. eigenvalues --   -0.86828  -0.85432  -0.83260  -0.81780  -0.78350
 Alpha  occ. eigenvalues --   -0.76902  -0.73138  -0.72298  -0.71582  -0.71162
 Alpha  occ. eigenvalues --   -0.70721  -0.69622  -0.65719  -0.65407  -0.64292
 Alpha  occ. eigenvalues --   -0.64027  -0.62764  -0.61420  -0.55920  -0.54368
 Alpha  occ. eigenvalues --   -0.53763  -0.53496  -0.52383  -0.52125  -0.49914
 Alpha  occ. eigenvalues --   -0.49875  -0.48352  -0.48320  -0.46002  -0.44409
 Alpha  occ. eigenvalues --   -0.38025  -0.37002  -0.36547  -0.35694
 Alpha virt. eigenvalues --    0.04119   0.05661   0.10656   0.11976   0.15689
 Alpha virt. eigenvalues --    0.17233   0.20850   0.22308   0.26791   0.27637
 Alpha virt. eigenvalues --    0.27979   0.29336   0.30533   0.31738   0.32259

 Mulliken charges:
               1
     1  C   -0.169232
     2  C   -0.218423
     3  C   -0.172202
     4  C    0.156369
     5  C   -0.169438
     6  C   -0.218229
     7  H    0.229003
     8  H    0.225960
     9  H    0.275291
    10  H    0.276535
    11  H    0.226712
    12  N    0.487032
    13  O   -0.463073
    14  O   -0.463120
    15  C   -0.170182
    16  C   -0.221029
    17  C   -0.171977
    18  C    0.156527
    19  C   -0.172268
    20  C   -0.225619
    21  H    0.246265
    22  H    0.223293
    23  H    0.272879
    24  H    0.271616
    25  H    0.225139
    26  N    0.488299
    27  O   -0.463610
    28  O   -0.462516
 Sum of Mulliken charges =  -0.00000

 Dipole moment (field-independent basis, Debye):
    X=             -6.1891    Y=             -0.8283    Z=              0.7247  Tot=              6.2862
 Quadrupole moment (field-independent basis, Debye-Ang):
   XX=           -115.5240   YY=           -107.4419   ZZ=            -98.0532
   XY=             31.3839   XZ=              1.2208   YZ=              1.5792

 Normal termination of Gaussian 16 at Thu May  6 22:45:51 2021.
