 Gaussian 16, Revision A.03,
 Gaussian 16:  EM64L-G16RevA.03 25-Dec-2016

 -------------
 #p 6-31g* mp2
 -------------

 ------------------------------------------------------
 Input file generated by CHIRIPA (05-May-2021 14:53:12)
 ------------------------------------------------------
 Symbolic Z-matrix:
 Charge =  0 Multiplicity = 1

                         Standard orientation:
 ---------------------------------------------------------------------
 Center     Atomic      Atomic             Coordinates (Angstroms)
 Number     Number       Type             X           Y           Z
 ---------------------------------------------------------------------
      1          6           0        2.714489    0.647678   -0.079334
      2          6           0        3.263439    1.865171    0.665214
      3          6           0        2.557485    3.164227    0.275502
      4          1           0        2.815284    0.811191   -1.161021
      5          1           0        1.638514    0.556636    0.124100
      6          1           0        4.338337    1.953084    0.461545
      7          1           0        3.161500    1.698658    1.745259
      8          1           0        1.486700    3.101532    0.494795
      9          1           0        2.670223    3.357404   -0.796213
     10          1           0        2.965570    4.021735    0.819566
     11          6           0        3.410175   -0.658537    0.299547
     12          6           0        2.861225   -1.876030   -0.445001
     13          6           0        3.567180   -3.175086   -0.055289
     14          1           0        4.486150   -0.567496    0.096113
     15          1           0        3.309380   -0.822051    1.381235
     16          1           0        2.963164   -1.709517   -1.525046
     17          1           0        1.786327   -1.963943   -0.241332
     18          1           0        3.454441   -3.368263    1.016427
     19          1           0        4.637965   -3.112391   -0.274582
     20          1           0        3.159094   -4.032595   -0.599353
     21          6           0       -1.808899    2.426250   -0.485110
     22          6           0       -0.902929    1.420627   -0.837902
     23          6           0       -1.215683    0.075322   -0.621365
     24          6           0       -2.448862   -0.229909   -0.047439
     25          6           0       -3.372583    0.749262    0.314851
     26          6           0       -3.038667    2.087955    0.089129
     27          1           0       -1.557724    3.468747   -0.656888
     28          1           0        0.052858    1.680409   -1.284030
     29          1           0       -0.532913   -0.723277   -0.884963
     30          1           0       -4.317630    0.459287    0.757818
     31          1           0       -3.744205    2.866830    0.364110
     32          7           0       -2.791163   -1.650623    0.186661
     33          8           0       -3.884121   -1.893349    0.693773
     34          8           0       -1.960018   -2.494551   -0.141396
 ---------------------------------------------------------------------

 SCF Done:  E(RHF) =  -669.534548741     A.U. after   15 cycles
 E2 =    -0.2094313907D+01 EUMP2 =    -0.67162886264816D+03

 The electronic state is 1-A.
 Alpha  occ. eigenvalues --  -20.60790 -20.60785 -15.85839 -11.31198 -11.27755
 Alpha  occ. eigenvalues --  -11.27717 -11.27471 -11.26778 -11.26672 -11.22267
 Alpha  occ. eigenvalues --  -11.22046 -11.21938 -11.21857 -11.21751 -11.21090
 Alpha  occ. eigenvalues --   -1.59863  -1.39417  -1.19364  -1.08968  -1.08750
 Alpha  occ. eigenvalues --   -1.04764  -1.03992  -0.96464  -0.95593  -0.87482
 Alpha  occ. eigenvalues --   -0.86157  -0.82445  -0.80104  -0.78844  -0.77421
 Alpha  occ. eigenvalues --   -0.72057  -0.71185  -0.70462  -0.65607  -0.65004
 Alpha  occ. eigenvalues --   -0.64766  -0.62102  -0.61369  -0.59841  -0.58070
 Alpha  occ. eigenvalues --   -0.55762  -0.55249  -0.53153  -0.53084  -0.52943
 Alpha  occ. eigenvalues --   -0.52814  -0.50407  -0.48822  -0.48815  -0.48364
 Alpha  occ. eigenvalues --   -0.47118  -0.46276  -0.46185  -0.44820  -0.44248
 Alpha  occ. eigenvalues --   -0.37334  -0.36286
 Alpha virt. eigenvalues --    0.04992   0.11148   0.16385   0.20408   0.22777
 Alpha virt. eigenvalues --    0.23064   0.25251   0.25901   0.26695   0.28678
 Alpha virt. eigenvalues --    0.29388   0.30204   0.30935   0.31283   0.32185

 Mulliken charges:
               1
     1  C   -0.311057
     2  C   -0.296969
     3  C   -0.482900
     4  H    0.144682
     5  H    0.153277
     6  H    0.154917
     7  H    0.156066
     8  H    0.153132
     9  H    0.151732
    10  H    0.164526
    11  C   -0.297337
    12  C   -0.307064
    13  C   -0.475448
    14  H    0.150925
    15  H    0.153213
    16  H    0.149885
    17  H    0.158567
    18  H    0.157882
    19  H    0.154174
    20  H    0.165247
    21  C   -0.174276
    22  C   -0.221956
    23  C   -0.177548
    24  C    0.157190
    25  C   -0.171056
    26  C   -0.218438
    27  H    0.226717
    28  H    0.233647
    29  H    0.282788
    30  H    0.275532
    31  H    0.223517
    32  N    0.487827
    33  O   -0.460135
    34  O   -0.461256
 Sum of Mulliken charges =  -0.00000

 Dipole moment (field-independent basis, Debye):
    X=              1.2866    Y=              4.9034    Z=             -0.7378  Tot=              5.1228
 Quadrupole moment (field-independent basis, Debye-Ang):
   XX=            -96.2869   YY=            -97.9701   ZZ=            -94.1368
   XY=            -13.8064   XZ=             -0.2322   YZ=              0.6774

 Normal termination of Gaussian 16 at Thu May  6 15:19:04 2021.
