 Gaussian 16, Revision A.03,
 Gaussian 16:  EM64L-G16RevA.03 25-Dec-2016

 -------------
 #p 6-31g* mp2
 -------------

 ------------------------------------------------------
 Input file generated by CHIRIPA (05-May-2021 14:55:20)
 ------------------------------------------------------
 Symbolic Z-matrix:
 Charge =  0 Multiplicity = 1

                         Standard orientation:
 ---------------------------------------------------------------------
 Center     Atomic      Atomic             Coordinates (Angstroms)
 Number     Number       Type             X           Y           Z
 ---------------------------------------------------------------------
      1          6           0       -0.071498   -1.859863    0.111411
      2          6           0       -0.681206   -1.439294    1.297960
      3          6           0       -1.904828   -0.763777    1.266760
      4          6           0       -2.493418   -0.524464    0.025961
      5          6           0       -1.910875   -0.930892   -1.173517
      6          6           0       -0.687193   -1.604769   -1.118373
      7          1           0        0.879064   -2.383984    0.144948
      8          1           0       -0.205347   -1.636030    2.254463
      9          1           0       -2.398834   -0.427073    2.170090
     10          1           0       -2.409444   -0.720310   -2.111868
     11          1           0       -0.215991   -1.930224   -2.041462
     12          7           0       -3.788844    0.189808   -0.019743
     13          8           0       -4.286954    0.388429   -1.125670
     14          8           0       -4.281559    0.537507    1.051225
     15          6           0        3.537690    0.506075    0.273312
     16          6           0        4.038966   -0.728245   -0.477129
     17          6           0        5.278654   -1.349035    0.167533
     18          1           0        4.342561    1.252525    0.317372
     19          1           0        3.311759    0.228337    1.312164
     20          1           0        4.262571   -0.448569   -1.514625
     21          1           0        3.232746   -1.471766   -0.519573
     22          1           0        5.065116   -1.655633    1.196610
     23          1           0        6.100793   -0.626621    0.195905
     24          1           0        5.620010   -2.229956   -0.385020
     25          6           0        2.298896    1.137918   -0.359057
     26          6           0        1.797622    2.372238    0.391384
     27          6           0        0.557934    2.993029   -0.253277
     28          1           0        2.524828    1.415656   -1.397909
     29          1           0        1.494026    0.391469   -0.403117
     30          1           0        2.603841    3.115760    0.433828
     31          1           0        1.574015    2.092562    1.428880
     32          1           0       -0.264206    2.270614   -0.281650
     33          1           0        0.771470    3.299626   -1.282355
     34          1           0        0.216577    3.873949    0.299275
 ---------------------------------------------------------------------

 SCF Done:  E(RHF) =  -669.534714077     A.U. after   15 cycles
 E2 =    -0.2094460590D+01 EUMP2 =    -0.67162917466707D+03

 The electronic state is 1-A.
 Alpha  occ. eigenvalues --  -20.60849 -20.60844 -15.85907 -11.31336 -11.27905
 Alpha  occ. eigenvalues --  -11.27893 -11.27622 -11.26910 -11.26889 -11.22456
 Alpha  occ. eigenvalues --  -11.21967 -11.21823 -11.21806 -11.21608 -11.21126
 Alpha  occ. eigenvalues --   -1.59925  -1.39476  -1.19514  -1.08983  -1.08841
 Alpha  occ. eigenvalues --   -1.04907  -1.03994  -0.96414  -0.95719  -0.87429
 Alpha  occ. eigenvalues --   -0.86302  -0.82542  -0.80102  -0.78708  -0.77576
 Alpha  occ. eigenvalues --   -0.72121  -0.71250  -0.70625  -0.65595  -0.65153
 Alpha  occ. eigenvalues --   -0.64888  -0.62242  -0.61417  -0.59811  -0.58025
 Alpha  occ. eigenvalues --   -0.55715  -0.55416  -0.53330  -0.53107  -0.52989
 Alpha  occ. eigenvalues --   -0.52814  -0.50376  -0.48886  -0.48873  -0.48391
 Alpha  occ. eigenvalues --   -0.47167  -0.46226  -0.46122  -0.44868  -0.44225
 Alpha  occ. eigenvalues --   -0.37370  -0.36505
 Alpha virt. eigenvalues --    0.04923   0.11093   0.16294   0.19730   0.22948
 Alpha virt. eigenvalues --    0.23690   0.25576   0.26281   0.27341   0.27568
 Alpha virt. eigenvalues --    0.29094   0.30346   0.31223   0.31313   0.32296

 Mulliken charges:
               1
     1  C   -0.176017
     2  C   -0.217744
     3  C   -0.171008
     4  C    0.158888
     5  C   -0.170635
     6  C   -0.217644
     7  H    0.231154
     8  H    0.224316
     9  H    0.276445
    10  H    0.276662
    11  H    0.225189
    12  N    0.487902
    13  O   -0.459736
    14  O   -0.459922
    15  C   -0.297684
    16  C   -0.300066
    17  C   -0.475568
    18  H    0.152676
    19  H    0.145613
    20  H    0.155040
    21  H    0.139121
    22  H    0.153746
    23  H    0.159156
    24  H    0.160570
    25  C   -0.308723
    26  C   -0.298192
    27  C   -0.477087
    28  H    0.148082
    29  H    0.159684
    30  H    0.151902
    31  H    0.149474
    32  H    0.156805
    33  H    0.154914
    34  H    0.162688
 Sum of Mulliken charges =  -0.00000

 Dipole moment (field-independent basis, Debye):
    X=              4.4855    Y=             -2.5037    Z=              0.1418  Tot=              5.1389
 Quadrupole moment (field-independent basis, Debye-Ang):
   XX=           -118.5397   YY=            -92.7769   ZZ=            -89.5233
   XY=              4.8648   XZ=             -0.9562   YZ=              0.1003

 Normal termination of Gaussian 16 at Wed May  5 23:45:43 2021.
