 Gaussian 16, Revision A.03,
 Gaussian 16:  EM64L-G16RevA.03 25-Dec-2016

 -------------
 #p 6-31g* mp2
 -------------

 ------------------------------------------------------
 Input file generated by CHIRIPA (05-May-2021 14:57:23)
 ------------------------------------------------------
 Symbolic Z-matrix:
 Charge =  0 Multiplicity = 1

                         Standard orientation:
 ---------------------------------------------------------------------
 Center     Atomic      Atomic             Coordinates (Angstroms)
 Number     Number       Type             X           Y           Z
 ---------------------------------------------------------------------
      1          6           0        4.452844    0.673969    0.793894
      2          6           0        4.199837    0.778380   -0.577822
      3          6           0        3.082340    0.156849   -1.143021
      4          6           0        2.234990   -0.564392   -0.303318
      5          6           0        2.460096   -0.686815    1.066948
      6          6           0        3.583698   -0.057006    1.610462
      7          1           0        5.323313    1.160005    1.224532
      8          1           0        4.873106    1.345413   -1.214397
      9          1           0        2.862673    0.221447   -2.201789
     10          1           0        1.770821   -1.258931    1.676046
     11          1           0        3.777692   -0.139794    2.676087
     12          7           0        1.048715   -1.226760   -0.890191
     13          8           0        0.317503   -1.856375   -0.128908
     14          8           0        0.872587   -1.103769   -2.100351
     15          6           0       -3.185573   -1.923702    0.576050
     16          6           0       -3.393940   -1.307459   -0.662235
     17          6           0       -2.979707    0.010235   -0.878200
     18          6           0       -2.357505    0.685211    0.170877
     19          6           0       -2.135720    0.098631    1.415877
     20          6           0       -2.558235   -1.219931    1.609332
     21          1           0       -3.510576   -2.947656    0.735072
     22          1           0       -3.880878   -1.851593   -1.466509
     23          1           0       -3.128503    0.511485   -1.826897
     24          1           0       -1.647557    0.666593    2.198523
     25          1           0       -2.395102   -1.695978    2.572042
     26          7           0       -1.914592    2.080654   -0.045839
     27          8           0       -1.368760    2.653745    0.894519
     28          8           0       -2.121654    2.574890   -1.151956
 ---------------------------------------------------------------------

 SCF Done:  E(RHF) =  -868.338065812     A.U. after   16 cycles
 E2 =    -0.2601674933D+01 EUMP2 =    -0.87093974074501D+03

 The electronic state is 1-A.
 Alpha  occ. eigenvalues --  -20.60859 -20.60841 -20.60037 -20.60012 -15.85873
 Alpha  occ. eigenvalues --  -15.85067 -11.31106 -11.30063 -11.27709 -11.27630
 Alpha  occ. eigenvalues --  -11.27373 -11.26676 -11.26670 -11.26616 -11.26582
 Alpha  occ. eigenvalues --  -11.26292 -11.25600 -11.25512  -1.59920  -1.59114
 Alpha  occ. eigenvalues --   -1.39480  -1.38676  -1.19262  -1.18190  -1.08686
 Alpha  occ. eigenvalues --   -1.07668  -1.04652  -1.03574  -0.95549  -0.94575
 Alpha  occ. eigenvalues --   -0.86061  -0.85021  -0.82394  -0.81444  -0.77460
 Alpha  occ. eigenvalues --   -0.76532  -0.72130  -0.71305  -0.71266  -0.70414
 Alpha  occ. eigenvalues --   -0.70385  -0.69376  -0.64929  -0.64666  -0.63892
 Alpha  occ. eigenvalues --   -0.63647  -0.62016  -0.60988  -0.55164  -0.54130
 Alpha  occ. eigenvalues --   -0.52981  -0.52756  -0.51874  -0.51734  -0.48886
 Alpha  occ. eigenvalues --   -0.48815  -0.48072  -0.48025  -0.44874  -0.44158
 Alpha  occ. eigenvalues --   -0.37222  -0.36239  -0.36095  -0.35063
 Alpha virt. eigenvalues --    0.05018   0.06051   0.11403   0.12538   0.16589
 Alpha virt. eigenvalues --    0.17600   0.21488   0.22433   0.27337   0.28093
 Alpha virt. eigenvalues --    0.28583   0.29312   0.31074   0.31916   0.32572

 Mulliken charges:
               1
     1  C   -0.169250
     2  C   -0.217219
     3  C   -0.168426
     4  C    0.158749
     5  C   -0.169838
     6  C   -0.216967
     7  H    0.226174
     8  H    0.224605
     9  H    0.276615
    10  H    0.269830
    11  H    0.222289
    12  N    0.488561
    13  O   -0.463742
    14  O   -0.460448
    15  C   -0.159265
    16  C   -0.210299
    17  C   -0.164326
    18  C    0.154406
    19  C   -0.170553
    20  C   -0.207312
    21  H    0.221963
    22  H    0.221041
    23  H    0.273307
    24  H    0.266598
    25  H    0.215626
    26  N    0.487180
    27  O   -0.467642
    28  O   -0.461655
 Sum of Mulliken charges =  -0.00000

 Dipole moment (field-independent basis, Debye):
    X=              2.7266    Y=             -2.7819    Z=              2.6491  Tot=              4.7107
 Quadrupole moment (field-independent basis, Debye-Ang):
   XX=            -78.7905   YY=           -115.2357   ZZ=            -97.7562
   XY=             15.0774   XZ=              2.1774   YZ=             -3.8805

 Normal termination of Gaussian 16 at Wed May  5 16:22:38 2021.
