 Gaussian 16, Revision A.03,
 Gaussian 16:  EM64L-G16RevA.03 25-Dec-2016

 -------------
 #p 6-31g* mp2
 -------------

 ------------------------------------------------------
 Input file generated by CHIRIPA (05-May-2021 14:55:21)
 ------------------------------------------------------
 Symbolic Z-matrix:
 Charge =  0 Multiplicity = 1

                         Standard orientation:
 ---------------------------------------------------------------------
 Center     Atomic      Atomic             Coordinates (Angstroms)
 Number     Number       Type             X           Y           Z
 ---------------------------------------------------------------------
      1          6           0        0.463602   -0.493754    1.498613
      2          6           0        0.803035   -1.466285    0.552310
      3          6           0        2.020015   -1.396600   -0.132271
      4          6           0        2.877638   -0.335972    0.155548
      5          6           0        2.567940    0.648360    1.092814
      6          6           0        1.345584    0.558610    1.765374
      7          1           0       -0.483865   -0.555680    2.025743
      8          1           0        0.120029   -2.284687    0.343101
      9          1           0        2.307927   -2.135936   -0.869772
     10          1           0        3.269372    1.452359    1.279886
     11          1           0        1.084611    1.315313    2.499771
     12          7           0        4.168847   -0.251579   -0.562825
     13          8           0        4.907040    0.692819   -0.291124
     14          8           0        4.418253   -1.131426   -1.383983
     15          6           0       -4.075478    0.316789    0.002485
     16          6           0       -4.827360   -0.894448   -0.550294
     17          6           0       -6.154787   -1.143759    0.166345
     18          1           0       -3.892282    0.168253    1.075482
     19          1           0       -4.713519    1.207059   -0.085369
     20          1           0       -4.187561   -1.781916   -0.462693
     21          1           0       -5.008619   -0.743096   -1.622140
     22          1           0       -6.814663   -0.275723    0.067960
     23          1           0       -5.988940   -1.320445    1.233995
     24          1           0       -6.675635   -2.014180   -0.244683
     25          6           0       -2.746491    0.578907   -0.703783
     26          6           0       -1.994610    1.790144   -0.151003
     27          6           0       -0.667181    2.039454   -0.867642
     28          1           0       -2.108451   -0.311363   -0.615929
     29          1           0       -2.929687    0.727443   -1.776780
     30          1           0       -1.813351    1.638793    0.920843
     31          1           0       -2.634408    2.677612   -0.238605
     32          1           0       -0.833029    2.216141   -1.935293
     33          1           0       -0.007306    1.171418   -0.769257
     34          1           0       -0.146335    2.909876   -0.456614
 ---------------------------------------------------------------------

 SCF Done:  E(RHF) =  -669.533802570     A.U. after   15 cycles
 E2 =    -0.2095278874D+01 EUMP2 =    -0.67162908144339D+03

 The electronic state is 1-A.
 Alpha  occ. eigenvalues --  -20.60837 -20.60831 -15.85892 -11.31313 -11.27898
 Alpha  occ. eigenvalues --  -11.27854 -11.27578 -11.26895 -11.26837 -11.22246
 Alpha  occ. eigenvalues --  -11.22175 -11.22077 -11.21993 -11.21633 -11.21203
 Alpha  occ. eigenvalues --   -1.59911  -1.39463  -1.19497  -1.09088  -1.08842
 Alpha  occ. eigenvalues --   -1.04889  -1.04059  -0.96485  -0.95693  -0.87497
 Alpha  occ. eigenvalues --   -0.86277  -0.82518  -0.80139  -0.78879  -0.77562
 Alpha  occ. eigenvalues --   -0.72107  -0.71234  -0.70593  -0.65739  -0.65127
 Alpha  occ. eigenvalues --   -0.64864  -0.62226  -0.61544  -0.59864  -0.58111
 Alpha  occ. eigenvalues --   -0.55956  -0.55373  -0.53329  -0.53128  -0.52963
 Alpha  occ. eigenvalues --   -0.52727  -0.50314  -0.48872  -0.48860  -0.48410
 Alpha  occ. eigenvalues --   -0.47155  -0.46403  -0.46334  -0.44857  -0.44342
 Alpha  occ. eigenvalues --   -0.37392  -0.36476
 Alpha virt. eigenvalues --    0.04946   0.11006   0.16363   0.19564   0.22933
 Alpha virt. eigenvalues --    0.24123   0.25430   0.25602   0.27117   0.28173
 Alpha virt. eigenvalues --    0.29551   0.30485   0.31177   0.31350   0.32094

 Mulliken charges:
               1
     1  C   -0.171292
     2  C   -0.219753
     3  C   -0.171769
     4  C    0.159323
     5  C   -0.170705
     6  C   -0.214552
     7  H    0.226959
     8  H    0.224258
     9  H    0.276529
    10  H    0.276251
    11  H    0.224187
    12  N    0.488196
    13  O   -0.459833
    14  O   -0.460025
    15  C   -0.297886
    16  C   -0.299039
    17  C   -0.475803
    18  H    0.143234
    19  H    0.152640
    20  H    0.147768
    21  H    0.154825
    22  H    0.157067
    23  H    0.153889
    24  H    0.161976
    25  C   -0.300309
    26  C   -0.298032
    27  C   -0.479469
    28  H    0.144246
    29  H    0.153854
    30  H    0.139544
    31  H    0.154172
    32  H    0.155553
    33  H    0.167206
    34  H    0.156791
 Sum of Mulliken charges =  -0.00000

 Dipole moment (field-independent basis, Debye):
    X=             -4.4823    Y=             -0.3064    Z=              2.4781  Tot=              5.1309
 Quadrupole moment (field-independent basis, Debye-Ang):
   XX=           -121.7502   YY=            -91.1357   ZZ=            -93.0037
   XY=              1.1840   XZ=              8.2653   YZ=              1.2386

 Normal termination of Gaussian 16 at Thu May  6 19:09:03 2021.
