 Gaussian 16, Revision A.03,
 Gaussian 16:  EM64L-G16RevA.03 25-Dec-2016

 -------------
 #p 6-31g* mp2
 -------------

 ------------------------------------------------------
 Input file generated by CHIRIPA (05-May-2021 14:55:25)
 ------------------------------------------------------
 Symbolic Z-matrix:
 Charge =  0 Multiplicity = 1

                         Standard orientation:
 ---------------------------------------------------------------------
 Center     Atomic      Atomic             Coordinates (Angstroms)
 Number     Number       Type             X           Y           Z
 ---------------------------------------------------------------------
      1          6           0        3.544753    2.604220    0.336503
      2          6           0        2.539632    1.916474    1.024440
      3          6           0        2.349874    0.546367    0.821102
      4          6           0        3.187113   -0.107539   -0.081522
      5          6           0        4.197290    0.549844   -0.782007
      6          6           0        4.368921    1.919917   -0.562939
      7          1           0        3.685120    3.668539    0.500570
      8          1           0        1.898083    2.445334    1.723558
      9          1           0        1.579465   -0.010626    1.340377
     10          1           0        4.821128   -0.004524   -1.472601
     11          1           0        5.150320    2.451456   -1.098595
     12          7           0        2.995820   -1.557992   -0.305113
     13          8           0        3.746675   -2.111141   -1.105663
     14          8           0        2.098653   -2.114243    0.324420
     15          6           0       -3.358314   -0.197503    0.005900
     16          6           0       -2.735509   -1.306887    0.854055
     17          6           0       -1.211395   -1.352493    0.740962
     18          1           0       -3.071346   -0.342869   -1.044558
     19          1           0       -2.937755    0.769816    0.313825
     20          1           0       -3.158142   -2.271681    0.545562
     21          1           0       -3.024151   -1.158972    1.902590
     22          1           0       -0.772289   -0.404439    1.068040
     23          1           0       -0.907042   -1.523470   -0.296698
     24          1           0       -0.787011   -2.152754    1.355242
     25          6           0       -4.881405   -0.139171    0.108458
     26          6           0       -5.504210    0.970212   -0.739697
     27          6           0       -7.028325    1.015819   -0.626603
     28          1           0       -5.301965   -1.106490   -0.199466
     29          1           0       -5.168374    0.006195    1.158917
     30          1           0       -5.215569    0.822297   -1.788231
     31          1           0       -5.081577    1.935007   -0.431203
     32          1           0       -7.332677    1.186796    0.411057
     33          1           0       -7.467431    0.067764   -0.953681
     34          1           0       -7.452708    1.816080   -1.240883
 ---------------------------------------------------------------------

 SCF Done:  E(RHF) =  -669.535207317     A.U. after   15 cycles
 E2 =    -0.2091924902D+01 EUMP2 =    -0.67162713221862D+03

 The electronic state is 1-A.
 Alpha  occ. eigenvalues --  -20.60781 -20.60767 -15.85811 -11.31153 -11.27738
 Alpha  occ. eigenvalues --  -11.27684 -11.27483 -11.26749 -11.26736 -11.21537
 Alpha  occ. eigenvalues --  -11.21275 -11.21250 -11.21181 -11.21022 -11.20549
 Alpha  occ. eigenvalues --   -1.59843  -1.39397  -1.19333  -1.08736  -1.08256
 Alpha  occ. eigenvalues --   -1.04736  -1.03311  -0.95774  -0.95547  -0.86769
 Alpha  occ. eigenvalues --   -0.86129  -0.82407  -0.79396  -0.78088  -0.77422
 Alpha  occ. eigenvalues --   -0.72035  -0.71159  -0.70453  -0.64992  -0.64907
 Alpha  occ. eigenvalues --   -0.64738  -0.62111  -0.60707  -0.59104  -0.57356
 Alpha  occ. eigenvalues --   -0.55294  -0.55019  -0.53068  -0.52882  -0.52372
 Alpha  occ. eigenvalues --   -0.52134  -0.49705  -0.48796  -0.48781  -0.47690
 Alpha  occ. eigenvalues --   -0.46435  -0.45622  -0.45552  -0.44762  -0.43521
 Alpha  occ. eigenvalues --   -0.37319  -0.36331
 Alpha virt. eigenvalues --    0.05051   0.11287   0.16534   0.21091   0.23030
 Alpha virt. eigenvalues --    0.24413   0.26080   0.26992   0.27713   0.27782
 Alpha virt. eigenvalues --    0.29281   0.30770   0.31517   0.31901   0.32408

 Mulliken charges:
               1
     1  C   -0.170445
     2  C   -0.220728
     3  C   -0.173037
     4  C    0.156186
     5  C   -0.170668
     6  C   -0.218841
     7  H    0.225433
     8  H    0.223078
     9  H    0.284742
    10  H    0.275384
    11  H    0.223270
    12  N    0.489218
    13  O   -0.460586
    14  O   -0.460552
    15  C   -0.297534
    16  C   -0.302624
    17  C   -0.469699
    18  H    0.150577
    19  H    0.144676
    20  H    0.154071
    21  H    0.148478
    22  H    0.135009
    23  H    0.162821
    24  H    0.173051
    25  C   -0.297900
    26  C   -0.299249
    27  C   -0.475563
    28  H    0.150609
    29  H    0.148615
    30  H    0.152239
    31  H    0.149911
    32  H    0.154672
    33  H    0.155830
    34  H    0.159555
 Sum of Mulliken charges =  -0.00000

 Dipole moment (field-independent basis, Debye):
    X=              0.7573    Y=              4.9496    Z=              0.7499  Tot=              5.0630
 Quadrupole moment (field-independent basis, Debye-Ang):
   XX=            -89.6242   YY=            -95.8233   ZZ=            -92.6991
   XY=             16.8615   XZ=             -0.2705   YZ=             -0.0107

 Normal termination of Gaussian 16 at Thu May  6 00:04:46 2021.
