 Gaussian 16, Revision A.03,
 Gaussian 16:  EM64L-G16RevA.03 25-Dec-2016

 -------------
 #p 6-31g* mp2
 -------------

 ------------------------------------------------------
 Input file generated by CHIRIPA (05-May-2021 14:51:11)
 ------------------------------------------------------
 Symbolic Z-matrix:
 Charge =  0 Multiplicity = 1

                         Standard orientation:
 ---------------------------------------------------------------------
 Center     Atomic      Atomic             Coordinates (Angstroms)
 Number     Number       Type             X           Y           Z
 ---------------------------------------------------------------------
      1          6           0       -3.017116    1.212963    0.185610
      2          6           0       -1.704903    1.009498    0.943690
      3          6           0       -0.988473    2.325272    1.249073
      4          1           0       -2.812284    1.746882   -0.752430
      5          1           0       -3.677316    1.862308    0.777118
      6          1           0       -1.047914    0.359605    0.351558
      7          1           0       -1.912857    0.475832    1.879944
      8          1           0       -1.622204    2.976192    1.860046
      9          1           0       -0.752346    2.859304    0.322977
     10          1           0       -0.052899    2.156514    1.791366
     11          6           0       -3.744988   -0.093260   -0.126975
     12          6           0       -5.057201    0.110205   -0.885055
     13          6           0       -5.773631   -1.205569   -1.190438
     14          1           0       -3.084788   -0.742605   -0.718482
     15          1           0       -3.949821   -0.627179    0.811065
     16          1           0       -4.849247    0.643871   -1.821309
     17          1           0       -5.714191    0.760098   -0.292923
     18          1           0       -6.009758   -1.739602   -0.264341
     19          1           0       -5.139900   -1.856489   -1.801411
     20          1           0       -6.709205   -1.036812   -1.732731
     21          6           0        4.134891   -0.473743   -0.117310
     22          6           0        4.512547    0.759289   -0.938890
     23          6           0        6.024048    0.917949   -1.106177
     24          1           0        4.609674   -0.407351    0.871184
     25          1           0        4.547045   -1.369350   -0.602505
     26          1           0        4.098628    1.652167   -0.453032
     27          1           0        4.036656    0.690047   -1.925474
     28          1           0        6.449476    0.044813   -1.611395
     29          1           0        6.511801    1.012399   -0.130587
     30          1           0        6.271633    1.805613   -1.696614
     31          6           0        2.627212   -0.645959    0.058675
     32          6           0        2.249557   -1.878992    0.880255
     33          6           0        0.738056   -2.037652    1.047542
     34          1           0        2.215059    0.249647    0.543871
     35          1           0        2.152431   -0.712352   -0.929819
     36          1           0        2.725449   -1.809750    1.866839
     37          1           0        2.663476   -2.771869    0.394398
     38          1           0        0.250303   -2.132101    0.071952
     39          1           0        0.312627   -1.164515    1.552760
     40          1           0        0.490472   -2.925315    1.637978
 ---------------------------------------------------------------------

 SCF Done:  E(RHF) =  -470.732647251     A.U. after   11 cycles
 E2 =    -0.1583397321D+01 EUMP2 =    -0.47231604457264D+03

 The electronic state is 1-A.
 Alpha  occ. eigenvalues --  -11.21604 -11.21582 -11.21574 -11.21501 -11.21414
 Alpha  occ. eigenvalues --  -11.21362 -11.21355 -11.21302 -11.21075 -11.21073
 Alpha  occ. eigenvalues --  -11.21049 -11.20980  -1.08440  -1.08384  -1.03558
 Alpha  occ. eigenvalues --   -1.03467  -0.95987  -0.95941  -0.87026  -0.86936
 Alpha  occ. eigenvalues --   -0.79725  -0.79452  -0.78313  -0.78129  -0.65072
 Alpha  occ. eigenvalues --   -0.65017  -0.60956  -0.60881  -0.59430  -0.59250
 Alpha  occ. eigenvalues --   -0.57684  -0.57474  -0.55257  -0.55239  -0.52668
 Alpha  occ. eigenvalues --   -0.52654  -0.52486  -0.52312  -0.49944  -0.49880
 Alpha  occ. eigenvalues --   -0.48182  -0.47645  -0.46637  -0.46561  -0.45938
 Alpha  occ. eigenvalues --   -0.45738  -0.45678  -0.45389  -0.43777  -0.43750
 Alpha virt. eigenvalues --    0.21178   0.23026   0.23545   0.24673   0.25754
 Alpha virt. eigenvalues --    0.26426   0.26725   0.27392   0.28493   0.29387
 Alpha virt. eigenvalues --    0.30297   0.31330   0.31665   0.31739   0.32151

 Mulliken charges:
               1
     1  C   -0.297839
     2  C   -0.305738
     3  C   -0.476759
     4  H    0.149308
     5  H    0.149015
     6  H    0.160285
     7  H    0.151177
     8  H    0.155222
     9  H    0.155562
    10  H    0.159234
    11  C   -0.298206
    12  C   -0.299626
    13  C   -0.475634
    14  H    0.149496
    15  H    0.149820
    16  H    0.151768
    17  H    0.151867
    18  H    0.155219
    19  H    0.155084
    20  H    0.160115
    21  C   -0.298165
    22  C   -0.299694
    23  C   -0.475712
    24  H    0.149696
    25  H    0.149631
    26  H    0.152171
    27  H    0.151770
    28  H    0.155155
    29  H    0.155214
    30  H    0.160276
    31  C   -0.300265
    32  C   -0.299482
    33  C   -0.481062
    34  H    0.151098
    35  H    0.149009
    36  H    0.151648
    37  H    0.151612
    38  H    0.153758
    39  H    0.164233
    40  H    0.159739
 Sum of Mulliken charges =  -0.00000

 Dipole moment (field-independent basis, Debye):
    X=              0.0018    Y=             -0.0069    Z=              0.0053  Tot=              0.0089
 Quadrupole moment (field-independent basis, Debye-Ang):
   XX=            -86.1833   YY=            -85.3926   ZZ=            -83.3811
   XY=             -0.7701   XZ=             -0.3959   YZ=              0.3144

 Normal termination of Gaussian 16 at Thu May  6 00:42:31 2021.
