 Gaussian 16, Revision A.03,
 Gaussian 16:  EM64L-G16RevA.03 25-Dec-2016

 -------------
 #p 6-31g* mp2
 -------------

 ------------------------------------------------------
 Input file generated by CHIRIPA (05-May-2021 14:57:21)
 ------------------------------------------------------
 Symbolic Z-matrix:
 Charge =  0 Multiplicity = 1

                         Standard orientation:
 ---------------------------------------------------------------------
 Center     Atomic      Atomic             Coordinates (Angstroms)
 Number     Number       Type             X           Y           Z
 ---------------------------------------------------------------------
      1          6           0        2.203237   -2.132282    1.292358
      2          6           0        2.337603   -0.963926    2.049597
      3          6           0        2.750511    0.228570    1.447926
      4          6           0        3.021916    0.216713    0.080633
      5          6           0        2.897443   -0.931015   -0.700722
      6          6           0        2.483092   -2.112133   -0.077969
      7          1           0        1.881919   -3.054222    1.767939
      8          1           0        2.120950   -0.976620    3.113996
      9          1           0        2.862826    1.147485    2.010420
     10          1           0        3.120647   -0.887241   -1.759817
     11          1           0        2.379611   -3.017983   -0.668538
     12          7           0        3.459807    1.473132   -0.567488
     13          8           0        3.692807    1.436413   -1.773722
     14          8           0        3.561734    2.470843    0.143020
     15          6           0       -4.954736    1.316363    0.579137
     16          6           0       -5.123288    0.025812    0.066702
     17          6           0       -4.019535   -0.718049   -0.361024
     18          6           0       -2.755911   -0.137833   -0.261563
     19          6           0       -2.555543    1.145568    0.244424
     20          6           0       -3.673659    1.871144    0.666209
     21          1           0       -5.817737    1.887109    0.909098
     22          1           0       -6.117010   -0.407581   -0.002096
     23          1           0       -4.121402   -1.719273   -0.761763
     24          1           0       -1.552531    1.550820    0.300619
     25          1           0       -3.539759    2.873180    1.063750
     26          7           0       -1.579814   -0.915646   -0.711232
     27          8           0       -0.477045   -0.381869   -0.613149
     28          8           0       -1.783027   -2.044344   -1.153251
 ---------------------------------------------------------------------

 SCF Done:  E(RHF) =  -868.338204997     A.U. after   16 cycles
 E2 =    -0.2600633938D+01 EUMP2 =    -0.87093883893511D+03

 The electronic state is 1-A.
 Alpha  occ. eigenvalues --  -20.61145 -20.61106 -20.59808 -20.59780 -15.86161
 Alpha  occ. eigenvalues --  -15.84836 -11.31416 -11.29863 -11.27988 -11.27946
 Alpha  occ. eigenvalues --  -11.27695 -11.26974 -11.26939 -11.26519 -11.26345
 Alpha  occ. eigenvalues --  -11.26159 -11.25520 -11.25301  -1.60203  -1.58875
 Alpha  occ. eigenvalues --   -1.39758  -1.38440  -1.19581  -1.18006  -1.08999
 Alpha  occ. eigenvalues --   -1.07495  -1.04963  -1.03398  -0.95853  -0.94391
 Alpha  occ. eigenvalues --   -0.86367  -0.84848  -0.82687  -0.81255  -0.77747
 Alpha  occ. eigenvalues --   -0.76326  -0.72413  -0.71518  -0.71082  -0.70686
 Alpha  occ. eigenvalues --   -0.70172  -0.69224  -0.65235  -0.64963  -0.63719
 Alpha  occ. eigenvalues --   -0.63478  -0.62308  -0.60807  -0.55473  -0.53989
 Alpha  occ. eigenvalues --   -0.53307  -0.53053  -0.51740  -0.51561  -0.49160
 Alpha  occ. eigenvalues --   -0.49058  -0.47844  -0.47802  -0.45170  -0.43923
 Alpha  occ. eigenvalues --   -0.37561  -0.36564  -0.35960  -0.34874
 Alpha virt. eigenvalues --    0.04772   0.06217   0.11092   0.12693   0.16293
 Alpha virt. eigenvalues --    0.17779   0.21258   0.22577   0.27179   0.28133
 Alpha virt. eigenvalues --    0.28478   0.29426   0.30819   0.32037   0.32369

 Mulliken charges:
               1
     1  C   -0.169035
     2  C   -0.218368
     3  C   -0.173435
     4  C    0.162492
     5  C   -0.156527
     6  C   -0.202828
     7  H    0.220586
     8  H    0.215373
     9  H    0.267729
    10  H    0.272456
    11  H    0.222725
    12  N    0.487661
    13  O   -0.462014
    14  O   -0.468190
    15  C   -0.170507
    16  C   -0.218691
    17  C   -0.171263
    18  C    0.157393
    19  C   -0.171070
    20  C   -0.218826
    21  H    0.226551
    22  H    0.223719
    23  H    0.274679
    24  H    0.277978
    25  H    0.225605
    26  N    0.489999
    27  O   -0.459302
    28  O   -0.464890
 Sum of Mulliken charges =  -0.00000

 Dipole moment (field-independent basis, Debye):
    X=             -5.9326    Y=             -1.7984    Z=              3.6661  Tot=              7.2020
 Quadrupole moment (field-independent basis, Debye-Ang):
   XX=            -91.3804   YY=           -104.4146   ZZ=           -102.5521
   XY=            -19.1758   XZ=              3.3394   YZ=              2.8927

 Normal termination of Gaussian 16 at Wed May  5 19:18:12 2021.
