 Gaussian 16, Revision A.03,
 Gaussian 16:  EM64L-G16RevA.03 25-Dec-2016

 -------------
 #p 6-31g* mp2
 -------------

 ------------------------------------------------------
 Input file generated by CHIRIPA (05-May-2021 14:53:11)
 ------------------------------------------------------
 Symbolic Z-matrix:
 Charge =  0 Multiplicity = 1

                         Standard orientation:
 ---------------------------------------------------------------------
 Center     Atomic      Atomic             Coordinates (Angstroms)
 Number     Number       Type             X           Y           Z
 ---------------------------------------------------------------------
      1          6           0        2.670972    0.740264    0.696652
      2          6           0        2.088731    2.150971    0.602387
      3          6           0        1.096572    2.457214    1.724719
      4          1           0        1.850893    0.009624    0.672513
      5          1           0        3.167833    0.620431    1.669362
      6          1           0        1.594314    2.268563   -0.370413
      7          1           0        2.910304    2.878329    0.626560
      8          1           0        1.581104    2.367477    2.702357
      9          1           0        0.257637    1.754246    1.699719
     10          1           0        0.692645    3.470717    1.638021
     11          6           0        3.664533    0.419191   -0.418461
     12          6           0        4.246774   -0.991517   -0.324196
     13          6           0        5.238933   -1.297760   -1.446528
     14          1           0        3.167672    0.539023   -1.391170
     15          1           0        4.484612    1.149830   -0.394322
     16          1           0        3.425201   -1.718875   -0.348369
     17          1           0        4.741191   -1.109108    0.648604
     18          1           0        6.077868   -0.594792   -1.421528
     19          1           0        4.754401   -1.208023   -2.424166
     20          1           0        5.642860   -2.311262   -1.359829
     21          6           0       -1.118402   -1.883730    1.465767
     22          6           0       -0.576170   -1.484360    0.239796
     23          6           0       -1.318631   -0.691541   -0.640397
     24          6           0       -2.605939   -0.314586   -0.260880
     25          6           0       -3.173939   -0.696400    0.953569
     26          6           0       -2.413273   -1.489171    1.818120
     27          1           0       -0.534569   -2.499593    2.143447
     28          1           0        0.429185   -1.789286   -0.036479
     29          1           0       -0.923348   -0.368166   -1.595696
     30          1           0       -4.178860   -0.376692    1.201237
     31          1           0       -2.836946   -1.797839    2.769578
     32          7           0       -3.401585    0.524711   -1.184420
     33          8           0       -4.533398    0.843518   -0.826648
     34          8           0       -2.878335    0.847853   -2.248574
 ---------------------------------------------------------------------

 SCF Done:  E(RHF) =  -669.535165898     A.U. after   15 cycles
 E2 =    -0.2093064996D+01 EUMP2 =    -0.67162823089412D+03

 The electronic state is 1-A.
 Alpha  occ. eigenvalues --  -20.60826 -20.60820 -15.85881 -11.31279 -11.27863
 Alpha  occ. eigenvalues --  -11.27842 -11.27593 -11.26868 -11.26854 -11.22322
 Alpha  occ. eigenvalues --  -11.21943 -11.21900 -11.21831 -11.21612 -11.21239
 Alpha  occ. eigenvalues --   -1.59900  -1.39453  -1.19460  -1.08957  -1.08836
 Alpha  occ. eigenvalues --   -1.04870  -1.03975  -0.96411  -0.95670  -0.87428
 Alpha  occ. eigenvalues --   -0.86262  -0.82507  -0.80060  -0.78776  -0.77543
 Alpha  occ. eigenvalues --   -0.72098  -0.71224  -0.70549  -0.65695  -0.65106
 Alpha  occ. eigenvalues --   -0.64807  -0.62210  -0.61382  -0.59786  -0.58022
 Alpha  occ. eigenvalues --   -0.55710  -0.55344  -0.53214  -0.53092  -0.52997
 Alpha  occ. eigenvalues --   -0.52787  -0.50360  -0.48862  -0.48851  -0.48362
 Alpha  occ. eigenvalues --   -0.47111  -0.46279  -0.46207  -0.44851  -0.44242
 Alpha  occ. eigenvalues --   -0.37413  -0.36420
 Alpha virt. eigenvalues --    0.04983   0.11079   0.16385   0.19347   0.22948
 Alpha virt. eigenvalues --    0.23600   0.25018   0.26379   0.27311   0.28424
 Alpha virt. eigenvalues --    0.29364   0.30182   0.31367   0.31452   0.31978

 Mulliken charges:
               1
     1  C   -0.304157
     2  C   -0.299293
     3  C   -0.478419
     4  H    0.146500
     5  H    0.149328
     6  H    0.153986
     7  H    0.153430
     8  H    0.153096
     9  H    0.157984
    10  H    0.163450
    11  C   -0.299030
    12  C   -0.299608
    13  C   -0.475849
    14  H    0.149193
    15  H    0.153387
    16  H    0.142071
    17  H    0.153681
    18  H    0.158139
    19  H    0.156359
    20  H    0.160955
    21  C   -0.172295
    22  C   -0.218639
    23  C   -0.172596
    24  C    0.158719
    25  C   -0.170458
    26  C   -0.218457
    27  H    0.227001
    28  H    0.227393
    29  H    0.276006
    30  H    0.276129
    31  H    0.224108
    32  N    0.488187
    33  O   -0.460025
    34  O   -0.460277
 Sum of Mulliken charges =  -0.00000

 Dipole moment (field-independent basis, Debye):
    X=              2.7953    Y=             -2.9060    Z=              3.2578  Tot=              5.1838
 Quadrupole moment (field-independent basis, Debye-Ang):
   XX=           -106.2720   YY=            -93.5400   ZZ=            -94.9334
   XY=              7.5970   XZ=            -11.3387   YZ=             -0.4659

 Normal termination of Gaussian 16 at Wed May  5 18:28:17 2021.
