 Gaussian 16, Revision A.03,
 Gaussian 16:  EM64L-G16RevA.03 25-Dec-2016

 -------------
 #p 6-31g* mp2
 -------------

 ------------------------------------------------------
 Input file generated by CHIRIPA (05-May-2021 14:51:14)
 ------------------------------------------------------
 Symbolic Z-matrix:
 Charge =  0 Multiplicity = 1

                         Standard orientation:
 ---------------------------------------------------------------------
 Center     Atomic      Atomic             Coordinates (Angstroms)
 Number     Number       Type             X           Y           Z
 ---------------------------------------------------------------------
      1          6           0       -3.923117    0.282287    0.256097
      2          6           0       -5.342176    0.330822   -0.311266
      3          6           0       -6.177265    1.466244    0.281386
      4          1           0       -3.975146    0.169914    1.347706
      5          1           0       -3.425901    1.243184    0.064140
      6          1           0       -5.836096   -0.630371   -0.119516
      7          1           0       -5.286761    0.442899   -1.401671
      8          1           0       -5.709792    2.435077    0.077838
      9          1           0       -6.262248    1.355709    1.367278
     10          1           0       -7.188016    1.482435   -0.138113
     11          6           0       -3.075983   -0.847515   -0.326689
     12          6           0       -1.656924   -0.896050    0.240674
     13          6           0       -0.821835   -2.031472   -0.351978
     14          1           0       -3.573200   -1.808412   -0.134732
     15          1           0       -3.023954   -0.735142   -1.418298
     16          1           0       -1.712339   -1.008127    1.331079
     17          1           0       -1.163005    0.065143    0.048924
     18          1           0       -0.736852   -1.920937   -1.437870
     19          1           0       -1.289309   -3.000306   -0.148430
     20          1           0        0.188916   -2.047664    0.067521
     21          6           0        3.363992   -0.360269    0.424857
     22          6           0        3.596194   -1.628117   -0.397717
     23          6           0        3.320861   -2.906019    0.395347
     24          1           0        4.006232   -0.386130    1.315813
     25          1           0        2.326739   -0.351614    0.787387
     26          1           0        4.632303   -1.633699   -0.759744
     27          1           0        2.953466   -1.599145   -1.286918
     28          1           0        2.283213   -2.927107    0.743833
     29          1           0        3.971589   -2.961858    1.274003
     30          1           0        3.493092   -3.800237   -0.211753
     31          6           0        3.635109    0.925497   -0.354265
     32          6           0        3.402906    2.193345    0.468309
     33          6           0        3.678239    3.471247   -0.324755
     34          1           0        4.672360    0.916843   -0.716795
     35          1           0        2.992867    0.951358   -1.245221
     36          1           0        4.045634    2.164373    1.357509
     37          1           0        2.366797    2.198928    0.830336
     38          1           0        3.027511    3.527087   -1.203411
     39          1           0        4.715887    3.492336   -0.673242
     40          1           0        3.506007    4.365466    0.282345
 ---------------------------------------------------------------------

 SCF Done:  E(RHF) =  -470.733200889     A.U. after   11 cycles
 E2 =    -0.1582919824D+01 EUMP2 =    -0.47231612071302D+03

 The electronic state is 1-A.
 Alpha  occ. eigenvalues --  -11.21666 -11.21627 -11.21601 -11.21581 -11.21444
 Alpha  occ. eigenvalues --  -11.21403 -11.21384 -11.21343 -11.21120 -11.21090
 Alpha  occ. eigenvalues --  -11.21075 -11.21044  -1.08474  -1.08424  -1.03586
 Alpha  occ. eigenvalues --   -1.03513  -0.96036  -0.95962  -0.87052  -0.86980
 Alpha  occ. eigenvalues --   -0.79644  -0.79576  -0.78283  -0.78239  -0.65118
 Alpha  occ. eigenvalues --   -0.65062  -0.61014  -0.60960  -0.59422  -0.59277
 Alpha  occ. eigenvalues --   -0.57657  -0.57554  -0.55315  -0.55270  -0.52739
 Alpha  occ. eigenvalues --   -0.52663  -0.52460  -0.52356  -0.49980  -0.49895
 Alpha  occ. eigenvalues --   -0.48008  -0.47847  -0.46681  -0.46598  -0.45825
 Alpha  occ. eigenvalues --   -0.45780  -0.45756  -0.45686  -0.43807  -0.43765
 Alpha virt. eigenvalues --    0.20395   0.23093   0.23654   0.24980   0.26230
 Alpha virt. eigenvalues --    0.26680   0.27021   0.27496   0.27962   0.28978
 Alpha virt. eigenvalues --    0.30419   0.31308   0.31725   0.31759   0.32074

 Mulliken charges:
               1
     1  C   -0.298271
     2  C   -0.299677
     3  C   -0.475733
     4  H    0.149768
     5  H    0.149476
     6  H    0.152019
     7  H    0.151972
     8  H    0.155212
     9  H    0.155241
    10  H    0.160351
    11  C   -0.298538
    12  C   -0.299317
    13  C   -0.484816
    14  H    0.149811
    15  H    0.149717
    16  H    0.152155
    17  H    0.151370
    18  H    0.155296
    19  H    0.155775
    20  H    0.168661
    21  C   -0.300795
    22  C   -0.300308
    23  C   -0.479734
    24  H    0.149731
    25  H    0.151071
    26  H    0.152147
    27  H    0.153109
    28  H    0.158369
    29  H    0.155143
    30  H    0.160682
    31  C   -0.298109
    32  C   -0.299735
    33  C   -0.475687
    34  H    0.149565
    35  H    0.149634
    36  H    0.151999
    37  H    0.151956
    38  H    0.154999
    39  H    0.155225
    40  H    0.160266
 Sum of Mulliken charges =  -0.00000

 Dipole moment (field-independent basis, Debye):
    X=             -0.0108    Y=             -0.0093    Z=             -0.0014  Tot=              0.0144
 Quadrupole moment (field-independent basis, Debye-Ang):
   XX=            -84.2472   YY=            -86.0043   ZZ=            -84.4342
   XY=              0.5937   XZ=              0.3601   YZ=             -0.2895

 Normal termination of Gaussian 16 at Thu May  6 07:11:06 2021.
