 Gaussian 16, Revision A.03,
 Gaussian 16:  EM64L-G16RevA.03 25-Dec-2016

 -------------
 #p 6-31g* mp2
 -------------

 ------------------------------------------------------
 Input file generated by CHIRIPA (05-May-2021 14:55:20)
 ------------------------------------------------------
 Symbolic Z-matrix:
 Charge =  0 Multiplicity = 1

                         Standard orientation:
 ---------------------------------------------------------------------
 Center     Atomic      Atomic             Coordinates (Angstroms)
 Number     Number       Type             X           Y           Z
 ---------------------------------------------------------------------
      1          6           0        2.227538    2.294167   -0.658323
      2          6           0        1.225149    1.356364   -0.389504
      3          6           0        1.556032    0.042453   -0.044972
      4          6           0        2.905463   -0.300883    0.021697
      5          6           0        3.927080    0.610634   -0.240462
      6          6           0        3.572933    1.918970   -0.583076
      7          1           0        1.961464    3.312679   -0.925219
      8          1           0        0.179467    1.644928   -0.447174
      9          1           0        0.800232   -0.703715    0.168142
     10          1           0        4.960714    0.293272   -0.174884
     11          1           0        4.353520    2.645167   -0.791319
     12          7           0        3.268069   -1.688910    0.385422
     13          8           0        4.464310   -1.966309    0.437328
     14          8           0        2.349172   -2.473165    0.611718
     15          6           0       -3.267005    0.734034   -0.126057
     16          6           0       -3.461520    1.849762    0.901221
     17          6           0       -2.704131    3.127117    0.537192
     18          1           0       -2.194960    0.512542   -0.218831
     19          1           0       -3.598991    1.090151   -1.111125
     20          1           0       -3.130554    1.491175    1.884325
     21          1           0       -4.533241    2.068492    0.991703
     22          1           0       -3.040059    3.511403   -0.431353
     23          1           0       -1.629401    2.930806    0.466341
     24          1           0       -2.857154    3.911509    1.284971
     25          6           0       -4.017991   -0.549409    0.223975
     26          6           0       -3.823476   -1.665138   -0.803303
     27          6           0       -4.580865   -2.942494   -0.439273
     28          1           0       -3.686005   -0.905527    1.209044
     29          1           0       -5.090036   -0.327917    0.316751
     30          1           0       -2.751754   -1.883868   -0.893784
     31          1           0       -4.154441   -1.306551   -1.786406
     32          1           0       -5.655595   -2.746182   -0.368422
     33          1           0       -4.244937   -3.326778    0.529272
     34          1           0       -4.427842   -3.726884   -1.187053
 ---------------------------------------------------------------------

 SCF Done:  E(RHF) =  -669.535358820     A.U. after   15 cycles
 E2 =    -0.2091712437D+01 EUMP2 =    -0.67162707125681D+03

 The electronic state is 1-A.
 Alpha  occ. eigenvalues --  -20.60756 -20.60751 -15.85808 -11.31168 -11.27737
 Alpha  occ. eigenvalues --  -11.27733 -11.27468 -11.26746 -11.26706 -11.22380
 Alpha  occ. eigenvalues --  -11.22220 -11.22068 -11.21957 -11.21872 -11.21244
 Alpha  occ. eigenvalues --   -1.59831  -1.39385  -1.19337  -1.09069  -1.08731
 Alpha  occ. eigenvalues --   -1.04742  -1.04115  -0.96586  -0.95569  -0.87600
 Alpha  occ. eigenvalues --   -0.86141  -0.82407  -0.80202  -0.78861  -0.77451
 Alpha  occ. eigenvalues --   -0.72027  -0.71154  -0.70445  -0.65746  -0.64988
 Alpha  occ. eigenvalues --   -0.64746  -0.62145  -0.61453  -0.59962  -0.58180
 Alpha  occ. eigenvalues --   -0.55902  -0.55236  -0.53247  -0.53088  -0.53035
 Alpha  occ. eigenvalues --   -0.52806  -0.50531  -0.48798  -0.48783  -0.48483
 Alpha  occ. eigenvalues --   -0.47221  -0.46393  -0.46286  -0.44792  -0.44376
 Alpha  occ. eigenvalues --   -0.37314  -0.36341
 Alpha virt. eigenvalues --    0.05084   0.11264   0.16564   0.18718   0.22681
 Alpha virt. eigenvalues --    0.23556   0.24733   0.26289   0.26629   0.28536
 Alpha virt. eigenvalues --    0.29765   0.30256   0.31151   0.31476   0.31790

 Mulliken charges:
               1
     1  C   -0.172620
     2  C   -0.228378
     3  C   -0.173614
     4  C    0.159100
     5  C   -0.171067
     6  C   -0.218487
     7  H    0.226161
     8  H    0.237057
     9  H    0.274938
    10  H    0.275536
    11  H    0.223376
    12  N    0.488063
    13  O   -0.460493
    14  O   -0.460711
    15  C   -0.300408
    16  C   -0.300650
    17  C   -0.479501
    18  H    0.140528
    19  H    0.151675
    20  H    0.155266
    21  H    0.156425
    22  H    0.156983
    23  H    0.146450
    24  H    0.165433
    25  C   -0.299220
    26  C   -0.300182
    27  C   -0.476276
    28  H    0.152370
    29  H    0.152077
    30  H    0.152105
    31  H    0.152056
    32  H    0.155092
    33  H    0.157945
    34  H    0.162974
 Sum of Mulliken charges =  -0.00000

 Dipole moment (field-independent basis, Debye):
    X=             -1.4930    Y=              4.8536    Z=             -1.2484  Tot=              5.2293
 Quadrupole moment (field-independent basis, Debye-Ang):
   XX=            -96.0549   YY=            -98.6178   ZZ=            -95.3444
   XY=             15.3434   XZ=             -3.9306   YZ=              0.3689

 Normal termination of Gaussian 16 at Wed May  5 22:12:21 2021.
