 Gaussian 16, Revision A.03,
 Gaussian 16:  EM64L-G16RevA.03 25-Dec-2016

 -------------
 #p 6-31g* mp2
 -------------

 ------------------------------------------------------
 Input file generated by CHIRIPA (05-May-2021 14:57:26)
 ------------------------------------------------------
 Symbolic Z-matrix:
 Charge =  0 Multiplicity = 1

                         Standard orientation:
 ---------------------------------------------------------------------
 Center     Atomic      Atomic             Coordinates (Angstroms)
 Number     Number       Type             X           Y           Z
 ---------------------------------------------------------------------
      1          6           0       -5.305163   -1.830636    0.185103
      2          6           0       -4.300006   -1.749833    1.154459
      3          6           0       -3.356156   -0.719257    1.114372
      4          6           0       -3.447539    0.217717    0.086258
      5          6           0       -4.437188    0.164197   -0.894059
      6          6           0       -5.370431   -0.875048   -0.834265
      7          1           0       -6.034249   -2.634580    0.223898
      8          1           0       -4.246881   -2.490559    1.947270
      9          1           0       -2.567573   -0.632890    1.852000
     10          1           0       -4.464461    0.917307   -1.672198
     11          1           0       -6.149956   -0.935305   -1.588423
     12          7           0       -2.453942    1.313331    0.033387
     13          8           0       -2.556135    2.126380   -0.882661
     14          8           0       -1.591781    1.338278    0.908998
     15          6           0        2.157331    2.021335    0.025707
     16          6           0        3.401251    2.004474    0.665161
     17          6           0        4.215200    0.869392    0.604963
     18          6           0        3.751860   -0.236153   -0.106638
     19          6           0        2.517476   -0.250076   -0.754242
     20          6           0        1.720184    0.895990   -0.680707
     21          1           0        1.531505    2.907360    0.077651
     22          1           0        3.743316    2.876983    1.214491
     23          1           0        5.182581    0.829231    1.090740
     24          1           0        2.203580   -1.135102   -1.294258
     25          1           0        0.754598    0.906242   -1.178286
     26          7           0        4.604734   -1.443628   -0.177427
     27          8           0        4.173657   -2.404727   -0.810750
     28          8           0        5.688144   -1.406083    0.401753
 ---------------------------------------------------------------------

 SCF Done:  E(RHF) =  -868.340305720     A.U. after   16 cycles
 E2 =    -0.2598650478D+01 EUMP2 =    -0.87093895619788D+03

 The electronic state is 1-A.
 Alpha  occ. eigenvalues --  -20.61839 -20.61819 -20.60097 -20.60091 -15.86836
 Alpha  occ. eigenvalues --  -15.85141 -11.31874 -11.30246 -11.28408 -11.28387
 Alpha  occ. eigenvalues --  -11.28074 -11.27338 -11.27317 -11.26813 -11.26766
 Alpha  occ. eigenvalues --  -11.26299 -11.25725 -11.25592  -1.60911  -1.59179
 Alpha  occ. eigenvalues --   -1.40461  -1.38740  -1.20017  -1.18370  -1.09475
 Alpha  occ. eigenvalues --   -1.07769  -1.05362  -1.03744  -0.96361  -0.94660
 Alpha  occ. eigenvalues --   -0.86776  -0.85122  -0.83197  -0.81522  -0.78285
 Alpha  occ. eigenvalues --   -0.76639  -0.73060  -0.72226  -0.71364  -0.71110
 Alpha  occ. eigenvalues --   -0.70501  -0.69386  -0.65665  -0.65356  -0.64001
 Alpha  occ. eigenvalues --   -0.63708  -0.62709  -0.61110  -0.55871  -0.54113
 Alpha  occ. eigenvalues --   -0.53716  -0.53444  -0.52077  -0.51819  -0.49842
 Alpha  occ. eigenvalues --   -0.49809  -0.48136  -0.48094  -0.45925  -0.44206
 Alpha  occ. eigenvalues --   -0.37979  -0.36950  -0.36248  -0.35353
 Alpha virt. eigenvalues --    0.04192   0.05897   0.10709   0.12322   0.15777
 Alpha virt. eigenvalues --    0.17494   0.20904   0.22542   0.26845   0.27727
 Alpha virt. eigenvalues --    0.28256   0.29492   0.30533   0.31974   0.32117

 Mulliken charges:
               1
     1  C   -0.169418
     2  C   -0.218421
     3  C   -0.170654
     4  C    0.156316
     5  C   -0.170961
     6  C   -0.218546
     7  H    0.228556
     8  H    0.226668
     9  H    0.277247
    10  H    0.275724
    11  H    0.225656
    12  N    0.486012
    13  O   -0.463267
    14  O   -0.462532
    15  C   -0.166057
    16  C   -0.220525
    17  C   -0.172772
    18  C    0.157187
    19  C   -0.175103
    20  C   -0.213338
    21  H    0.236610
    22  H    0.220675
    23  H    0.271773
    24  H    0.270253
    25  H    0.228178
    26  N    0.488284
    27  O   -0.464272
    28  O   -0.463274
 Sum of Mulliken charges =  -0.00000

 Dipole moment (field-independent basis, Debye):
    X=             -7.0488    Y=              0.4862    Z=              0.4928  Tot=              7.0827
 Quadrupole moment (field-independent basis, Debye-Ang):
   XX=           -101.2131   YY=           -107.6848   ZZ=           -100.7826
   XY=             31.3636   XZ=              4.6057   YZ=             -1.2075

 Normal termination of Gaussian 16 at Wed May  5 22:51:13 2021.
