 Gaussian 16, Revision A.03,
 Gaussian 16:  EM64L-G16RevA.03 25-Dec-2016

 -------------
 #p 6-31g* mp2
 -------------

 ------------------------------------------------------
 Input file generated by CHIRIPA (05-May-2021 14:53:15)
 ------------------------------------------------------
 Symbolic Z-matrix:
 Charge =  0 Multiplicity = 1

                         Standard orientation:
 ---------------------------------------------------------------------
 Center     Atomic      Atomic             Coordinates (Angstroms)
 Number     Number       Type             X           Y           Z
 ---------------------------------------------------------------------
      1          6           0        5.737511    0.519935   -0.171775
      2          6           0        7.157111   -0.014173    0.021750
      3          6           0        8.228909    0.979424   -0.427482
      4          1           0        5.587575    0.769109   -1.231197
      5          1           0        5.626763    1.458503    0.388779
      6          1           0        7.264723   -0.952175   -0.537882
      7          1           0        7.303622   -0.262284    1.080802
      8          1           0        8.150200    1.913138    0.138720
      9          1           0        8.111081    1.219328   -1.489161
     10          1           0        9.236120    0.577279   -0.280290
     11          6           0        4.654952   -0.462000    0.272745
     12          6           0        3.235353    0.072108    0.079220
     13          6           0        2.163555   -0.921488    0.528452
     14          1           0        4.765700   -1.400568   -0.287809
     15          1           0        4.804888   -0.711174    1.332168
     16          1           0        3.088842    0.320220   -0.979832
     17          1           0        3.127740    1.010110    0.638853
     18          1           0        2.281382   -1.161392    1.590131
     19          1           0        2.242263   -1.855202   -0.037750
     20          1           0        1.156344   -0.519343    0.381260
     21          6           0       -5.859906    1.744627   -0.001179
     22          6           0       -4.521550    2.104574    0.187924
     23          6           0       -3.515690    1.133789    0.168702
     24          6           0       -3.885505   -0.193483   -0.043141
     25          6           0       -5.210054   -0.583570   -0.234692
     26          6           0       -6.199288    0.404067   -0.211513
     27          1           0       -6.634825    2.505300    0.015290
     28          1           0       -4.255050    3.144897    0.351484
     29          1           0       -2.471736    1.384686    0.312326
     30          1           0       -5.444839   -1.628764   -0.395513
     31          1           0       -7.237851    0.121617   -0.358664
     32          7           0       -2.829446   -1.230129   -0.065585
     33          8           0       -3.181319   -2.392578   -0.254097
     34          8           0       -1.669831   -0.860576    0.105761
 ---------------------------------------------------------------------

 SCF Done:  E(RHF) =  -669.535882425     A.U. after   15 cycles
 E2 =    -0.2090558699D+01 EUMP2 =    -0.67162644112438D+03

 The electronic state is 1-A.
 Alpha  occ. eigenvalues --  -20.60883 -20.60875 -15.85933 -11.31267 -11.27835
 Alpha  occ. eigenvalues --  -11.27830 -11.27574 -11.26846 -11.26836 -11.21156
 Alpha  occ. eigenvalues --  -11.20840 -11.20717 -11.20700 -11.20634 -11.19643
 Alpha  occ. eigenvalues --   -1.59949  -1.39505  -1.19438  -1.08838  -1.07770
 Alpha  occ. eigenvalues --   -1.04838  -1.02786  -0.95680  -0.95199  -0.86241
 Alpha  occ. eigenvalues --   -0.86203  -0.82514  -0.78872  -0.77581  -0.77552
 Alpha  occ. eigenvalues --   -0.72159  -0.71267  -0.70548  -0.65095  -0.64841
 Alpha  occ. eigenvalues --   -0.64413  -0.62186  -0.60197  -0.58602  -0.56801
 Alpha  occ. eigenvalues --   -0.55341  -0.54506  -0.53168  -0.52931  -0.51828
 Alpha  occ. eigenvalues --   -0.51627  -0.49166  -0.48905  -0.48890  -0.47167
 Alpha  occ. eigenvalues --   -0.45941  -0.45102  -0.45038  -0.44915  -0.43002
 Alpha  occ. eigenvalues --   -0.37418  -0.36440
 Alpha virt. eigenvalues --    0.04974   0.11215   0.16471   0.21308   0.23473
 Alpha virt. eigenvalues --    0.25071   0.27235   0.27260   0.27940   0.28140
 Alpha virt. eigenvalues --    0.28950   0.30791   0.32084   0.32120   0.32396

 Mulliken charges:
               1
     1  C   -0.297427
     2  C   -0.299133
     3  C   -0.475290
     4  H    0.148483
     5  H    0.147483
     6  H    0.151851
     7  H    0.151326
     8  H    0.154092
     9  H    0.154505
    10  H    0.159052
    11  C   -0.297329
    12  C   -0.299993
    13  C   -0.481525
    14  H    0.149467
    15  H    0.148293
    16  H    0.149511
    17  H    0.146355
    18  H    0.149739
    19  H    0.155389
    20  H    0.182723
    21  C   -0.170697
    22  C   -0.218504
    23  C   -0.170515
    24  C    0.157402
    25  C   -0.170636
    26  C   -0.218563
    27  H    0.225888
    28  H    0.223750
    29  H    0.275270
    30  H    0.275860
    31  H    0.223724
    32  N    0.496389
    33  O   -0.459120
    34  O   -0.467821
 Sum of Mulliken charges =  -0.00000

 Dipole moment (field-independent basis, Debye):
    X=             -4.0302    Y=              3.6011    Z=              0.0649  Tot=              5.4051
 Quadrupole moment (field-independent basis, Debye-Ang):
   XX=            -65.6374   YY=            -94.2321   ZZ=            -94.8142
   XY=            -11.6001   XZ=              0.7516   YZ=              1.1038

 Normal termination of Gaussian 16 at Wed May  5 21:53:30 2021.
