 Gaussian 16, Revision A.03,
 Gaussian 16:  EM64L-G16RevA.03 25-Dec-2016

 -------------
 #p 6-31g* mp2
 -------------

 ------------------------------------------------------
 Input file generated by CHIRIPA (05-May-2021 14:57:26)
 ------------------------------------------------------
 Symbolic Z-matrix:
 Charge =  0 Multiplicity = 1

                         Standard orientation:
 ---------------------------------------------------------------------
 Center     Atomic      Atomic             Coordinates (Angstroms)
 Number     Number       Type             X           Y           Z
 ---------------------------------------------------------------------
      1          6           0       -5.350842    0.605362    0.683793
      2          6           0       -4.844254   -0.638122    1.075757
      3          6           0       -3.579210   -1.055237    0.651225
      4          6           0       -2.844497   -0.199822   -0.168380
      5          6           0       -3.321743    1.044945   -0.575911
      6          6           0       -4.589313    1.441453   -0.139338
      7          1           0       -6.334540    0.921383    1.018256
      8          1           0       -5.433446   -1.289513    1.714965
      9          1           0       -3.162777   -2.012737    0.939662
     10          1           0       -2.710999    1.672456   -1.213594
     11          1           0       -4.980194    2.407700   -0.445315
     12          7           0       -1.503914   -0.630495   -0.624186
     13          8           0       -0.876393    0.141554   -1.345846
     14          8           0       -1.106071   -1.731952   -0.251156
     15          6           0        3.065927    2.644605    0.285248
     16          6           0        2.603206    2.031885   -0.883933
     17          6           0        2.598353    0.638783   -1.001370
     18          6           0        3.065394   -0.114372    0.074697
     19          6           0        3.532693    0.466592    1.252576
     20          6           0        3.528378    1.861384    1.347897
     21          1           0        3.066136    3.727456    0.367886
     22          1           0        2.243478    2.637630   -1.710804
     23          1           0        2.245669    0.138403   -1.895044
     24          1           0        3.885157   -0.163739    2.059960
     25          1           0        3.888315    2.334502    2.257101
     26          7           0        3.065109   -1.590082   -0.037923
     27          8           0        3.481748   -2.231243    0.924346
     28          8           0        2.648252   -2.077638   -1.086329
 ---------------------------------------------------------------------

 SCF Done:  E(RHF) =  -868.337698065     A.U. after   16 cycles
 E2 =    -0.2600298259D+01 EUMP2 =    -0.87093799632413D+03

 The electronic state is 1-A.
 Alpha  occ. eigenvalues --  -20.60868 -20.60816 -20.59370 -20.59274 -15.85880
 Alpha  occ. eigenvalues --  -15.84384 -11.31267 -11.29846 -11.27871 -11.27802
 Alpha  occ. eigenvalues --  -11.27585 -11.26877 -11.26832 -11.26577 -11.26377
 Alpha  occ. eigenvalues --  -11.26361 -11.25631 -11.25497  -1.59900  -1.58386
 Alpha  occ. eigenvalues --   -1.39457  -1.37938  -1.19440  -1.18085  -1.08831
 Alpha  occ. eigenvalues --   -1.07483  -1.04847  -1.03505  -0.95664  -0.94284
 Alpha  occ. eigenvalues --   -0.86244  -0.84913  -0.82499  -0.81118  -0.77542
 Alpha  occ. eigenvalues --   -0.76114  -0.72106  -0.71224  -0.70622  -0.70550
 Alpha  occ. eigenvalues --   -0.69689  -0.69237  -0.65096  -0.64851  -0.63752
 Alpha  occ. eigenvalues --   -0.63547  -0.62195  -0.60843  -0.55348  -0.54091
 Alpha  occ. eigenvalues --   -0.53176  -0.52941  -0.51848  -0.51625  -0.48869
 Alpha  occ. eigenvalues --   -0.48816  -0.47396  -0.47344  -0.44858  -0.43311
 Alpha  occ. eigenvalues --   -0.37424  -0.36452  -0.36130  -0.35067
 Alpha virt. eigenvalues --    0.04983   0.06456   0.11203   0.12561   0.16479
 Alpha virt. eigenvalues --    0.17864   0.21331   0.22500   0.27236   0.28176
 Alpha virt. eigenvalues --    0.28451   0.29448   0.30889   0.31982   0.32465

 Mulliken charges:
               1
     1  C   -0.170856
     2  C   -0.218581
     3  C   -0.170613
     4  C    0.158708
     5  C   -0.171028
     6  C   -0.218556
     7  H    0.225666
     8  H    0.224454
     9  H    0.278503
    10  H    0.272327
    11  H    0.222422
    12  N    0.488617
    13  O   -0.469186
    14  O   -0.449834
    15  C   -0.172700
    16  C   -0.220417
    17  C   -0.152172
    18  C    0.155001
    19  C   -0.172462
    20  C   -0.220789
    21  H    0.219059
    22  H    0.219783
    23  H    0.284012
    24  H    0.271625
    25  H    0.217263
    26  N    0.490275
    27  O   -0.468875
    28  O   -0.451647
 Sum of Mulliken charges =  -0.00000

 Dipole moment (field-independent basis, Debye):
    X=             -5.0387    Y=              6.3899    Z=              1.7980  Tot=              8.3338
 Quadrupole moment (field-independent basis, Debye-Ang):
   XX=            -79.6156   YY=           -104.1943   ZZ=           -100.6926
   XY=             12.6782   XZ=             -1.8269   YZ=             -3.1200

 Normal termination of Gaussian 16 at Thu May  6 19:46:39 2021.
