 Gaussian 16, Revision A.03,
 Gaussian 16:  EM64L-G16RevA.03 25-Dec-2016

 -------------
 #p 6-31g* mp2
 -------------

 ------------------------------------------------------
 Input file generated by CHIRIPA (05-May-2021 14:51:11)
 ------------------------------------------------------
 Symbolic Z-matrix:
 Charge =  0 Multiplicity = 1

                         Standard orientation:
 ---------------------------------------------------------------------
 Center     Atomic      Atomic             Coordinates (Angstroms)
 Number     Number       Type             X           Y           Z
 ---------------------------------------------------------------------
      1          6           0       -2.812794   -0.336420    0.070966
      2          6           0       -2.220763   -1.115856    1.245684
      3          6           0       -0.778153   -1.556522    0.995716
      4          1           0       -2.769539   -0.959176   -0.833053
      5          1           0       -2.188055    0.545594   -0.126891
      6          1           0       -2.847211   -1.995389    1.442153
      7          1           0       -2.265607   -0.491243    2.147052
      8          1           0       -0.134775   -0.688040    0.821344
      9          1           0       -0.719684   -2.200732    0.112440
     10          1           0       -0.374636   -2.111989    1.848060
     11          6           0       -4.254466    0.110959    0.305833
     12          6           0       -4.846497    0.890395   -0.868886
     13          6           0       -6.289107    1.331061   -0.618917
     14          1           0       -4.879205   -0.771054    0.503689
     15          1           0       -4.297721    0.733716    1.209851
     16          1           0       -4.801653    0.265782   -1.770253
     17          1           0       -4.220049    1.769928   -1.065355
     18          1           0       -6.347576    1.975271    0.264358
     19          1           0       -6.932485    0.462579   -0.444546
     20          1           0       -6.692625    1.886528   -1.471261
     21          6           0        3.879925    0.760278   -0.398621
     22          6           0        3.693215    1.900505    0.602882
     23          6           0        4.391795    3.189291    0.168358
     24          1           0        4.953687    0.569996   -0.531933
     25          1           0        3.494302    1.075136   -1.378190
     26          1           0        4.077815    1.583089    1.580607
     27          1           0        2.619767    2.087968    0.733970
     28          1           0        4.002022    3.532674   -0.795367
     29          1           0        5.468355    3.024926    0.056080
     30          1           0        4.245384    3.991182    0.898697
     31          6           0        3.187335   -0.534818    0.021823
     32          6           0        3.374045   -1.675045   -0.979680
     33          6           0        2.675465   -2.963831   -0.545156
     34          1           0        3.572958   -0.849674    1.001391
     35          1           0        2.113573   -0.344535    0.155134
     36          1           0        4.447493   -1.862507   -1.110768
     37          1           0        2.989445   -1.357628   -1.957405
     38          1           0        1.598906   -2.799466   -0.432878
     39          1           0        3.065238   -3.307213    0.418569
     40          1           0        2.821876   -3.765721   -1.275495
 ---------------------------------------------------------------------

 SCF Done:  E(RHF) =  -470.732558006     A.U. after   11 cycles
 E2 =    -0.1583458582D+01 EUMP2 =    -0.47231601658780D+03

 The electronic state is 1-A.
 Alpha  occ. eigenvalues --  -11.21639 -11.21631 -11.21587 -11.21507 -11.21447
 Alpha  occ. eigenvalues --  -11.21386 -11.21340 -11.21256 -11.21124 -11.21093
 Alpha  occ. eigenvalues --  -11.21060 -11.20902  -1.08474  -1.08366  -1.03583
 Alpha  occ. eigenvalues --   -1.03455  -0.96035  -0.95905  -0.87064  -0.86920
 Alpha  occ. eigenvalues --   -0.79713  -0.79476  -0.78313  -0.78144  -0.65114
 Alpha  occ. eigenvalues --   -0.65001  -0.60986  -0.60873  -0.59393  -0.59280
 Alpha  occ. eigenvalues --   -0.57637  -0.57531  -0.55497  -0.55054  -0.52744
 Alpha  occ. eigenvalues --   -0.52608  -0.52485  -0.52321  -0.50155  -0.49656
 Alpha  occ. eigenvalues --   -0.48123  -0.47749  -0.46685  -0.46542  -0.45948
 Alpha  occ. eigenvalues --   -0.45753  -0.45684  -0.45384  -0.43813  -0.43716
 Alpha virt. eigenvalues --    0.21815   0.22985   0.23749   0.24545   0.25511
 Alpha virt. eigenvalues --    0.26256   0.27147   0.27512   0.27732   0.29349
 Alpha virt. eigenvalues --    0.30343   0.31269   0.31771   0.31923   0.32129

 Mulliken charges:
               1
     1  C   -0.298420
     2  C   -0.300221
     3  C   -0.481107
     4  H    0.149667
     5  H    0.149015
     6  H    0.152221
     7  H    0.152157
     8  H    0.159291
     9  H    0.155564
    10  H    0.162123
    11  C   -0.298283
    12  C   -0.299675
    13  C   -0.475734
    14  H    0.149719
    15  H    0.149780
    16  H    0.151972
    17  H    0.151867
    18  H    0.155240
    19  H    0.155264
    20  H    0.160336
    21  C   -0.297738
    22  C   -0.299329
    23  C   -0.475635
    24  H    0.149544
    25  H    0.149149
    26  H    0.152001
    27  H    0.150710
    28  H    0.155099
    29  H    0.155290
    30  H    0.160048
    31  C   -0.305429
    32  C   -0.298739
    33  C   -0.483026
    34  H    0.149035
    35  H    0.157380
    36  H    0.151361
    37  H    0.151094
    38  H    0.165195
    39  H    0.154304
    40  H    0.158913
 Sum of Mulliken charges =  -0.00000

 Dipole moment (field-independent basis, Debye):
    X=             -0.0550    Y=             -0.0093    Z=              0.0234  Tot=              0.0605
 Quadrupole moment (field-independent basis, Debye-Ang):
   XX=            -85.4202   YY=            -85.1617   ZZ=            -84.4187
   XY=              0.0741   XZ=              0.7238   YZ=              0.3325

 Normal termination of Gaussian 16 at Thu May  6 02:15:30 2021.
