 Gaussian 16, Revision A.03,
 Gaussian 16:  EM64L-G16RevA.03 25-Dec-2016

 -------------
 #p 6-31g* mp2
 -------------

 ------------------------------------------------------
 Input file generated by CHIRIPA (05-May-2021 14:53:17)
 ------------------------------------------------------
 Symbolic Z-matrix:
 Charge =  0 Multiplicity = 1

                         Standard orientation:
 ---------------------------------------------------------------------
 Center     Atomic      Atomic             Coordinates (Angstroms)
 Number     Number       Type             X           Y           Z
 ---------------------------------------------------------------------
      1          6           0       -4.157042   -0.350556    0.225597
      2          6           0       -5.326591   -1.180105   -0.305428
      3          6           0       -5.490705   -2.509875    0.431167
      4          1           0       -3.231433   -0.935964    0.139050
      5          1           0       -4.307881   -0.160920    1.297362
      6          1           0       -5.174283   -1.366945   -1.376180
      7          1           0       -6.249494   -0.592581   -0.217784
      8          1           0       -5.667429   -2.339971    1.498173
      9          1           0       -4.586109   -3.118734    0.333195
     10          1           0       -6.332441   -3.086764    0.035514
     11          6           0       -3.980144    0.981669   -0.500773
     12          6           0       -2.810595    1.811219    0.030253
     13          6           0       -2.646481    3.140989   -0.706342
     14          1           0       -3.829305    0.792033   -1.572538
     15          1           0       -4.905753    1.567077   -0.414226
     16          1           0       -1.887693    1.223694   -0.057392
     17          1           0       -2.962904    1.998059    1.101005
     18          1           0       -3.551077    3.749848   -0.608370
     19          1           0       -2.469757    2.971084   -1.773348
     20          1           0       -1.804746    3.717877   -0.310690
     21          6           0        0.731225   -0.261061    0.720781
     22          6           0        1.640521    0.475537    1.487021
     23          6           0        2.998851    0.490849    1.156485
     24          6           0        3.415190   -0.245124    0.048200
     25          6           0        2.533682   -0.988803   -0.734855
     26          6           0        1.179917   -0.989595   -0.385761
     27          1           0       -0.322185   -0.267317    0.984757
     28          1           0        1.294900    1.042262    2.346913
     29          1           0        3.724367    1.052462    1.732362
     30          1           0        2.908135   -1.543884   -1.586375
     31          1           0        0.476006   -1.562553   -0.982649
     32          7           0        4.850777   -0.236599   -0.311547
     33          8           0        5.192311   -0.893314   -1.292728
     34          8           0        5.607274    0.426637    0.394476
 ---------------------------------------------------------------------

 SCF Done:  E(RHF) =  -669.535465206     A.U. after   15 cycles
 E2 =    -0.2091535544D+01 EUMP2 =    -0.67162700074962D+03

 The electronic state is 1-A.
 Alpha  occ. eigenvalues --  -20.60758 -20.60753 -15.85812 -11.31182 -11.27751
 Alpha  occ. eigenvalues --  -11.27745 -11.27451 -11.26771 -11.26752 -11.22594
 Alpha  occ. eigenvalues --  -11.22420 -11.22361 -11.22260 -11.21813 -11.21775
 Alpha  occ. eigenvalues --   -1.59833  -1.39387  -1.19353  -1.09343  -1.08745
 Alpha  occ. eigenvalues --   -1.04756  -1.04365  -0.96791  -0.95581  -0.87805
 Alpha  occ. eigenvalues --   -0.86152  -0.82418  -0.80451  -0.79186  -0.77460
 Alpha  occ. eigenvalues --   -0.72029  -0.71156  -0.70472  -0.65972  -0.65003
 Alpha  occ. eigenvalues --   -0.64758  -0.62104  -0.61763  -0.60169  -0.58415
 Alpha  occ. eigenvalues --   -0.56073  -0.55276  -0.53458  -0.53214  -0.53081
 Alpha  occ. eigenvalues --   -0.52847  -0.50728  -0.48805  -0.48784  -0.48730
 Alpha  occ. eigenvalues --   -0.47480  -0.46697  -0.46626  -0.44791  -0.44636
 Alpha  occ. eigenvalues --   -0.37309  -0.36363
 Alpha virt. eigenvalues --    0.05035   0.11287   0.16408   0.19558   0.22550
 Alpha virt. eigenvalues --    0.23607   0.24864   0.26055   0.27086   0.27418
 Alpha virt. eigenvalues --    0.29932   0.30507   0.30899   0.31238   0.32239

 Mulliken charges:
               1
     1  C   -0.298608
     2  C   -0.300207
     3  C   -0.476082
     4  H    0.140381
     5  H    0.150589
     6  H    0.153237
     7  H    0.155050
     8  H    0.156173
     9  H    0.153710
    10  H    0.163324
    11  C   -0.298409
    12  C   -0.305390
    13  C   -0.475237
    14  H    0.151410
    15  H    0.153675
    16  H    0.147156
    17  H    0.150975
    18  H    0.157859
    19  H    0.157843
    20  H    0.161958
    21  C   -0.172730
    22  C   -0.220070
    23  C   -0.170857
    24  C    0.158656
    25  C   -0.170794
    26  C   -0.220209
    27  H    0.231649
    28  H    0.223944
    29  H    0.275559
    30  H    0.275516
    31  H    0.222740
    32  N    0.488056
    33  O   -0.460469
    34  O   -0.460398
 Sum of Mulliken charges =  -0.00000

 Dipole moment (field-independent basis, Debye):
    X=             -5.2467    Y=              0.0345    Z=              1.2318  Tot=              5.3895
 Quadrupole moment (field-independent basis, Debye-Ang):
   XX=           -128.5118   YY=            -93.9405   ZZ=            -91.6582
   XY=              1.1938   XZ=              4.8031   YZ=              3.1044

 Normal termination of Gaussian 16 at Wed May  5 15:44:42 2021.
