 Gaussian 16, Revision A.03,
 Gaussian 16:  EM64L-G16RevA.03 25-Dec-2016

 -------------
 #p 6-31g* mp2
 -------------

 ------------------------------------------------------
 Input file generated by CHIRIPA (05-May-2021 14:57:22)
 ------------------------------------------------------
 Symbolic Z-matrix:
 Charge =  0 Multiplicity = 1

                         Standard orientation:
 ---------------------------------------------------------------------
 Center     Atomic      Atomic             Coordinates (Angstroms)
 Number     Number       Type             X           Y           Z
 ---------------------------------------------------------------------
      1          6           0       -6.160563   -0.620700   -0.686245
      2          6           0       -5.489094   -1.464093    0.205011
      3          6           0       -4.219425   -1.125997    0.682693
      4          6           0       -3.648267    0.068440    0.246356
      5          6           0       -4.291946    0.929639   -0.640946
      6          6           0       -5.560903    0.571372   -1.105640
      7          1           0       -7.146596   -0.891176   -1.052275
      8          1           0       -5.952365   -2.390497    0.532428
      9          1           0       -3.677252   -1.760477    1.373273
     10          1           0       -3.804504    1.846550   -0.949318
     11          1           0       -6.080033    1.228296   -1.797739
     12          7           0       -2.304502    0.437044    0.745181
     13          8           0       -1.822950    1.494894    0.345560
     14          8           0       -1.758256   -0.338874    1.526336
     15          6           0        3.106600    2.394068   -0.041239
     16          6           0        2.206974    1.392251   -0.420129
     17          6           0        2.618805    0.058148   -0.491644
     18          6           0        3.943513   -0.239883   -0.176025
     19          6           0        4.863527    0.735750    0.204770
     20          6           0        4.429672    2.063205    0.269453
     21          1           0        2.778125    3.427849    0.011662
     22          1           0        1.178859    1.646279   -0.661977
     23          1           0        1.943253   -0.737282   -0.782056
     24          1           0        5.882071    0.451708    0.439943
     25          1           0        5.130524    2.839148    0.564008
     26          7           0        4.391157   -1.648718   -0.248119
     27          8           0        5.563574   -1.885268    0.034934
     28          8           0        3.561127   -2.489737   -0.586314
 ---------------------------------------------------------------------

 SCF Done:  E(RHF) =  -868.339966158     A.U. after   16 cycles
 E2 =    -0.2598340835D+01 EUMP2 =    -0.87093830699320D+03

 The electronic state is 1-A.
 Alpha  occ. eigenvalues --  -20.61585 -20.61530 -20.59929 -20.59920 -15.86581
 Alpha  occ. eigenvalues --  -15.84970 -11.31699 -11.30139 -11.28261 -11.28211
 Alpha  occ. eigenvalues --  -11.27931 -11.27207 -11.27173 -11.26718 -11.26588
 Alpha  occ. eigenvalues --  -11.26350 -11.25731 -11.25452  -1.60621  -1.59005
 Alpha  occ. eigenvalues --   -1.40180  -1.38564  -1.19848  -1.18272  -1.09289
 Alpha  occ. eigenvalues --   -1.07706  -1.05212  -1.03626  -0.96164  -0.94582
 Alpha  occ. eigenvalues --   -0.86622  -0.85036  -0.83004  -0.81408  -0.78080
 Alpha  occ. eigenvalues --   -0.76481  -0.72807  -0.71927  -0.71198  -0.70951
 Alpha  occ. eigenvalues --   -0.70321  -0.69397  -0.65504  -0.65211  -0.63919
 Alpha  occ. eigenvalues --   -0.63599  -0.62562  -0.60968  -0.55720  -0.54154
 Alpha  occ. eigenvalues --   -0.53555  -0.53300  -0.51987  -0.51703  -0.49573
 Alpha  occ. eigenvalues --   -0.49532  -0.47961  -0.47932  -0.45635  -0.44013
 Alpha  occ. eigenvalues --   -0.37813  -0.36803  -0.36253  -0.35211
 Alpha virt. eigenvalues --    0.04413   0.06018   0.10855   0.12436   0.15947
 Alpha virt. eigenvalues --    0.17572   0.21020   0.22615   0.26951   0.27845
 Alpha virt. eigenvalues --    0.28632   0.29353   0.30612   0.31992   0.32295

 Mulliken charges:
               1
     1  C   -0.169794
     2  C   -0.218445
     3  C   -0.170061
     4  C    0.157417
     5  C   -0.170944
     6  C   -0.218439
     7  H    0.227651
     8  H    0.226006
     9  H    0.277893
    10  H    0.273683
    11  H    0.224565
    12  N    0.488628
    13  O   -0.470374
    14  O   -0.454739
    15  C   -0.172244
    16  C   -0.218987
    17  C   -0.170285
    18  C    0.157776
    19  C   -0.173230
    20  C   -0.218676
    21  H    0.224245
    22  H    0.240523
    23  H    0.274578
    24  H    0.271756
    25  H    0.219256
    26  N    0.488291
    27  O   -0.463931
    28  O   -0.462120
 Sum of Mulliken charges =  -0.00000

 Dipole moment (field-independent basis, Debye):
    X=             -6.8483    Y=              3.6158    Z=             -1.4638  Tot=              7.8814
 Quadrupole moment (field-independent basis, Debye-Ang):
   XX=            -79.7001   YY=           -104.4323   ZZ=           -105.2442
   XY=             26.3354   XZ=              8.3264   YZ=             -3.6945

 Normal termination of Gaussian 16 at Thu May  6 09:42:52 2021.
