 Gaussian 16, Revision A.03,
 Gaussian 16:  EM64L-G16RevA.03 25-Dec-2016

 -------------
 #p 6-31g* mp2
 -------------

 ------------------------------------------------------
 Input file generated by CHIRIPA (05-May-2021 14:55:18)
 ------------------------------------------------------
 Symbolic Z-matrix:
 Charge =  0 Multiplicity = 1

                         Standard orientation:
 ---------------------------------------------------------------------
 Center     Atomic      Atomic             Coordinates (Angstroms)
 Number     Number       Type             X           Y           Z
 ---------------------------------------------------------------------
      1          6           0       -3.923156    1.527763    0.329643
      2          6           0       -3.705530    1.002659   -0.948413
      3          6           0       -2.797148   -0.042393   -1.141428
      4          6           0       -2.120559   -0.540628   -0.029097
      5          6           0       -2.315627   -0.038679    1.256705
      6          6           0       -3.228734    1.006337    1.426189
      7          1           0       -4.630644    2.339570    0.470442
      8          1           0       -4.243414    1.405638   -1.801838
      9          1           0       -2.609470   -0.467639   -2.119876
     10          1           0       -1.764546   -0.461122    2.088131
     11          1           0       -3.395733    1.412176    2.419895
     12          7           0       -1.156394   -1.646959   -0.220978
     13          8           0       -0.572892   -2.068399    0.775290
     14          8           0       -1.002441   -2.071712   -1.364009
     15          6           0        3.081602   -0.165266    0.405847
     16          6           0        2.874138   -1.468541   -0.366436
     17          6           0        3.206148   -2.707811    0.465293
     18          1           0        4.124378   -0.110861    0.747321
     19          1           0        2.457028   -0.179449    1.309783
     20          1           0        3.497871   -1.451313   -1.269361
     21          1           0        1.831783   -1.519760   -0.706276
     22          1           0        2.575076   -2.752505    1.358798
     23          1           0        4.250631   -2.683669    0.792514
     24          1           0        3.050837   -3.628249   -0.106136
     25          6           0        2.753827    1.082491   -0.412317
     26          6           0        2.961293    2.385766    0.359966
     27          6           0        2.629283    3.625036   -0.471763
     28          1           0        3.378402    1.096674   -1.316253
     29          1           0        1.711053    1.028086   -0.753791
     30          1           0        4.003646    2.436985    0.699805
     31          1           0        2.337559    2.368538    1.262891
     32          1           0        1.584799    3.600894   -0.798984
     33          1           0        3.260354    3.669731   -1.365268
     34          1           0        2.784593    4.545475    0.099665
 ---------------------------------------------------------------------

 SCF Done:  E(RHF) =  -669.536484971     A.U. after   15 cycles
 E2 =    -0.2092619048D+01 EUMP2 =    -0.67162910401873D+03

 The electronic state is 1-A.
 Alpha  occ. eigenvalues --  -20.61096 -20.61088 -15.86090 -11.31386 -11.27939
 Alpha  occ. eigenvalues --  -11.27933 -11.27664 -11.26930 -11.26920 -11.21225
 Alpha  occ. eigenvalues --  -11.20853 -11.20776 -11.20410 -11.20109 -11.19537
 Alpha  occ. eigenvalues --   -1.60138  -1.39691  -1.19544  -1.08955  -1.07620
 Alpha  occ. eigenvalues --   -1.04931  -1.02617  -0.95802  -0.95108  -0.86333
 Alpha  occ. eigenvalues --   -0.86140  -0.82637  -0.78784  -0.77701  -0.77327
 Alpha  occ. eigenvalues --   -0.72306  -0.71473  -0.70649  -0.65198  -0.64933
 Alpha  occ. eigenvalues --   -0.64247  -0.62277  -0.59994  -0.58571  -0.56682
 Alpha  occ. eigenvalues --   -0.55436  -0.54408  -0.53262  -0.53020  -0.51816
 Alpha  occ. eigenvalues --   -0.51536  -0.49128  -0.49089  -0.49023  -0.47058
 Alpha  occ. eigenvalues --   -0.45832  -0.45116  -0.44867  -0.44680  -0.42902
 Alpha  occ. eigenvalues --   -0.37515  -0.36529
 Alpha virt. eigenvalues --    0.04771   0.11126   0.16268   0.21247   0.23480
 Alpha virt. eigenvalues --    0.25317   0.27120   0.27287   0.28168   0.28293
 Alpha virt. eigenvalues --    0.28811   0.30883   0.32200   0.32436   0.32453

 Mulliken charges:
               1
     1  C   -0.170274
     2  C   -0.218632
     3  C   -0.170792
     4  C    0.159652
     5  C   -0.170899
     6  C   -0.218580
     7  H    0.226483
     8  H    0.224297
     9  H    0.276284
    10  H    0.275817
    11  H    0.224245
    12  N    0.486660
    13  O   -0.459164
    14  O   -0.458489
    15  C   -0.299120
    16  C   -0.302994
    17  C   -0.473451
    18  H    0.145380
    19  H    0.149522
    20  H    0.144511
    21  H    0.170078
    22  H    0.163564
    23  H    0.144467
    24  H    0.161375
    25  C   -0.296250
    26  C   -0.298289
    27  C   -0.474921
    28  H    0.149032
    29  H    0.144691
    30  H    0.151813
    31  H    0.148575
    32  H    0.152354
    33  H    0.155401
    34  H    0.157656
 Sum of Mulliken charges =  -0.00000

 Dipole moment (field-independent basis, Debye):
    X=             -3.7092    Y=              3.7420    Z=              0.6730  Tot=              5.3116
 Quadrupole moment (field-independent basis, Debye-Ang):
   XX=            -80.6847   YY=           -100.8796   ZZ=            -90.1156
   XY=             -6.5577   XZ=             -0.6793   YZ=              0.0169

 Normal termination of Gaussian 16 at Thu May  6 07:39:09 2021.
