 Gaussian 16, Revision A.03,
 Gaussian 16:  EM64L-G16RevA.03 25-Dec-2016

 -------------
 #p 6-31g* mp2
 -------------

 ------------------------------------------------------
 Input file generated by CHIRIPA (05-May-2021 14:57:21)
 ------------------------------------------------------
 Symbolic Z-matrix:
 Charge =  0 Multiplicity = 1

                         Standard orientation:
 ---------------------------------------------------------------------
 Center     Atomic      Atomic             Coordinates (Angstroms)
 Number     Number       Type             X           Y           Z
 ---------------------------------------------------------------------
      1          6           0        2.877279    1.839617   -0.813475
      2          6           0        2.357014    0.565454   -0.563769
      3          6           0        3.194869   -0.475580   -0.152923
      4          6           0        4.554132   -0.206016   -0.001172
      5          6           0        5.102543    1.052727   -0.242215
      6          6           0        4.245970    2.078766   -0.652185
      7          1           0        2.219142    2.642493   -1.132289
      8          1           0        1.294477    0.376834   -0.688201
      9          1           0        2.818620   -1.471470    0.047225
     10          1           0        6.166017    1.210254   -0.109456
     11          1           0        4.652794    3.067305   -0.845393
     12          7           0        5.451040   -1.300175    0.433309
     13          8           0        6.644934   -1.036939    0.559641
     14          8           0        4.943159   -2.400294    0.639295
     15          6           0       -2.569168    1.687097    0.552930
     16          6           0       -2.288572    0.522458   -0.169153
     17          6           0       -3.298673   -0.405079   -0.441032
     18          6           0       -4.583920   -0.134934    0.026361
     19          6           0       -4.894920    1.016265    0.748379
     20          6           0       -3.869155    1.929855    1.008587
     21          1           0       -1.778414    2.402212    0.759599
     22          1           0       -1.279906    0.331312   -0.524263
     23          1           0       -3.109182   -1.314785   -0.997759
     24          1           0       -5.910117    1.179248    1.089302
     25          1           0       -4.089978    2.833482    1.569605
     26          7           0       -5.661560   -1.109493   -0.255288
     27          8           0       -6.785665   -0.848227    0.167518
     28          8           0       -5.361704   -2.116164   -0.893518
 ---------------------------------------------------------------------

 SCF Done:  E(RHF) =  -868.336249208     A.U. after   16 cycles
 E2 =    -0.2599520513D+01 EUMP2 =    -0.87093576972106D+03

 The electronic state is 1-A.
 Alpha  occ. eigenvalues --  -20.61260 -20.61255 -20.61213 -20.61207 -15.86322
 Alpha  occ. eigenvalues --  -15.86274 -11.31836 -11.31778 -11.28474 -11.28417
 Alpha  occ. eigenvalues --  -11.28409 -11.28350 -11.28270 -11.28210 -11.27626
 Alpha  occ. eigenvalues --  -11.27566 -11.27450 -11.27388  -1.60333  -1.60286
 Alpha  occ. eigenvalues --   -1.39882  -1.39835  -1.20045  -1.19986  -1.09423
 Alpha  occ. eigenvalues --   -1.09365  -1.05484  -1.05420  -0.96222  -0.96167
 Alpha  occ. eigenvalues --   -0.86905  -0.86805  -0.83064  -0.82999  -0.78091
 Alpha  occ. eigenvalues --   -0.78000  -0.72537  -0.72490  -0.71659  -0.71611
 Alpha  occ. eigenvalues --   -0.71168  -0.71109  -0.65724  -0.65700  -0.65644
 Alpha  occ. eigenvalues --   -0.65309  -0.62919  -0.62677  -0.56022  -0.55932
 Alpha  occ. eigenvalues --   -0.53791  -0.53738  -0.53724  -0.53396  -0.49313
 Alpha  occ. eigenvalues --   -0.49281  -0.49258  -0.49234  -0.45254  -0.45209
 Alpha  occ. eigenvalues --   -0.38046  -0.37983  -0.37080  -0.37017
 Alpha virt. eigenvalues --    0.04487   0.04542   0.10549   0.10637   0.15925
 Alpha virt. eigenvalues --    0.15987   0.17375   0.21924   0.24155   0.27175
 Alpha virt. eigenvalues --    0.27793   0.28650   0.29199   0.31530   0.31578

 Mulliken charges:
               1
     1  C   -0.172807
     2  C   -0.222518
     3  C   -0.171417
     4  C    0.159300
     5  C   -0.169680
     6  C   -0.218228
     7  H    0.223729
     8  H    0.219746
     9  H    0.277743
    10  H    0.277967
    11  H    0.225450
    12  N    0.487990
    13  O   -0.458602
    14  O   -0.458680
    15  C   -0.171883
    16  C   -0.222008
    17  C   -0.171205
    18  C    0.159403
    19  C   -0.169682
    20  C   -0.218203
    21  H    0.223036
    22  H    0.219236
    23  H    0.277646
    24  H    0.277873
    25  H    0.225389
    26  N    0.487967
    27  O   -0.458645
    28  O   -0.458915
 Sum of Mulliken charges =  -0.00000

 Dipole moment (field-independent basis, Debye):
    X=              0.6467    Y=              7.2702    Z=             -0.4765  Tot=              7.3144
 Quadrupole moment (field-independent basis, Debye-Ang):
   XX=           -161.6198   YY=           -104.3306   ZZ=           -105.0945
   XY=              2.6095   XZ=            -13.5839   YZ=              1.8482

 Normal termination of Gaussian 16 at Thu May  6 21:04:36 2021.
