 Gaussian 16, Revision A.03,
 Gaussian 16:  EM64L-G16RevA.03 25-Dec-2016

 -------------
 #p 6-31g* mp2
 -------------

 ------------------------------------------------------
 Input file generated by CHIRIPA (05-May-2021 14:53:18)
 ------------------------------------------------------
 Symbolic Z-matrix:
 Charge =  0 Multiplicity = 1

                         Standard orientation:
 ---------------------------------------------------------------------
 Center     Atomic      Atomic             Coordinates (Angstroms)
 Number     Number       Type             X           Y           Z
 ---------------------------------------------------------------------
      1          6           0       -3.599880    0.682276   -0.207504
      2          6           0       -4.927101    1.398867    0.043430
      3          6           0       -4.948823    2.818617   -0.523697
      4          1           0       -2.784099    1.268709    0.236953
      5          1           0       -3.407812    0.649120   -1.288895
      6          1           0       -5.117282    1.429440    1.123944
      7          1           0       -5.739838    0.810563   -0.401511
      8          1           0       -4.784113    2.803705   -1.605940
      9          1           0       -4.158019    3.426098   -0.071817
     10          1           0       -5.906769    3.312450   -0.333096
     11          6           0       -3.562754   -0.738117    0.353596
     12          6           0       -2.235533   -1.454707    0.102662
     13          6           0       -2.213810   -2.874457    0.669789
     14          1           0       -3.754821   -0.704961    1.434987
     15          1           0       -4.378535   -1.324549   -0.090861
     16          1           0       -1.422795   -0.866403    0.547603
     17          1           0       -2.045352   -1.485280   -0.977853
     18          1           0       -3.004615   -3.481939    0.217908
     19          1           0       -2.378521   -2.859546    1.752032
     20          1           0       -1.255865   -3.368291    0.479188
     21          6           0        4.165382    2.042198    0.586337
     22          6           0        4.147438    1.603058   -0.741577
     23          6           0        3.393321    0.484795   -1.109467
     24          6           0        2.665701   -0.173510   -0.119270
     25          6           0        2.663261    0.239603    1.212129
     26          6           0        3.424542    1.360272    1.557240
     27          1           0        4.753980    2.911826    0.863275
     28          1           0        4.721814    2.130698   -1.497708
     29          1           0        3.361503    0.123286   -2.130113
     30          1           0        2.080465   -0.306952    1.943596
     31          1           0        3.436598    1.699056    2.589289
     32          7           0        1.863559   -1.358639   -0.496680
     33          8           0        1.231162   -1.921235    0.394498
     34          8           0        1.882426   -1.702506   -1.676526
 ---------------------------------------------------------------------

 SCF Done:  E(RHF) =  -669.536135622     A.U. after   15 cycles
 E2 =    -0.2091971809D+01 EUMP2 =    -0.67162810743077D+03

 The electronic state is 1-A.
 Alpha  occ. eigenvalues --  -20.61021 -20.60995 -15.86016 -11.31322 -11.27882
 Alpha  occ. eigenvalues --  -11.27876 -11.27614 -11.26884 -11.26874 -11.21140
 Alpha  occ. eigenvalues --  -11.20758 -11.20747 -11.20457 -11.20221 -11.19453
 Alpha  occ. eigenvalues --   -1.60055  -1.39615  -1.19486  -1.08896  -1.07620
 Alpha  occ. eigenvalues --   -1.04880  -1.02601  -0.95747  -0.95061  -0.86282
 Alpha  occ. eigenvalues --   -0.86099  -0.82579  -0.78744  -0.77639  -0.77356
 Alpha  occ. eigenvalues --   -0.72258  -0.71357  -0.70596  -0.65146  -0.64884
 Alpha  occ. eigenvalues --   -0.64269  -0.62228  -0.60018  -0.58499  -0.56610
 Alpha  occ. eigenvalues --   -0.55382  -0.54400  -0.53210  -0.52972  -0.51725
 Alpha  occ. eigenvalues --   -0.51506  -0.49085  -0.49006  -0.48952  -0.47023
 Alpha  occ. eigenvalues --   -0.45859  -0.45259  -0.44865  -0.44527  -0.42847
 Alpha  occ. eigenvalues --   -0.37462  -0.36480
 Alpha virt. eigenvalues --    0.04874   0.11169   0.16351   0.21277   0.23560
 Alpha virt. eigenvalues --    0.25283   0.27121   0.27407   0.27948   0.28443
 Alpha virt. eigenvalues --    0.29004   0.30790   0.31956   0.32348   0.32747

 Mulliken charges:
               1
     1  C   -0.296848
     2  C   -0.298683
     3  C   -0.475019
     4  H    0.145293
     5  H    0.149307
     6  H    0.150301
     7  H    0.151852
     8  H    0.154772
     9  H    0.152762
    10  H    0.158542
    11  C   -0.298139
    12  C   -0.295872
    13  C   -0.480161
    14  H    0.145395
    15  H    0.147350
    16  H    0.151953
    17  H    0.153183
    18  H    0.146507
    19  H    0.145893
    20  H    0.184495
    21  C   -0.170505
    22  C   -0.218540
    23  C   -0.170467
    24  C    0.158180
    25  C   -0.171214
    26  C   -0.218503
    27  H    0.226125
    28  H    0.223960
    29  H    0.275939
    30  H    0.275779
    31  H    0.223915
    32  N    0.490010
    33  O   -0.459035
    34  O   -0.458527
 Sum of Mulliken charges =  -0.00000

 Dipole moment (field-independent basis, Debye):
    X=              3.1996    Y=              4.0680    Z=              1.2666  Tot=              5.3283
 Quadrupole moment (field-independent basis, Debye-Ang):
   XX=            -80.8958   YY=            -97.8186   ZZ=            -90.0220
   XY=             11.4361   XZ=              2.0557   YZ=             -0.4084

 Normal termination of Gaussian 16 at Thu May  6 09:11:51 2021.
