 Gaussian 16, Revision A.03,
 Gaussian 16:  EM64L-G16RevA.03 25-Dec-2016

 -------------
 #p 6-31g* mp2
 -------------

 ------------------------------------------------------
 Input file generated by CHIRIPA (05-May-2021 14:51:08)
 ------------------------------------------------------
 Symbolic Z-matrix:
 Charge =  0 Multiplicity = 1

                         Standard orientation:
 ---------------------------------------------------------------------
 Center     Atomic      Atomic             Coordinates (Angstroms)
 Number     Number       Type             X           Y           Z
 ---------------------------------------------------------------------
      1          6           0        2.529257    1.208815    0.154158
      2          6           0        1.297301    1.930907   -0.392518
      3          6           0        0.884028    3.127125    0.465422
      4          1           0        2.324406    0.872865    1.179886
      5          1           0        3.363987    1.920430    0.219157
      6          1           0        0.465527    1.217809   -0.457769
      7          1           0        1.505042    2.265010   -1.417133
      8          1           0        1.695465    3.859982    0.521031
      9          1           0        0.650044    2.806831    1.485846
     10          1           0        0.001369    3.628642    0.056456
     11          6           0        2.954686    0.010672   -0.692713
     12          6           0        4.186641   -0.711420   -0.146038
     13          6           0        4.599915   -1.907638   -1.003978
     14          1           0        2.119956   -0.700943   -0.757713
     15          1           0        3.159537    0.346622   -1.718441
     16          1           0        3.978901   -1.045523    0.878577
     17          1           0        5.018416    0.001678   -0.080787
     18          1           0        4.833899   -1.587344   -2.024401
     19          1           0        3.788478   -2.640495   -1.059587
     20          1           0        5.482574   -2.409155   -0.595011
     21          6           0       -2.248701   -0.516740    0.845009
     22          6           0       -0.982847   -1.362324    0.701524
     23          6           0       -0.005784   -1.165353    1.860983
     24          1           0       -1.968107    0.543198    0.913894
     25          1           0       -2.745564   -0.770698    1.791596
     26          1           0       -0.489256   -1.107836   -0.245165
     27          1           0       -1.266498   -2.420355    0.632780
     28          1           0       -0.475837   -1.437978    2.811419
     29          1           0        0.305821   -0.118000    1.928485
     30          1           0        0.891990   -1.779169    1.738129
     31          6           0       -3.235242   -0.702747   -0.306453
     32          6           0       -4.501096    0.142837   -0.162969
     33          6           0       -5.478159   -0.054134   -1.322427
     34          1           0       -2.738380   -0.448789   -1.253040
     35          1           0       -3.515836   -1.762685   -0.375338
     36          1           0       -4.217444    1.200869   -0.094224
     37          1           0       -4.994687   -0.111650    0.783721
     38          1           0       -5.789764   -1.101486   -1.389928
     39          1           0       -5.008106    0.218491   -2.272862
     40          1           0       -6.375932    0.559683   -1.199574
 ---------------------------------------------------------------------

 SCF Done:  E(RHF) =  -470.732223300     A.U. after   11 cycles
 E2 =    -0.1585450833D+01 EUMP2 =    -0.47231767413275D+03

 The electronic state is 1-A.
 Alpha  occ. eigenvalues --  -11.21681 -11.21626 -11.21613 -11.21589 -11.21455
 Alpha  occ. eigenvalues --  -11.21393 -11.21369 -11.21303 -11.21144 -11.21135
 Alpha  occ. eigenvalues --  -11.21087 -11.21066  -1.08534  -1.08386  -1.03627
 Alpha  occ. eigenvalues --   -1.03510  -0.96073  -0.95957  -0.87070  -0.86998
 Alpha  occ. eigenvalues --   -0.79690  -0.79584  -0.78347  -0.78184  -0.65582
 Alpha  occ. eigenvalues --   -0.64741  -0.61293  -0.60601  -0.59402  -0.59355
 Alpha  occ. eigenvalues --   -0.57663  -0.57585  -0.55514  -0.55075  -0.52737
 Alpha  occ. eigenvalues --   -0.52683  -0.52469  -0.52412  -0.50107  -0.49836
 Alpha  occ. eigenvalues --   -0.48055  -0.47841  -0.46910  -0.46566  -0.45993
 Alpha  occ. eigenvalues --   -0.45858  -0.45611  -0.45354  -0.43835  -0.43781
 Alpha virt. eigenvalues --    0.19243   0.22329   0.23436   0.24540   0.25890
 Alpha virt. eigenvalues --    0.26020   0.26734   0.28488   0.28564   0.29522
 Alpha virt. eigenvalues --    0.30099   0.31486   0.31719   0.32031   0.32456

 Mulliken charges:
               1
     1  C   -0.300891
     2  C   -0.307544
     3  C   -0.476660
     4  H    0.153806
     5  H    0.149538
     6  H    0.158121
     7  H    0.152491
     8  H    0.155973
     9  H    0.155082
    10  H    0.160012
    11  C   -0.302718
    12  C   -0.300413
    13  C   -0.475727
    14  H    0.154165
    15  H    0.149362
    16  H    0.152584
    17  H    0.152011
    18  H    0.155172
    19  H    0.154985
    20  H    0.160248
    21  C   -0.300984
    22  C   -0.305320
    23  C   -0.481232
    24  H    0.151864
    25  H    0.150061
    26  H    0.155262
    27  H    0.153124
    28  H    0.155876
    29  H    0.160612
    30  H    0.160504
    31  C   -0.298421
    32  C   -0.299723
    33  C   -0.475773
    34  H    0.149658
    35  H    0.149831
    36  H    0.152185
    37  H    0.151987
    38  H    0.155198
    39  H    0.155321
    40  H    0.160371
 Sum of Mulliken charges =  -0.00000

 Dipole moment (field-independent basis, Debye):
    X=             -0.0188    Y=             -0.0070    Z=              0.0127  Tot=              0.0238
 Quadrupole moment (field-independent basis, Debye-Ang):
   XX=            -85.0352   YY=            -84.6653   ZZ=            -85.0608
   XY=              1.0684   XZ=             -0.9397   YZ=             -1.2170

 Normal termination of Gaussian 16 at Wed May  5 22:55:51 2021.
