 Gaussian 16, Revision A.03,
 Gaussian 16:  EM64L-G16RevA.03 25-Dec-2016

 -------------
 #p 6-31g* mp2
 -------------

 ------------------------------------------------------
 Input file generated by CHIRIPA (05-May-2021 14:55:21)
 ------------------------------------------------------
 Symbolic Z-matrix:
 Charge =  0 Multiplicity = 1

                         Standard orientation:
 ---------------------------------------------------------------------
 Center     Atomic      Atomic             Coordinates (Angstroms)
 Number     Number       Type             X           Y           Z
 ---------------------------------------------------------------------
      1          6           0        0.472805   -1.368523    1.131783
      2          6           0        1.589419   -1.089465    1.926654
      3          6           0        2.754201   -0.567227    1.356479
      4          6           0        2.767693   -0.335227   -0.018033
      5          6           0        1.671478   -0.602884   -0.836545
      6          6           0        0.517319   -1.124772   -0.244853
      7          1           0       -0.427899   -1.774074    1.583065
      8          1           0        1.557703   -1.277762    2.996038
      9          1           0        3.633025   -0.342034    1.948404
     10          1           0        1.733168   -0.404601   -1.899699
     11          1           0       -0.348351   -1.340532   -0.864617
     12          7           0        3.995172    0.217458   -0.633041
     13          8           0        3.981668    0.412918   -1.846404
     14          8           0        4.947532    0.444726    0.109924
     15          6           0       -3.786127    0.002908    0.084107
     16          6           0       -3.743023   -1.214916   -0.839491
     17          6           0       -4.753891   -2.292097   -0.445005
     18          1           0       -3.595070   -0.320814    1.116409
     19          1           0       -4.799435    0.427712    0.072217
     20          1           0       -2.729737   -1.636472   -0.826931
     21          1           0       -3.934014   -0.888229   -1.869741
     22          1           0       -5.773150   -1.893633   -0.475676
     23          1           0       -4.562031   -2.646128    0.573058
     24          1           0       -4.705984   -3.153528   -1.118430
     25          6           0       -2.781271    1.088462   -0.297426
     26          6           0       -2.824375    2.306285    0.626171
     27          6           0       -1.813506    3.383466    0.231686
     28          1           0       -1.767963    0.663657   -0.285537
     29          1           0       -2.972326    1.412183   -1.329728
     30          1           0       -2.633384    1.979598    1.656421
     31          1           0       -3.837661    2.727841    0.613613
     32          1           0       -2.005367    3.737498   -0.786376
     33          1           0       -0.794249    2.985003    0.262357
     34          1           0       -1.861414    4.244898    0.905111
 ---------------------------------------------------------------------

 SCF Done:  E(RHF) =  -669.534819164     A.U. after   15 cycles
 E2 =    -0.2093242672D+01 EUMP2 =    -0.67162806183588D+03

 The electronic state is 1-A.
 Alpha  occ. eigenvalues --  -20.60799 -20.60793 -15.85852 -11.31246 -11.27815
 Alpha  occ. eigenvalues --  -11.27808 -11.27567 -11.26834 -11.26796 -11.22689
 Alpha  occ. eigenvalues --  -11.22246 -11.22111 -11.21992 -11.21959 -11.21390
 Alpha  occ. eigenvalues --   -1.59873  -1.39426  -1.19425  -1.09217  -1.08810
 Alpha  occ. eigenvalues --   -1.04830  -1.04243  -0.96659  -0.95642  -0.87676
 Alpha  occ. eigenvalues --   -0.86235  -0.82473  -0.80349  -0.79019  -0.77507
 Alpha  occ. eigenvalues --   -0.72071  -0.71197  -0.70527  -0.65985  -0.65067
 Alpha  occ. eigenvalues --   -0.64745  -0.62181  -0.61638  -0.60048  -0.58274
 Alpha  occ. eigenvalues --   -0.55950  -0.55329  -0.53367  -0.53226  -0.53016
 Alpha  occ. eigenvalues --   -0.52925  -0.50613  -0.48848  -0.48823  -0.48632
 Alpha  occ. eigenvalues --   -0.47405  -0.46514  -0.46417  -0.44825  -0.44494
 Alpha  occ. eigenvalues --   -0.37381  -0.36393
 Alpha virt. eigenvalues --    0.05016   0.11083   0.16470   0.19064   0.22813
 Alpha virt. eigenvalues --    0.23730   0.25000   0.25849   0.27238   0.28347
 Alpha virt. eigenvalues --    0.29518   0.30160   0.31080   0.31414   0.31780

 Mulliken charges:
               1
     1  C   -0.173532
     2  C   -0.218483
     3  C   -0.170832
     4  C    0.158812
     5  C   -0.173470
     6  C   -0.222916
     7  H    0.226137
     8  H    0.223743
     9  H    0.275926
    10  H    0.276841
    11  H    0.233529
    12  N    0.487954
    13  O   -0.459979
    14  O   -0.460258
    15  C   -0.298425
    16  C   -0.303854
    17  C   -0.475208
    18  H    0.145543
    19  H    0.154122
    20  H    0.141277
    21  H    0.156770
    22  H    0.159637
    23  H    0.153534
    24  H    0.162503
    25  C   -0.306887
    26  C   -0.298695
    27  C   -0.476979
    28  H    0.152161
    29  H    0.151143
    30  H    0.150203
    31  H    0.153101
    32  H    0.156420
    33  H    0.158231
    34  H    0.161931
 Sum of Mulliken charges =  -0.00000

 Dipole moment (field-independent basis, Debye):
    X=             -4.3960    Y=             -1.8807    Z=              2.1466  Tot=              5.2411
 Quadrupole moment (field-independent basis, Debye-Ang):
   XX=           -117.6345   YY=            -94.6346   ZZ=            -90.5380
   XY=             -4.8359   XZ=              9.1066   YZ=             -0.7730

 Normal termination of Gaussian 16 at Thu May  6 06:11:42 2021.
