 Gaussian 16, Revision A.03,
 Gaussian 16:  EM64L-G16RevA.03 25-Dec-2016

 -------------
 #p 6-31g* mp2
 -------------

 ------------------------------------------------------
 Input file generated by CHIRIPA (05-May-2021 14:55:25)
 ------------------------------------------------------
 Symbolic Z-matrix:
 Charge =  0 Multiplicity = 1

                         Standard orientation:
 ---------------------------------------------------------------------
 Center     Atomic      Atomic             Coordinates (Angstroms)
 Number     Number       Type             X           Y           Z
 ---------------------------------------------------------------------
      1          6           0       -3.253955   -2.347726   -0.515106
      2          6           0       -2.225958   -1.749642    0.221127
      3          6           0       -2.232821   -0.372296    0.460750
      4          6           0       -3.287869    0.380199   -0.052976
      5          6           0       -4.326517   -0.186411   -0.790168
      6          6           0       -4.299111   -1.565580   -1.017518
      7          1           0       -3.240644   -3.418390   -0.696484
      8          1           0       -1.413006   -2.354590    0.612524
      9          1           0       -1.449712    0.116553    1.027483
     10          1           0       -5.123525    0.442726   -1.167506
     11          1           0       -5.098802   -2.027352   -1.589625
     12          7           0       -3.306009    1.839299    0.194206
     13          8           0       -4.246806    2.480217   -0.269217
     14          8           0       -2.379085    2.314395    0.846689
     15          6           0        3.751157   -0.762487    0.312676
     16          6           0        2.379368   -0.321308    0.824086
     17          6           0        1.483553   -1.500178    1.205627
     18          1           0        3.617062   -1.419617   -0.557465
     19          1           0        4.246620   -1.365377    1.086261
     20          1           0        1.887213    0.281729    0.050299
     21          1           0        2.516752    0.335003    1.692992
     22          1           0        1.950132   -2.099078    1.994438
     23          1           0        1.317017   -2.152655    0.342411
     24          1           0        0.507941   -1.162056    1.568550
     25          6           0        4.658134    0.404799   -0.072767
     26          6           0        6.029922   -0.036381   -0.584177
     27          6           0        6.925738    1.142490   -0.965716
     28          1           0        4.162670    1.007689   -0.846352
     29          1           0        4.792230    1.061928    0.797374
     30          1           0        5.892539   -0.692690   -1.453084
     31          1           0        6.522078   -0.639416    0.189610
     32          1           0        7.092274    1.794967   -0.102501
     33          1           0        6.459158    1.741391   -1.754528
     34          1           0        7.901349    0.804367   -1.328641
 ---------------------------------------------------------------------

 SCF Done:  E(RHF) =  -669.534803138     A.U. after   15 cycles
 E2 =    -0.2091863677D+01 EUMP2 =    -0.67162666681491D+03

 The electronic state is 1-A.
 Alpha  occ. eigenvalues --  -20.60724 -20.60718 -15.85774 -11.31121 -11.27685
 Alpha  occ. eigenvalues --  -11.27658 -11.27411 -11.26705 -11.26619 -11.22111
 Alpha  occ. eigenvalues --  -11.22024 -11.21764 -11.21754 -11.21569 -11.21158
 Alpha  occ. eigenvalues --   -1.59798  -1.39352  -1.19285  -1.08766  -1.08683
 Alpha  occ. eigenvalues --   -1.04696  -1.03927  -0.96425  -0.95525  -0.87456
 Alpha  occ. eigenvalues --   -0.86082  -0.82362  -0.79997  -0.78528  -0.77411
 Alpha  occ. eigenvalues --   -0.71994  -0.71121  -0.70413  -0.65391  -0.64945
 Alpha  occ. eigenvalues --   -0.64691  -0.62214  -0.61292  -0.59729  -0.57987
 Alpha  occ. eigenvalues --   -0.55701  -0.55184  -0.53174  -0.53009  -0.52896
 Alpha  occ. eigenvalues --   -0.52665  -0.50322  -0.48751  -0.48747  -0.48304
 Alpha  occ. eigenvalues --   -0.46986  -0.46085  -0.45976  -0.44762  -0.44173
 Alpha  occ. eigenvalues --   -0.37268  -0.36280
 Alpha virt. eigenvalues --    0.05113   0.11353   0.16593   0.20372   0.22724
 Alpha virt. eigenvalues --    0.23823   0.26116   0.26328   0.26639   0.27896
 Alpha virt. eigenvalues --    0.29206   0.29770   0.31076   0.31457   0.32206

 Mulliken charges:
               1
     1  C   -0.171596
     2  C   -0.221741
     3  C   -0.178170
     4  C    0.160043
     5  C   -0.171238
     6  C   -0.218551
     7  H    0.225348
     8  H    0.230055
     9  H    0.278793
    10  H    0.275232
    11  H    0.223076
    12  N    0.488605
    13  O   -0.460658
    14  O   -0.460905
    15  C   -0.299314
    16  C   -0.300804
    17  C   -0.482473
    18  H    0.149186
    19  H    0.149874
    20  H    0.156918
    21  H    0.157395
    22  H    0.160077
    23  H    0.153642
    24  H    0.152362
    25  C   -0.299137
    26  C   -0.299956
    27  C   -0.476004
    28  H    0.151926
    29  H    0.151735
    30  H    0.151548
    31  H    0.151766
    32  H    0.156175
    33  H    0.156277
    34  H    0.160513
 Sum of Mulliken charges =  -0.00000

 Dipole moment (field-independent basis, Debye):
    X=              0.2715    Y=             -5.0961    Z=             -0.8807  Tot=              5.1787
 Quadrupole moment (field-independent basis, Debye-Ang):
   XX=            -91.6986   YY=            -99.8946   ZZ=            -93.1963
   XY=             16.3271   XZ=              6.1289   YZ=              0.0358

 Normal termination of Gaussian 16 at Thu May  6 08:00:38 2021.
