 Gaussian 16, Revision A.03,
 Gaussian 16:  EM64L-G16RevA.03 25-Dec-2016

 -------------
 #p 6-31g* mp2
 -------------

 ------------------------------------------------------
 Input file generated by CHIRIPA (05-May-2021 14:53:11)
 ------------------------------------------------------
 Symbolic Z-matrix:
 Charge =  0 Multiplicity = 1

                         Standard orientation:
 ---------------------------------------------------------------------
 Center     Atomic      Atomic             Coordinates (Angstroms)
 Number     Number       Type             X           Y           Z
 ---------------------------------------------------------------------
      1          6           0       -2.307527    1.391439   -0.469620
      2          6           0       -0.934356    1.618441   -1.102752
      3          6           0       -0.644235    3.095370   -1.371649
      4          1           0       -3.081807    1.804238   -1.130704
      5          1           0       -2.367239    1.955099    0.471717
      6          1           0       -0.876751    1.053415   -2.041923
      7          1           0       -0.163268    1.204883   -0.440175
      8          1           0       -0.674412    3.669717   -0.440083
      9          1           0       -1.391949    3.517388   -2.050932
     10          1           0        0.342432    3.234752   -1.824330
     11          6           0       -2.612126   -0.080095   -0.194785
     12          6           0       -3.985297   -0.307098    0.438347
     13          6           0       -4.275418   -1.784026    0.707244
     14          1           0       -2.552414   -0.643755   -1.136122
     15          1           0       -1.837846   -0.492894    0.466299
     16          1           0       -4.756385    0.106460   -0.224231
     17          1           0       -4.042902    0.257929    1.377518
     18          1           0       -3.527704   -2.206044    1.386527
     19          1           0       -4.245241   -2.358374   -0.224323
     20          1           0       -5.262085   -1.923408    1.159925
     21          6           0        2.229385    1.577690    1.639191
     22          6           0        2.974773    1.394861    0.469792
     23          6           0        2.812543    0.240793   -0.302450
     24          6           0        1.891997   -0.714291    0.126154
     25          6           0        1.134598   -0.561073    1.286395
     26          6           0        1.313292    0.600861    2.043047
     27          1           0        2.361804    2.477253    2.233032
     28          1           0        3.686946    2.151799    0.153726
     29          1           0        3.376581    0.073717   -1.212046
     30          1           0        0.432288   -1.333319    1.575902
     31          1           0        0.733049    0.740173    2.950768
     32          7           0        1.711537   -1.940215   -0.683133
     33          8           0        0.894102   -2.766708   -0.283952
     34          8           0        2.390944   -2.051388   -1.701310
 ---------------------------------------------------------------------

 SCF Done:  E(RHF) =  -669.533983155     A.U. after   15 cycles
 E2 =    -0.2095899306D+01 EUMP2 =    -0.67162988246026D+03

 The electronic state is 1-A.
 Alpha  occ. eigenvalues --  -20.60827 -20.60818 -15.85877 -11.31276 -11.27889
 Alpha  occ. eigenvalues --  -11.27858 -11.27652 -11.26930 -11.26911 -11.21550
 Alpha  occ. eigenvalues --  -11.21412 -11.21353 -11.21275 -11.21168 -11.20913
 Alpha  occ. eigenvalues --   -1.59896  -1.39448  -1.19518  -1.08874  -1.08377
 Alpha  occ. eigenvalues --   -1.04917  -1.03471  -0.95938  -0.95699  -0.86952
 Alpha  occ. eigenvalues --   -0.86296  -0.82528  -0.79549  -0.78204  -0.77563
 Alpha  occ. eigenvalues --   -0.72098  -0.71219  -0.70599  -0.65147  -0.65077
 Alpha  occ. eigenvalues --   -0.64881  -0.62258  -0.60924  -0.59330  -0.57552
 Alpha  occ. eigenvalues --   -0.55415  -0.55235  -0.53410  -0.52999  -0.52591
 Alpha  occ. eigenvalues --   -0.52332  -0.49860  -0.48861  -0.48850  -0.47810
 Alpha  occ. eigenvalues --   -0.46511  -0.45694  -0.45597  -0.44817  -0.43729
 Alpha  occ. eigenvalues --   -0.37466  -0.36475
 Alpha virt. eigenvalues --    0.04933   0.11046   0.16410   0.20864   0.23066
 Alpha virt. eigenvalues --    0.24034   0.26019   0.27125   0.27527   0.28025
 Alpha virt. eigenvalues --    0.28998   0.30789   0.31369   0.31697   0.31964

 Mulliken charges:
               1
     1  C   -0.296541
     2  C   -0.310430
     3  C   -0.472895
     4  H    0.149873
     5  H    0.143597
     6  H    0.153557
     7  H    0.165366
     8  H    0.149622
     9  H    0.155393
    10  H    0.156641
    11  C   -0.299987
    12  C   -0.299873
    13  C   -0.474721
    14  H    0.156549
    15  H    0.145081
    16  H    0.152505
    17  H    0.147415
    18  H    0.153876
    19  H    0.160058
    20  H    0.158947
    21  C   -0.170679
    22  C   -0.216100
    23  C   -0.171924
    24  C    0.163016
    25  C   -0.177058
    26  C   -0.217192
    27  H    0.226665
    28  H    0.224560
    29  H    0.276350
    30  H    0.275878
    31  H    0.224317
    32  N    0.488795
    33  O   -0.460220
    34  O   -0.460440
 Sum of Mulliken charges =  -0.00000

 Dipole moment (field-independent basis, Debye):
    X=              0.7569    Y=              4.1968    Z=              2.8179  Tot=              5.1115
 Quadrupole moment (field-independent basis, Debye-Ang):
   XX=            -90.3011   YY=           -102.3751   ZZ=            -91.5497
   XY=              9.1910   XZ=              3.7002   YZ=             -2.1251

 Normal termination of Gaussian 16 at Thu May  6 00:54:38 2021.
