 Gaussian 16, Revision A.03,
 Gaussian 16:  EM64L-G16RevA.03 25-Dec-2016

 -------------
 #p 6-31g* mp2
 -------------

 ------------------------------------------------------
 Input file generated by CHIRIPA (05-May-2021 14:53:18)
 ------------------------------------------------------
 Symbolic Z-matrix:
 Charge =  0 Multiplicity = 1

                         Standard orientation:
 ---------------------------------------------------------------------
 Center     Atomic      Atomic             Coordinates (Angstroms)
 Number     Number       Type             X           Y           Z
 ---------------------------------------------------------------------
      1          6           0       -3.095605    1.076484    0.177193
      2          6           0       -2.913340    2.298946   -0.723002
      3          6           0       -2.492466    3.547199    0.053223
      4          1           0       -3.847751    1.303419    0.945126
      5          1           0       -2.155082    0.878468    0.709735
      6          1           0       -3.853513    2.493765   -1.254731
      7          1           0       -2.161679    2.069009   -1.488999
      8          1           0       -1.542860    3.377036    0.570808
      9          1           0       -3.244306    3.804206    0.806406
     10          1           0       -2.367852    4.409139   -0.609642
     11          6           0       -3.516316   -0.179263   -0.584273
     12          6           0       -3.698582   -1.401725    0.315921
     13          6           0       -4.119455   -2.649978   -0.460303
     14          1           0       -4.456840    0.018753   -1.116815
     15          1           0       -2.764170   -0.406198   -1.352207
     16          1           0       -4.450242   -1.171788    1.081918
     17          1           0       -2.758409   -1.596544    0.847651
     18          1           0       -3.367615   -2.906985   -1.213487
     19          1           0       -5.069061   -2.479815   -0.977888
     20          1           0       -4.244070   -3.511918    0.202562
     21          6           0        0.459386   -1.340662    1.095310
     22          6           0        1.118924   -0.318490    1.785741
     23          6           0        2.296165    0.237564    1.276370
     24          6           0        2.788064   -0.254750    0.068498
     25          6           0        2.153917   -1.272162   -0.642852
     26          6           0        0.978072   -1.813402   -0.114650
     27          1           0       -0.454580   -1.766864    1.498316
     28          1           0        0.718408    0.050618    2.725629
     29          1           0        2.827023    1.029780    1.790181
     30          1           0        2.577420   -1.619338   -1.577480
     31          1           0        0.467990   -2.607142   -0.653016
     32          7           0        4.033616    0.326078   -0.480718
     33          8           0        4.446508   -0.125184   -1.546794
     34          8           0        4.573404    1.221595    0.165283
 ---------------------------------------------------------------------

 SCF Done:  E(RHF) =  -669.535618931     A.U. after   15 cycles
 E2 =    -0.2092164892D+01 EUMP2 =    -0.67162778382310D+03

 The electronic state is 1-A.
 Alpha  occ. eigenvalues --  -20.60815 -20.60810 -15.85870 -11.31260 -11.27829
 Alpha  occ. eigenvalues --  -11.27826 -11.27566 -11.26855 -11.26843 -11.22591
 Alpha  occ. eigenvalues --  -11.22100 -11.22026 -11.21965 -11.21949 -11.21419
 Alpha  occ. eigenvalues --   -1.59890  -1.39443  -1.19436  -1.09112  -1.08822
 Alpha  occ. eigenvalues --   -1.04839  -1.04193  -0.96618  -0.95657  -0.87638
 Alpha  occ. eigenvalues --   -0.86233  -0.82489  -0.80284  -0.78902  -0.77527
 Alpha  occ. eigenvalues --   -0.72086  -0.71214  -0.70565  -0.65750  -0.65086
 Alpha  occ. eigenvalues --   -0.64826  -0.62184  -0.61597  -0.60011  -0.58228
 Alpha  occ. eigenvalues --   -0.55907  -0.55360  -0.53321  -0.53168  -0.53031
 Alpha  occ. eigenvalues --   -0.52926  -0.50569  -0.48851  -0.48840  -0.48580
 Alpha  occ. eigenvalues --   -0.47324  -0.46437  -0.46340  -0.44843  -0.44433
 Alpha  occ. eigenvalues --   -0.37391  -0.36441
 Alpha virt. eigenvalues --    0.04971   0.11139   0.16339   0.19509   0.22881
 Alpha virt. eigenvalues --    0.23666   0.25251   0.26123   0.27184   0.27645
 Alpha virt. eigenvalues --    0.29042   0.29950   0.31102   0.31358   0.32090

 Mulliken charges:
               1
     1  C   -0.300179
     2  C   -0.300094
     3  C   -0.476052
     4  H    0.149512
     5  H    0.147213
     6  H    0.152931
     7  H    0.154694
     8  H    0.154884
     9  H    0.154664
    10  H    0.163202
    11  C   -0.298095
    12  C   -0.302400
    13  C   -0.475827
    14  H    0.152805
    15  H    0.150404
    16  H    0.155474
    17  H    0.140542
    18  H    0.152568
    19  H    0.160195
    20  H    0.160620
    21  C   -0.172783
    22  C   -0.220655
    23  C   -0.170906
    24  C    0.158698
    25  C   -0.170869
    26  C   -0.221006
    27  H    0.232279
    28  H    0.224598
    29  H    0.275990
    30  H    0.275919
    31  H    0.223995
    32  N    0.488021
    33  O   -0.460213
    34  O   -0.460130
 Sum of Mulliken charges =  -0.00000

 Dipole moment (field-independent basis, Debye):
    X=             -4.4554    Y=             -1.9813    Z=              1.8687  Tot=              5.2219
 Quadrupole moment (field-independent basis, Debye-Ang):
   XX=           -118.6009   YY=            -93.0668   ZZ=            -91.8264
   XY=             -4.9942   XZ=              5.3515   YZ=              1.7804

 Normal termination of Gaussian 16 at Thu May  6 12:19:19 2021.
