 Gaussian 16, Revision A.03,
 Gaussian 16:  EM64L-G16RevA.03 25-Dec-2016

 -------------
 #p 6-31g* mp2
 -------------

 ------------------------------------------------------
 Input file generated by CHIRIPA (05-May-2021 14:53:11)
 ------------------------------------------------------
 Symbolic Z-matrix:
 Charge =  0 Multiplicity = 1

                         Standard orientation:
 ---------------------------------------------------------------------
 Center     Atomic      Atomic             Coordinates (Angstroms)
 Number     Number       Type             X           Y           Z
 ---------------------------------------------------------------------
      1          6           0        2.682772   -0.260984   -0.375492
      2          6           0        2.610392   -1.463079    0.566694
      3          6           0        2.773425   -2.796770   -0.163019
      4          1           0        1.903467   -0.357887   -1.143762
      5          1           0        3.646105   -0.275552   -0.903859
      6          1           0        1.648051   -1.445481    1.094146
      7          1           0        3.389837   -1.363206    1.332923
      8          1           0        3.739961   -2.839915   -0.675414
      9          1           0        1.988279   -2.922658   -0.915547
     10          1           0        2.718457   -3.642586    0.529393
     11          6           0        2.521474    1.079498    0.339224
     12          6           0        2.593854    2.281593   -0.602962
     13          6           0        2.430821    3.615285    0.126751
     14          1           0        1.558140    1.094066    0.867591
     15          1           0        3.300779    1.176401    1.107494
     16          1           0        1.814409    2.181720   -1.369191
     17          1           0        3.556194    2.263995   -1.130414
     18          1           0        3.215967    3.741172    0.879279
     19          1           0        1.464285    3.658430    0.639146
     20          1           0        2.485789    4.461100   -0.565661
     21          6           0       -0.905279   -2.576317   -0.032762
     22          6           0       -1.100403   -1.916481    1.185048
     23          6           0       -1.724038   -0.665805    1.222990
     24          6           0       -2.141924   -0.101574    0.018704
     25          6           0       -1.961822   -0.734020   -1.210469
     26          6           0       -1.335853   -1.984024   -1.224534
     27          1           0       -0.419917   -3.547610   -0.052963
     28          1           0       -0.767040   -2.374068    2.112155
     29          1           0       -1.887717   -0.132953    2.151804
     30          1           0       -2.304956   -0.252648   -2.118190
     31          1           0       -1.185640   -2.494153   -2.171767
     32          7           0       -2.803375    1.222105    0.046233
     33          8           0       -3.162394    1.697897   -1.028646
     34          8           0       -2.950274    1.758748    1.142166
 ---------------------------------------------------------------------

 SCF Done:  E(RHF) =  -669.534437939     A.U. after   15 cycles
 E2 =    -0.2095102446D+01 EUMP2 =    -0.67162954038439D+03

 The electronic state is 1-A.
 Alpha  occ. eigenvalues --  -20.60883 -20.60878 -15.85941 -11.31343 -11.27924
 Alpha  occ. eigenvalues --  -11.27919 -11.27621 -11.26931 -11.26900 -11.21916
 Alpha  occ. eigenvalues --  -11.21773 -11.21582 -11.21539 -11.21425 -11.20858
 Alpha  occ. eigenvalues --   -1.59960  -1.39512  -1.19530  -1.08933  -1.08570
 Alpha  occ. eigenvalues --   -1.04938  -1.03719  -0.96204  -0.95718  -0.87208
 Alpha  occ. eigenvalues --   -0.86328  -0.82564  -0.79801  -0.78376  -0.77607
 Alpha  occ. eigenvalues --   -0.72156  -0.71287  -0.70625  -0.65293  -0.65168
 Alpha  occ. eigenvalues --   -0.64900  -0.62275  -0.61163  -0.59598  -0.57779
 Alpha  occ. eigenvalues --   -0.55710  -0.55191  -0.53234  -0.53015  -0.52883
 Alpha  occ. eigenvalues --   -0.52605  -0.50116  -0.48918  -0.48909  -0.48104
 Alpha  occ. eigenvalues --   -0.46843  -0.45910  -0.45839  -0.44909  -0.43956
 Alpha  occ. eigenvalues --   -0.37410  -0.36467
 Alpha virt. eigenvalues --    0.04906   0.10967   0.16323   0.20480   0.22930
 Alpha virt. eigenvalues --    0.24328   0.26201   0.26477   0.26968   0.27935
 Alpha virt. eigenvalues --    0.29398   0.30626   0.30949   0.31286   0.32204

 Mulliken charges:
               1
     1  C   -0.298027
     2  C   -0.304204
     3  C   -0.478096
     4  H    0.150109
     5  H    0.149022
     6  H    0.155567
     7  H    0.151928
     8  H    0.159419
     9  H    0.148149
    10  H    0.154383
    11  C   -0.299225
    12  C   -0.300068
    13  C   -0.476653
    14  H    0.150164
    15  H    0.148975
    16  H    0.153115
    17  H    0.150708
    18  H    0.153617
    19  H    0.160333
    20  H    0.161595
    21  C   -0.165096
    22  C   -0.222367
    23  C   -0.171282
    24  C    0.158395
    25  C   -0.170828
    26  C   -0.220132
    27  H    0.229760
    28  H    0.225455
    29  H    0.276497
    30  H    0.276346
    31  H    0.224565
    32  N    0.487959
    33  O   -0.459960
    34  O   -0.460123
 Sum of Mulliken charges =  -0.00000

 Dipole moment (field-independent basis, Debye):
    X=              2.1991    Y=             -4.5893    Z=             -0.0960  Tot=              5.0899
 Quadrupole moment (field-independent basis, Debye-Ang):
   XX=           -104.7597   YY=            -95.5428   ZZ=            -89.9415
   XY=             10.2866   XZ=              0.9556   YZ=             -0.3120

 Normal termination of Gaussian 16 at Wed May  5 21:43:40 2021.
