 Gaussian 16, Revision A.03,
 Gaussian 16:  EM64L-G16RevA.03 25-Dec-2016

 -------------
 #p 6-31g* mp2
 -------------

 ------------------------------------------------------
 Input file generated by CHIRIPA (05-May-2021 14:55:24)
 ------------------------------------------------------
 Symbolic Z-matrix:
 Charge =  0 Multiplicity = 1

                         Standard orientation:
 ---------------------------------------------------------------------
 Center     Atomic      Atomic             Coordinates (Angstroms)
 Number     Number       Type             X           Y           Z
 ---------------------------------------------------------------------
      1          6           0       -1.185673   -1.302440    1.293525
      2          6           0       -0.926954   -0.443442    0.220349
      3          6           0       -1.978856    0.109503   -0.516063
      4          6           0       -3.283137   -0.219494   -0.150138
      5          6           0       -3.573177   -1.072156    0.913880
      6          6           0       -2.505632   -1.613507    1.636261
      7          1           0       -0.362455   -1.727478    1.860138
      8          1           0        0.097142   -0.200099   -0.048086
      9          1           0       -1.807039    0.777315   -1.351482
     10          1           0       -4.604597   -1.296144    1.157642
     11          1           0       -2.709541   -2.280322    2.469222
     12          7           0       -4.405018    0.359747   -0.922318
     13          8           0       -5.545184    0.054207   -0.579821
     14          8           0       -4.122940    1.108329   -1.855428
     15          6           0        3.314583    0.558424    0.397125
     16          6           0        3.073629    2.054948    0.597980
     17          6           0        1.767005    2.349604    1.335344
     18          1           0        2.471664    0.129578   -0.161913
     19          1           0        3.325193    0.061094    1.376892
     20          1           0        3.064856    2.549518   -0.381785
     21          1           0        3.917311    2.480319    1.156439
     22          1           0        1.769619    1.882449    2.325475
     23          1           0        0.912320    1.952042    0.778512
     24          1           0        1.614721    3.425261    1.468126
     25          6           0        4.616904    0.247873   -0.338569
     26          6           0        4.857858   -1.248651   -0.539425
     27          6           0        6.164483   -1.543307   -1.276788
     28          1           0        4.606295    0.745205   -1.318336
     29          1           0        5.459823    0.676719    0.220469
     30          1           0        4.014176   -1.674021   -1.097882
     31          1           0        4.866631   -1.743221    0.440340
     32          1           0        7.019167   -1.145745   -0.719956
     33          1           0        6.161868   -1.076152   -2.266919
     34          1           0        6.316766   -2.618963   -1.409570
 ---------------------------------------------------------------------

 SCF Done:  E(RHF) =  -669.534943840     A.U. after   15 cycles
 E2 =    -0.2092197538D+01 EUMP2 =    -0.67162714137769D+03

 The electronic state is 1-A.
 Alpha  occ. eigenvalues --  -20.60734 -20.60729 -15.85787 -11.31150 -11.27724
 Alpha  occ. eigenvalues --  -11.27719 -11.27448 -11.26733 -11.26681 -11.22477
 Alpha  occ. eigenvalues --  -11.22399 -11.22322 -11.22159 -11.21850 -11.21635
 Alpha  occ. eigenvalues --   -1.59810  -1.39363  -1.19323  -1.09288  -1.08713
 Alpha  occ. eigenvalues --   -1.04734  -1.04291  -0.96748  -0.95550  -0.87759
 Alpha  occ. eigenvalues --   -0.86129  -0.82392  -0.80361  -0.79135  -0.77433
 Alpha  occ. eigenvalues --   -0.72006  -0.71133  -0.70423  -0.65978  -0.64973
 Alpha  occ. eigenvalues --   -0.64723  -0.62166  -0.61604  -0.60103  -0.58365
 Alpha  occ. eigenvalues --   -0.56057  -0.55219  -0.53393  -0.53258  -0.52976
 Alpha  occ. eigenvalues --   -0.52852  -0.50695  -0.48799  -0.48762  -0.48625
 Alpha  occ. eigenvalues --   -0.47377  -0.46620  -0.46558  -0.44770  -0.44573
 Alpha  occ. eigenvalues --   -0.37290  -0.36312
 Alpha virt. eigenvalues --    0.05089   0.11270   0.16494   0.19549   0.22586
 Alpha virt. eigenvalues --    0.23817   0.24953   0.26275   0.27151   0.28219
 Alpha virt. eigenvalues --    0.29111   0.30272   0.31177   0.31255   0.31548

 Mulliken charges:
               1
     1  C   -0.174419
     2  C   -0.223332
     3  C   -0.174597
     4  C    0.159070
     5  C   -0.170911
     6  C   -0.218636
     7  H    0.226377
     8  H    0.235550
     9  H    0.275763
    10  H    0.275492
    11  H    0.223276
    12  N    0.488065
    13  O   -0.460620
    14  O   -0.460515
    15  C   -0.303717
    16  C   -0.300992
    17  C   -0.479068
    18  H    0.142379
    19  H    0.148961
    20  H    0.154630
    21  H    0.155926
    22  H    0.154825
    23  H    0.151980
    24  H    0.166162
    25  C   -0.297784
    26  C   -0.300304
    27  C   -0.476187
    28  H    0.152238
    29  H    0.153054
    30  H    0.150583
    31  H    0.151279
    32  H    0.156628
    33  H    0.156941
    34  H    0.161903
 Sum of Mulliken charges =  -0.00000

 Dipole moment (field-independent basis, Debye):
    X=              4.1542    Y=             -1.9872    Z=              2.7433  Tot=              5.3602
 Quadrupole moment (field-independent basis, Debye-Ang):
   XX=           -118.6349   YY=            -93.1577   ZZ=            -93.7669
   XY=              8.2018   XZ=            -10.9646   YZ=             -2.1467

 Normal termination of Gaussian 16 at Thu May  6 14:20:04 2021.
