 Gaussian 16, Revision A.03,
 Gaussian 16:  EM64L-G16RevA.03 25-Dec-2016

 -------------
 #p 6-31g* mp2
 -------------

 ------------------------------------------------------
 Input file generated by CHIRIPA (05-May-2021 14:55:23)
 ------------------------------------------------------
 Symbolic Z-matrix:
 Charge =  0 Multiplicity = 1

                         Standard orientation:
 ---------------------------------------------------------------------
 Center     Atomic      Atomic             Coordinates (Angstroms)
 Number     Number       Type             X           Y           Z
 ---------------------------------------------------------------------
      1          6           0        0.907958   -2.643939    0.574514
      2          6           0        1.981384   -2.715346   -0.319453
      3          6           0        2.755416   -1.583324   -0.591388
      4          6           0        2.426446   -0.390797    0.051223
      5          6           0        1.363202   -0.287791    0.946875
      6          6           0        0.602831   -1.432525    1.203716
      7          1           0        0.311977   -3.528258    0.779897
      8          1           0        2.220659   -3.654811   -0.809554
      9          1           0        3.591930   -1.610491   -1.279082
     10          1           0        1.149010    0.662782    1.420109
     11          1           0       -0.230229   -1.374122    1.898442
     12          7           0        3.238648    0.814353   -0.228672
     13          8           0        2.928286    1.853094    0.350405
     14          8           0        4.170236    0.697390   -1.021831
     15          6           0       -3.419964    0.253348    0.186281
     16          6           0       -4.186347   -0.570706   -0.848888
     17          6           0       -5.153565   -1.568728   -0.211519
     18          1           0       -2.865108   -0.425578    0.848202
     19          1           0       -4.137827    0.791206    0.820928
     20          1           0       -3.467220   -1.105769   -1.482277
     21          1           0       -4.739291    0.110269   -1.508540
     22          1           0       -5.893126   -1.048160    0.405456
     23          1           0       -4.613827   -2.271106    0.431869
     24          1           0       -5.690864   -2.147157   -0.969537
     25          6           0       -2.449056    1.255567   -0.435506
     26          6           0       -1.682672    2.079622    0.599663
     27          6           0       -0.715454    3.077643   -0.037705
     28          1           0       -1.731192    0.717710   -1.070153
     29          1           0       -3.003912    1.934493   -1.097427
     30          1           0       -1.129728    1.398647    1.259315
     31          1           0       -2.401799    2.614684    1.233052
     32          1           0       -1.255192    3.780021   -0.681094
     33          1           0        0.024107    2.557076   -0.654681
     34          1           0       -0.178156    3.656072    0.720312
 ---------------------------------------------------------------------

 SCF Done:  E(RHF) =  -669.535244397     A.U. after   15 cycles
 E2 =    -0.2093561624D+01 EUMP2 =    -0.67162880602105D+03

 The electronic state is 1-A.
 Alpha  occ. eigenvalues --  -20.60858 -20.60845 -15.85890 -11.31252 -11.27831
 Alpha  occ. eigenvalues --  -11.27804 -11.27575 -11.26845 -11.26835 -11.22005
 Alpha  occ. eigenvalues --  -11.21846 -11.21827 -11.21612 -11.21525 -11.20803
 Alpha  occ. eigenvalues --   -1.59919  -1.39472  -1.19435  -1.08829  -1.08751
 Alpha  occ. eigenvalues --   -1.04843  -1.03779  -0.96192  -0.95658  -0.87189
 Alpha  occ. eigenvalues --   -0.86232  -0.82499  -0.79853  -0.78583  -0.77540
 Alpha  occ. eigenvalues --   -0.72112  -0.71241  -0.70551  -0.65431  -0.65079
 Alpha  occ. eigenvalues --   -0.64849  -0.62267  -0.61089  -0.59569  -0.57808
 Alpha  occ. eigenvalues --   -0.55510  -0.55306  -0.53157  -0.52907  -0.52839
 Alpha  occ. eigenvalues --   -0.52603  -0.50138  -0.48871  -0.48862  -0.48155
 Alpha  occ. eigenvalues --   -0.46914  -0.46128  -0.46020  -0.44835  -0.44022
 Alpha  occ. eigenvalues --   -0.37414  -0.36411
 Alpha virt. eigenvalues --    0.04952   0.11119   0.16332   0.19729   0.22957
 Alpha virt. eigenvalues --    0.23768   0.24892   0.26758   0.26837   0.28301
 Alpha virt. eigenvalues --    0.29412   0.31201   0.31343   0.31659   0.31980

 Mulliken charges:
               1
     1  C   -0.171119
     2  C   -0.218696
     3  C   -0.170745
     4  C    0.157068
     5  C   -0.172922
     6  C   -0.219942
     7  H    0.226008
     8  H    0.223807
     9  H    0.275845
    10  H    0.280859
    11  H    0.225239
    12  N    0.487814
    13  O   -0.459175
    14  O   -0.459748
    15  C   -0.297046
    16  C   -0.300072
    17  C   -0.475118
    18  H    0.140340
    19  H    0.150925
    20  H    0.151844
    21  H    0.154581
    22  H    0.156636
    23  H    0.150630
    24  H    0.161472
    25  C   -0.298648
    26  C   -0.301193
    27  C   -0.476943
    28  H    0.151719
    29  H    0.152482
    30  H    0.137328
    31  H    0.152852
    32  H    0.154960
    33  H    0.162032
    34  H    0.166925
 Sum of Mulliken charges =  -0.00000

 Dipole moment (field-independent basis, Debye):
    X=             -2.7934    Y=             -4.1396    Z=              0.8796  Tot=              5.0708
 Quadrupole moment (field-independent basis, Debye-Ang):
   XX=           -107.4408   YY=            -90.1177   ZZ=            -93.3542
   XY=            -12.1404   XZ=              0.6587   YZ=              1.4794

 Normal termination of Gaussian 16 at Thu May  6 19:17:38 2021.
