 Gaussian 16, Revision A.03,
 Gaussian 16:  EM64L-G16RevA.03 25-Dec-2016

 -------------
 #p 6-31g* mp2
 -------------

 ------------------------------------------------------
 Input file generated by CHIRIPA (05-May-2021 14:53:14)
 ------------------------------------------------------
 Symbolic Z-matrix:
 Charge =  0 Multiplicity = 1

                         Standard orientation:
 ---------------------------------------------------------------------
 Center     Atomic      Atomic             Coordinates (Angstroms)
 Number     Number       Type             X           Y           Z
 ---------------------------------------------------------------------
      1          6           0       -2.732671   -0.323131    0.021889
      2          6           0       -3.878890   -1.257386   -0.367130
      3          6           0       -3.549673   -2.730426   -0.123077
      4          1           0       -1.834250   -0.598692   -0.547190
      5          1           0       -2.489404   -0.474561    1.082683
      6          1           0       -4.120846   -1.103250   -1.426524
      7          1           0       -4.774738   -0.979446    0.202800
      8          1           0       -3.328901   -2.905679    0.934820
      9          1           0       -2.671293   -3.030187   -0.703762
     10          1           0       -4.382755   -3.380537   -0.408017
     11          6           0       -3.046689    1.152808   -0.216284
     12          6           0       -1.900470    2.087062    0.172735
     13          6           0       -2.229687    3.560103   -0.071318
     14          1           0       -3.289956    1.304237   -1.277079
     15          1           0       -3.945109    1.428369    0.352794
     16          1           0       -1.004621    1.809123   -0.397196
     17          1           0       -1.658513    1.932927    1.232128
     18          1           0       -3.108066    3.859864    0.509366
     19          1           0       -2.450459    3.735356   -1.129216
     20          1           0       -1.396605    4.210214    0.213621
     21          6           0        1.431888   -2.702134    0.246543
     22          6           0        2.688602   -2.435473   -0.306706
     23          6           0        3.156279   -1.121730   -0.406250
     24          6           0        2.337385   -0.094192    0.059442
     25          6           0        1.080634   -0.327740    0.615607
     26          6           0        0.633323   -1.649273    0.705125
     27          1           0        1.076496   -3.725706    0.319976
     28          1           0        3.310929   -3.251154   -0.663660
     29          1           0        4.125075   -0.886937   -0.830188
     30          1           0        0.482937    0.506280    0.962867
     31          1           0       -0.343089   -1.853392    1.135243
     32          7           0        2.821714    1.300731   -0.040633
     33          8           0        2.081128    2.188342    0.376878
     34          8           0        3.932745    1.480048   -0.534689
 ---------------------------------------------------------------------

 SCF Done:  E(RHF) =  -669.534286153     A.U. after   15 cycles
 E2 =    -0.2094914807D+01 EUMP2 =    -0.67162920095983D+03

 The electronic state is 1-A.
 Alpha  occ. eigenvalues --  -20.60761 -20.60755 -15.85797 -11.31098 -11.27672
 Alpha  occ. eigenvalues --  -11.27559 -11.27386 -11.26688 -11.26568 -11.22251
 Alpha  occ. eigenvalues --  -11.22053 -11.21913 -11.21744 -11.21683 -11.20877
 Alpha  occ. eigenvalues --   -1.59828  -1.39383  -1.19270  -1.08931  -1.08674
 Alpha  occ. eigenvalues --   -1.04656  -1.03916  -0.96373  -0.95521  -0.87399
 Alpha  occ. eigenvalues --   -0.86059  -0.82372  -0.80043  -0.78889  -0.77290
 Alpha  occ. eigenvalues --   -0.72017  -0.71147  -0.70372  -0.65546  -0.64916
 Alpha  occ. eigenvalues --   -0.64676  -0.62013  -0.61297  -0.59769  -0.57970
 Alpha  occ. eigenvalues --   -0.55682  -0.55172  -0.53091  -0.53043  -0.52893
 Alpha  occ. eigenvalues --   -0.52567  -0.50326  -0.48788  -0.48777  -0.48268
 Alpha  occ. eigenvalues --   -0.47080  -0.46220  -0.46151  -0.44767  -0.44164
 Alpha  occ. eigenvalues --   -0.37259  -0.36183
 Alpha virt. eigenvalues --    0.05067   0.11265   0.16503   0.20373   0.22846
 Alpha virt. eigenvalues --    0.23450   0.24840   0.26696   0.27084   0.28807
 Alpha virt. eigenvalues --    0.29446   0.30054   0.31148   0.31450   0.32271

 Mulliken charges:
               1
     1  C   -0.309405
     2  C   -0.297934
     3  C   -0.479202
     4  H    0.155924
     5  H    0.140242
     6  H    0.155831
     7  H    0.154803
     8  H    0.150598
     9  H    0.152952
    10  H    0.164821
    11  C   -0.296448
    12  C   -0.308656
    13  C   -0.476120
    14  H    0.152439
    15  H    0.150722
    16  H    0.161427
    17  H    0.147291
    18  H    0.152855
    19  H    0.155426
    20  H    0.172307
    21  C   -0.173254
    22  C   -0.218811
    23  C   -0.171062
    24  C    0.155889
    25  C   -0.177490
    26  C   -0.224371
    27  H    0.225682
    28  H    0.222919
    29  H    0.275012
    30  H    0.287562
    31  H    0.231925
    32  N    0.488021
    33  O   -0.461694
    34  O   -0.460200
 Sum of Mulliken charges =  -0.00000

 Dipole moment (field-independent basis, Debye):
    X=             -1.8011    Y=             -4.7377    Z=              0.2537  Tot=              5.0749
 Quadrupole moment (field-independent basis, Debye-Ang):
   XX=            -99.0715   YY=            -94.5619   ZZ=            -93.7251
   XY=            -12.9902   XZ=             -1.3768   YZ=              0.6647

 Normal termination of Gaussian 16 at Thu May  6 02:40:29 2021.
