 Gaussian 16, Revision A.03,
 Gaussian 16:  EM64L-G16RevA.03 25-Dec-2016

 -------------
 #p 6-31g* mp2
 -------------

 ------------------------------------------------------
 Input file generated by CHIRIPA (05-May-2021 14:51:14)
 ------------------------------------------------------
 Symbolic Z-matrix:
 Charge =  0 Multiplicity = 1

                         Standard orientation:
 ---------------------------------------------------------------------
 Center     Atomic      Atomic             Coordinates (Angstroms)
 Number     Number       Type             X           Y           Z
 ---------------------------------------------------------------------
      1          6           0       -4.358615    0.638619   -0.167179
      2          6           0       -5.864971    0.767195    0.061612
      3          6           0       -6.436852    2.074533   -0.487581
      4          1           0       -3.848637    1.490078    0.303867
      5          1           0       -4.151212    0.706866   -1.244083
      6          1           0       -6.069605    0.697339    1.137651
      7          1           0       -6.371405   -0.084771   -0.409869
      8          1           0       -6.261773    2.148748   -1.565747
      9          1           0       -5.958257    2.935301   -0.009433
     10          1           0       -7.515006    2.145663   -0.313266
     11          6           0       -3.772233   -0.663097    0.376345
     12          6           0       -2.265877   -0.791673    0.147554
     13          6           0       -1.693995   -2.099011    0.696747
     14          1           0       -3.979635   -0.731344    1.453249
     15          1           0       -4.282211   -1.514557   -0.094701
     16          1           0       -1.759442    0.060292    0.619035
     17          1           0       -2.061243   -0.721818   -0.928486
     18          1           0       -2.172590   -2.959780    0.218599
     19          1           0       -1.869075   -2.173226    1.774912
     20          1           0       -0.615842   -2.170141    0.522432
     21          6           0        4.736308    0.376312   -0.132793
     22          6           0        4.647740    1.844145    0.286266
     23          6           0        5.997905    2.559020    0.224611
     24          1           0        5.456559   -0.140782    0.515897
     25          1           0        5.137146    0.317378   -1.154189
     26          1           0        4.245891    1.900359    1.306057
     27          1           0        3.927474    2.357761   -0.363373
     28          1           0        6.401705    2.532585   -0.792664
     29          1           0        6.721932    2.072586    0.886251
     30          1           0        5.911537    3.606984    0.528211
     31          6           0        3.394539   -0.351834   -0.076374
     32          6           0        3.483107   -1.819666   -0.495431
     33          6           0        2.132943   -2.534542   -0.433776
     34          1           0        2.993702   -0.292900    0.945024
     35          1           0        2.674288    0.165260   -0.725063
     36          1           0        4.203373   -2.333282    0.154207
     37          1           0        3.884957   -1.875882   -1.515223
     38          1           0        1.408915   -2.048108   -1.095416
     39          1           0        1.729142   -2.508107    0.583499
     40          1           0        2.219310   -3.582506   -0.737377
 ---------------------------------------------------------------------

 SCF Done:  E(RHF) =  -470.732831949     A.U. after   11 cycles
 E2 =    -0.1582620424D+01 EUMP2 =    -0.47231545237236D+03

 The electronic state is 1-A.
 Alpha  occ. eigenvalues --  -11.21633 -11.21614 -11.21568 -11.21516 -11.21426
 Alpha  occ. eigenvalues --  -11.21366 -11.21351 -11.21288 -11.21120 -11.21081
 Alpha  occ. eigenvalues --  -11.21047 -11.20858  -1.08455  -1.08369  -1.03569
 Alpha  occ. eigenvalues --   -1.03450  -0.96045  -0.95877  -0.87093  -0.86868
 Alpha  occ. eigenvalues --   -0.79664  -0.79492  -0.78267  -0.78185  -0.65084
 Alpha  occ. eigenvalues --   -0.65001  -0.60962  -0.60852  -0.59435  -0.59283
 Alpha  occ. eigenvalues --   -0.57786  -0.57362  -0.55311  -0.55183  -0.52953
 Alpha  occ. eigenvalues --   -0.52681  -0.52404  -0.52031  -0.49959  -0.49842
 Alpha  occ. eigenvalues --   -0.48052  -0.47692  -0.46655  -0.46562  -0.45804
 Alpha  occ. eigenvalues --   -0.45736  -0.45717  -0.45655  -0.43817  -0.43658
 Alpha virt. eigenvalues --    0.22374   0.23006   0.23585   0.24874   0.26476
 Alpha virt. eigenvalues --    0.26666   0.26824   0.27554   0.27685   0.29028
 Alpha virt. eigenvalues --    0.30544   0.31331   0.31475   0.31887   0.32082

 Mulliken charges:
               1
     1  C   -0.298150
     2  C   -0.299578
     3  C   -0.475658
     4  H    0.149479
     5  H    0.149253
     6  H    0.151861
     7  H    0.151879
     8  H    0.155077
     9  H    0.155101
    10  H    0.160137
    11  C   -0.298181
    12  C   -0.298757
    13  C   -0.485972
    14  H    0.149355
    15  H    0.149495
    16  H    0.151496
    17  H    0.150850
    18  H    0.154240
    19  H    0.153505
    20  H    0.172872
    21  C   -0.298273
    22  C   -0.299676
    23  C   -0.475724
    24  H    0.149701
    25  H    0.149590
    26  H    0.151925
    27  H    0.152041
    28  H    0.155213
    29  H    0.155196
    30  H    0.160297
    31  C   -0.298497
    32  C   -0.299641
    33  C   -0.479738
    34  H    0.149472
    35  H    0.149905
    36  H    0.152113
    37  H    0.152052
    38  H    0.156876
    39  H    0.157681
    40  H    0.161184
 Sum of Mulliken charges =  -0.00000

 Dipole moment (field-independent basis, Debye):
    X=              0.0712    Y=             -0.0177    Z=             -0.0104  Tot=              0.0741
 Quadrupole moment (field-independent basis, Debye-Ang):
   XX=            -86.0022   YY=            -85.7140   ZZ=            -83.1400
   XY=             -0.1375   XZ=              0.1681   YZ=              0.4915

 Normal termination of Gaussian 16 at Wed May  5 21:38:40 2021.
