 Gaussian 16, Revision A.03,
 Gaussian 16:  EM64L-G16RevA.03 25-Dec-2016

 -------------
 #p 6-31g* mp2
 -------------

 ------------------------------------------------------
 Input file generated by CHIRIPA (05-May-2021 14:53:13)
 ------------------------------------------------------
 Symbolic Z-matrix:
 Charge =  0 Multiplicity = 1

                         Standard orientation:
 ---------------------------------------------------------------------
 Center     Atomic      Atomic             Coordinates (Angstroms)
 Number     Number       Type             X           Y           Z
 ---------------------------------------------------------------------
      1          6           0       -3.463965   -0.639187   -0.094703
      2          6           0       -2.928574   -1.502056    1.048450
      3          6           0       -1.584246   -2.151770    0.719132
      4          1           0       -3.565483   -1.258381   -0.996500
      5          1           0       -2.727199    0.140633   -0.332299
      6          1           0       -3.666737   -2.279163    1.284745
      7          1           0       -2.828500   -0.880781    1.947681
      8          1           0       -0.829756   -1.388186    0.503992
      9          1           0       -1.672756   -2.794514   -0.162711
     10          1           0       -1.219994   -2.764008    1.550002
     11          6           0       -4.807227    0.017077    0.219450
     12          6           0       -5.342618    0.879947   -0.923702
     13          6           0       -6.686946    1.529661   -0.594385
     14          1           0       -5.543993   -0.762742    0.457046
     15          1           0       -4.705709    0.636271    1.121248
     16          1           0       -5.442692    0.258671   -1.822934
     17          1           0       -4.604455    1.657054   -1.159998
     18          1           0       -6.598436    2.172405    0.287458
     19          1           0       -7.441436    0.766077   -0.379244
     20          1           0       -7.051198    2.141899   -1.425254
     21          6           0        3.111488    2.701248    0.506903
     22          6           0        4.281333    2.163092   -0.039329
     23          6           0        4.358781    0.802445   -0.351083
     24          6           0        3.242482    0.005358   -0.102446
     25          6           0        2.062840    0.511886    0.440845
     26          6           0        2.007919    1.875383    0.744827
     27          1           0        3.060074    3.759339    0.746062
     28          1           0        5.139930    2.802089   -0.225177
     29          1           0        5.251998    0.359660   -0.774781
     30          1           0        1.223308   -0.150186    0.614815
     31          1           0        1.098099    2.290580    1.168952
     32          7           0        3.312548   -1.436607   -0.428371
     33          8           0        2.315276   -2.117661   -0.199789
     34          8           0        4.363412   -1.858462   -0.906243
 ---------------------------------------------------------------------

 SCF Done:  E(RHF) =  -669.535301158     A.U. after   15 cycles
 E2 =    -0.2091217765D+01 EUMP2 =    -0.67162651892294D+03

 The electronic state is 1-A.
 Alpha  occ. eigenvalues --  -20.60746 -20.60737 -15.85794 -11.31182 -11.27755
 Alpha  occ. eigenvalues --  -11.27747 -11.27507 -11.26781 -11.26771 -11.21719
 Alpha  occ. eigenvalues --  -11.21581 -11.21498 -11.21432 -11.21189 -11.20867
 Alpha  occ. eigenvalues --   -1.59819  -1.39371  -1.19360  -1.08751  -1.08499
 Alpha  occ. eigenvalues --   -1.04769  -1.03556  -0.95988  -0.95581  -0.86992
 Alpha  occ. eigenvalues --   -0.86165  -0.82412  -0.79610  -0.78314  -0.77454
 Alpha  occ. eigenvalues --   -0.72013  -0.71142  -0.70477  -0.65151  -0.65013
 Alpha  occ. eigenvalues --   -0.64776  -0.62151  -0.60948  -0.59355  -0.57594
 Alpha  occ. eigenvalues --   -0.55380  -0.55188  -0.53095  -0.52896  -0.52644
 Alpha  occ. eigenvalues --   -0.52367  -0.49930  -0.48775  -0.48768  -0.47911
 Alpha  occ. eigenvalues --   -0.46663  -0.45841  -0.45794  -0.44770  -0.43805
 Alpha  occ. eigenvalues --   -0.37343  -0.36371
 Alpha virt. eigenvalues --    0.05075   0.11274   0.16567   0.20436   0.22829
 Alpha virt. eigenvalues --    0.23895   0.25744   0.26883   0.27551   0.27733
 Alpha virt. eigenvalues --    0.29185   0.30432   0.31493   0.31761   0.32027

 Mulliken charges:
               1
     1  C   -0.296997
     2  C   -0.301508
     3  C   -0.475555
     4  H    0.152650
     5  H    0.143868
     6  H    0.153479
     7  H    0.147267
     8  H    0.150529
     9  H    0.162425
    10  H    0.164764
    11  C   -0.298001
    12  C   -0.299386
    13  C   -0.475644
    14  H    0.150867
    15  H    0.147510
    16  H    0.153366
    17  H    0.149926
    18  H    0.154157
    19  H    0.156044
    20  H    0.160342
    21  C   -0.170406
    22  C   -0.219105
    23  C   -0.169691
    24  C    0.155450
    25  C   -0.178605
    26  C   -0.223141
    27  H    0.225579
    28  H    0.223455
    29  H    0.275720
    30  H    0.292016
    31  H    0.223467
    32  N    0.486574
    33  O   -0.460943
    34  O   -0.460475
 Sum of Mulliken charges =  -0.00000

 Dipole moment (field-independent basis, Debye):
    X=             -0.2546    Y=              4.9492    Z=              1.1153  Tot=              5.0797
 Quadrupole moment (field-independent basis, Debye-Ang):
   XX=            -92.7455   YY=            -94.4850   ZZ=            -95.2040
   XY=             18.5338   XZ=              2.4046   YZ=             -0.4220

 Normal termination of Gaussian 16 at Thu May  6 15:23:55 2021.
