 Gaussian 16, Revision A.03,
 Gaussian 16:  EM64L-G16RevA.03 25-Dec-2016

 -------------
 #p 6-31g* mp2
 -------------

 ------------------------------------------------------
 Input file generated by CHIRIPA (05-May-2021 14:57:23)
 ------------------------------------------------------
 Symbolic Z-matrix:
 Charge =  0 Multiplicity = 1

                         Standard orientation:
 ---------------------------------------------------------------------
 Center     Atomic      Atomic             Coordinates (Angstroms)
 Number     Number       Type             X           Y           Z
 ---------------------------------------------------------------------
      1          6           0        4.732682   -1.646100    0.874644
      2          6           0        3.354936   -1.765856    0.664891
      3          6           0        2.621324   -0.698146    0.139195
      4          6           0        3.300592    0.480070   -0.166898
      5          6           0        4.672355    0.630163    0.030653
      6          6           0        5.385843   -0.450581    0.557414
      7          1           0        5.294753   -2.480585    1.283431
      8          1           0        2.845046   -2.693119    0.910334
      9          1           0        1.553909   -0.763700   -0.033274
     10          1           0        5.152857    1.567086   -0.223733
     11          1           0        6.455733   -0.354730    0.719254
     12          7           0        2.534602    1.617305   -0.723993
     13          8           0        3.156493    2.644693   -0.985457
     14          8           0        1.326832    1.459750   -0.888630
     15          6           0       -4.802739    1.621980    0.973440
     16          6           0       -3.584087    1.292615    1.575874
     17          6           0       -2.813426    0.233752    1.086546
     18          6           0       -3.293818   -0.477738   -0.011768
     19          6           0       -4.503859   -0.173897   -0.633679
     20          6           0       -5.257934    0.888965   -0.127472
     21          1           0       -5.394964    2.446082    1.360118
     22          1           0       -3.228092    1.860142    2.430991
     23          1           0       -1.866339   -0.042684    1.533790
     24          1           0       -4.832546   -0.757987   -1.484691
     25          1           0       -6.203973    1.142506   -0.597336
     26          7           0       -2.486735   -1.600825   -0.538732
     27          8           0       -2.932071   -2.212155   -1.507539
     28          8           0       -1.424088   -1.848504    0.027019
 ---------------------------------------------------------------------

 SCF Done:  E(RHF) =  -868.340150191     A.U. after   16 cycles
 E2 =    -0.2598434501D+01 EUMP2 =    -0.87093858469204D+03

 The electronic state is 1-A.
 Alpha  occ. eigenvalues --  -20.60864 -20.60804 -20.60368 -20.60363 -15.85869
 Alpha  occ. eigenvalues --  -15.85415 -11.30957 -11.30608 -11.27517 -11.27510
 Alpha  occ. eigenvalues --  -11.27239 -11.27230 -11.27018 -11.26937 -11.26490
 Alpha  occ. eigenvalues --  -11.26465 -11.26233 -11.26077  -1.59882  -1.59449
 Alpha  occ. eigenvalues --   -1.39451  -1.39004  -1.19112  -1.18784  -1.08563
 Alpha  occ. eigenvalues --   -1.08226  -1.04487  -1.04143  -0.95445  -0.95076
 Alpha  occ. eigenvalues --   -0.85903  -0.85560  -0.82300  -0.81900  -0.77371
 Alpha  occ. eigenvalues --   -0.76950  -0.72121  -0.71640  -0.71163  -0.70771
 Alpha  occ. eigenvalues --   -0.70248  -0.69888  -0.64787  -0.64507  -0.64434
 Alpha  occ. eigenvalues --   -0.64139  -0.61851  -0.61458  -0.55020  -0.54690
 Alpha  occ. eigenvalues --   -0.52811  -0.52594  -0.52519  -0.52216  -0.48867
 Alpha  occ. eigenvalues --   -0.48829  -0.48397  -0.48382  -0.44910  -0.44448
 Alpha  occ. eigenvalues --   -0.37077  -0.36800  -0.36063  -0.35750
 Alpha virt. eigenvalues --    0.05137   0.05541   0.11592   0.11892   0.16646
 Alpha virt. eigenvalues --    0.17053   0.21510   0.22159   0.27249   0.27855
 Alpha virt. eigenvalues --    0.28353   0.29254   0.31005   0.31688   0.32306

 Mulliken charges:
               1
     1  C   -0.170999
     2  C   -0.221503
     3  C   -0.178200
     4  C    0.156470
     5  C   -0.171739
     6  C   -0.219532
     7  H    0.224017
     8  H    0.229233
     9  H    0.292336
    10  H    0.272969
    11  H    0.220912
    12  N    0.487672
    13  O   -0.463495
    14  O   -0.461173
    15  C   -0.169585
    16  C   -0.217360
    17  C   -0.164363
    18  C    0.159704
    19  C   -0.170052
    20  C   -0.218447
    21  H    0.225620
    22  H    0.223913
    23  H    0.273004
    24  H    0.274820
    25  H    0.223014
    26  N    0.492386
    27  O   -0.457742
    28  O   -0.471879
 Sum of Mulliken charges =  -0.00000

 Dipole moment (field-independent basis, Debye):
    X=             -0.4188    Y=             -0.0979    Z=              3.8051  Tot=              3.8294
 Quadrupole moment (field-independent basis, Debye-Ang):
   XX=            -63.3966   YY=           -112.0919   ZZ=           -104.2683
   XY=            -21.2266   XZ=              2.6237   YZ=              1.3878

 Normal termination of Gaussian 16 at Thu May  6 12:55:16 2021.
