 Gaussian 16, Revision A.03,
 Gaussian 16:  EM64L-G16RevA.03 25-Dec-2016

 -------------
 #p 6-31g* mp2
 -------------

 ------------------------------------------------------
 Input file generated by CHIRIPA (05-May-2021 14:51:08)
 ------------------------------------------------------
 Symbolic Z-matrix:
 Charge =  0 Multiplicity = 1

                         Standard orientation:
 ---------------------------------------------------------------------
 Center     Atomic      Atomic             Coordinates (Angstroms)
 Number     Number       Type             X           Y           Z
 ---------------------------------------------------------------------
      1          6           0       -2.388252   -0.542267    0.482391
      2          6           0       -3.268992    0.496469   -0.212814
      3          6           0       -3.840048    1.531496    0.756933
      4          1           0       -2.975474   -1.050528    1.259429
      5          1           0       -1.565259   -0.028630    0.998389
      6          1           0       -4.089293   -0.019080   -0.728498
      7          1           0       -2.679660    1.002183   -0.988416
      8          1           0       -3.033298    2.071839    1.262684
      9          1           0       -4.450940    1.044773    1.524079
     10          1           0       -4.466495    2.264319    0.238865
     11          6           0       -1.810007   -1.583801   -0.473939
     12          6           0       -0.929268   -2.622537    0.221266
     13          6           0       -0.358211   -3.657563   -0.748481
     14          1           0       -2.633000   -2.097438   -0.989938
     15          1           0       -1.222786   -1.075540   -1.250977
     16          1           0       -1.518599   -3.128251    0.996867
     17          1           0       -0.108967   -2.106987    0.736950
     18          1           0        0.252681   -3.170840   -1.515627
     19          1           0       -1.164961   -4.197906   -1.254233
     20          1           0        0.268236   -4.390387   -0.230413
     21          6           0        2.769048    0.719296    0.124169
     22          6           0        2.652622   -0.797518    0.278135
     23          6           0        4.001173   -1.470923    0.534520
     24          1           0        3.456634    0.945876   -0.702168
     25          1           0        3.222858    1.139288    1.032496
     26          1           0        2.197898   -1.214368   -0.629652
     27          1           0        1.965085   -1.020513    1.104078
     28          1           0        4.457589   -1.082738    1.450815
     29          1           0        4.691725   -1.277695   -0.292765
     30          1           0        3.894716   -2.554942    0.641433
     31          6           0        1.429211    1.406771   -0.132620
     32          6           0        1.545637    2.923585   -0.286587
     33          6           0        0.197088    3.596990   -0.542972
     34          1           0        0.975402    0.986779   -1.040948
     35          1           0        0.741625    1.180191    0.693717
     36          1           0        2.233174    3.146581   -1.112530
     37          1           0        2.000361    3.340436    0.621201
     38          1           0       -0.493465    3.403762    0.284314
     39          1           0       -0.259330    3.208806   -1.459266
     40          1           0        0.303544    4.681010   -0.649885
 ---------------------------------------------------------------------

 SCF Done:  E(RHF) =  -470.732730713     A.U. after   11 cycles
 E2 =    -0.1585507508D+01 EUMP2 =    -0.47231823822093D+03

 The electronic state is 1-A.
 Alpha  occ. eigenvalues --  -11.21696 -11.21680 -11.21527 -11.21515 -11.21450
 Alpha  occ. eigenvalues --  -11.21444 -11.21315 -11.21255 -11.21159 -11.21127
 Alpha  occ. eigenvalues --  -11.21030 -11.21012  -1.08552  -1.08325  -1.03637
 Alpha  occ. eigenvalues --   -1.03432  -0.96075  -0.95898  -0.87085  -0.86922
 Alpha  occ. eigenvalues --   -0.79739  -0.79475  -0.78417  -0.78115  -0.65186
 Alpha  occ. eigenvalues --   -0.64956  -0.61040  -0.60886  -0.59415  -0.59254
 Alpha  occ. eigenvalues --   -0.57716  -0.57504  -0.55371  -0.55175  -0.52755
 Alpha  occ. eigenvalues --   -0.52600  -0.52522  -0.52290  -0.50127  -0.49734
 Alpha  occ. eigenvalues --   -0.48220  -0.47663  -0.46905  -0.46417  -0.46265
 Alpha  occ. eigenvalues --   -0.45989  -0.45511  -0.45081  -0.43872  -0.43696
 Alpha virt. eigenvalues --    0.19519   0.21478   0.23542   0.23785   0.25179
 Alpha virt. eigenvalues --    0.25913   0.26424   0.27911   0.29260   0.29302
 Alpha virt. eigenvalues --    0.30696   0.31508   0.31699   0.31825   0.32088

 Mulliken charges:
               1
     1  C   -0.301586
     2  C   -0.300316
     3  C   -0.476496
     4  H    0.149058
     5  H    0.152635
     6  H    0.151566
     7  H    0.153260
     8  H    0.155278
     9  H    0.154836
    10  H    0.160405
    11  C   -0.298646
    12  C   -0.306591
    13  C   -0.475892
    14  H    0.148938
    15  H    0.150181
    16  H    0.150861
    17  H    0.160396
    18  H    0.154889
    19  H    0.154822
    20  H    0.159618
    21  C   -0.297761
    22  C   -0.305878
    23  C   -0.475329
    24  H    0.150035
    25  H    0.149808
    26  H    0.154829
    27  H    0.155334
    28  H    0.155254
    29  H    0.155353
    30  H    0.160968
    31  C   -0.304017
    32  C   -0.299621
    33  C   -0.477913
    34  H    0.150485
    35  H    0.153183
    36  H    0.152445
    37  H    0.152319
    38  H    0.156745
    39  H    0.155574
    40  H    0.160969
 Sum of Mulliken charges =  -0.00000

 Dipole moment (field-independent basis, Debye):
    X=              0.0747    Y=              0.0402    Z=              0.0049  Tot=              0.0850
 Quadrupole moment (field-independent basis, Debye-Ang):
   XX=            -85.1536   YY=            -85.5308   ZZ=            -84.1057
   XY=              1.3850   XZ=             -0.1246   YZ=             -0.3666

 Normal termination of Gaussian 16 at Thu May  6 11:34:00 2021.
