 Gaussian 16, Revision A.03,
 Gaussian 16:  EM64L-G16RevA.03 25-Dec-2016

 -------------
 #p 6-31g* mp2
 -------------

 ------------------------------------------------------
 Input file generated by CHIRIPA (05-May-2021 14:57:22)
 ------------------------------------------------------
 Symbolic Z-matrix:
 Charge =  0 Multiplicity = 1

                         Standard orientation:
 ---------------------------------------------------------------------
 Center     Atomic      Atomic             Coordinates (Angstroms)
 Number     Number       Type             X           Y           Z
 ---------------------------------------------------------------------
      1          6           0        1.668034    1.362178   -0.703155
      2          6           0        2.936539    1.716802   -1.173961
      3          6           0        4.056732    0.948012   -0.844299
      4          6           0        3.871236   -0.174032   -0.038136
      5          6           0        2.620368   -0.553232    0.446453
      6          6           0        1.514268    0.230288    0.104126
      7          1           0        0.803316    1.965114   -0.964164
      8          1           0        3.058943    2.595317   -1.801077
      9          1           0        5.050215    1.199715   -1.195093
     10          1           0        2.529824   -1.434520    1.069791
     11          1           0        0.530331   -0.047511    0.471195
     12          7           0        5.049674   -0.995713    0.317566
     13          8           0        4.859679   -1.979557    1.029318
     14          8           0        6.141015   -0.640344   -0.122122
     15          6           0       -2.404209    1.845441    1.313825
     16          6           0       -2.321649    1.748051   -0.079094
     17          6           0       -3.022575    0.750915   -0.763907
     18          6           0       -3.800065   -0.136069   -0.020901
     19          6           0       -3.902582   -0.064880    1.367520
     20          6           0       -3.193022    0.940261    2.031421
     21          1           0       -1.856360    2.623151    1.837681
     22          1           0       -1.709826    2.449651   -0.638982
     23          1           0       -2.976534    0.652714   -1.841709
     24          1           0       -4.520685   -0.778763    1.898310
     25          1           0       -3.259013    1.013505    3.113237
     26          7           0       -4.546675   -1.195930   -0.734813
     27          8           0       -5.224715   -1.965127   -0.057146
     28          8           0       -4.439688   -1.237382   -1.958525
 ---------------------------------------------------------------------

 SCF Done:  E(RHF) =  -868.337109335     A.U. after   16 cycles
 E2 =    -0.2600510690D+01 EUMP2 =    -0.87093762002531D+03

 The electronic state is 1-A.
 Alpha  occ. eigenvalues --  -20.61520 -20.61512 -20.61026 -20.61020 -15.86584
 Alpha  occ. eigenvalues --  -15.86080 -11.32166 -11.31533 -11.28837 -11.28741
 Alpha  occ. eigenvalues --  -11.28594 -11.28098 -11.28072 -11.27959 -11.27945
 Alpha  occ. eigenvalues --  -11.27759 -11.27184 -11.27100  -1.60591  -1.60098
 Alpha  occ. eigenvalues --   -1.40138  -1.39649  -1.20395  -1.19712  -1.09743
 Alpha  occ. eigenvalues --   -1.09113  -1.05831  -1.05114  -0.96525  -0.95935
 Alpha  occ. eigenvalues --   -0.87214  -0.86515  -0.83358  -0.82752  -0.78366
 Alpha  occ. eigenvalues --   -0.77764  -0.72794  -0.72297  -0.71922  -0.71461
 Alpha  occ. eigenvalues --   -0.71422  -0.70910  -0.66034  -0.65844  -0.65366
 Alpha  occ. eigenvalues --   -0.65110  -0.63157  -0.62451  -0.56313  -0.55714
 Alpha  occ. eigenvalues --   -0.54169  -0.53881  -0.53457  -0.53176  -0.49571
 Alpha  occ. eigenvalues --   -0.49535  -0.49063  -0.49047  -0.45494  -0.45035
 Alpha  occ. eigenvalues --   -0.38393  -0.37735  -0.37443  -0.36709
 Alpha virt. eigenvalues --    0.04184   0.04749   0.10078   0.10933   0.15561
 Alpha virt. eigenvalues --    0.16211   0.18740   0.21784   0.24711   0.26899
 Alpha virt. eigenvalues --    0.27393   0.28636   0.29665   0.31288   0.32113

 Mulliken charges:
               1
     1  C   -0.172810
     2  C   -0.218480
     3  C   -0.170812
     4  C    0.159415
     5  C   -0.170734
     6  C   -0.222505
     7  H    0.216161
     8  H    0.223264
     9  H    0.276613
    10  H    0.277055
    11  H    0.228482
    12  N    0.487897
    13  O   -0.459159
    14  O   -0.459565
    15  C   -0.173426
    16  C   -0.227099
    17  C   -0.171003
    18  C    0.158343
    19  C   -0.169353
    20  C   -0.219602
    21  H    0.229174
    22  H    0.219457
    23  H    0.278315
    24  H    0.279656
    25  H    0.228016
    26  N    0.488074
    27  O   -0.457168
    28  O   -0.458208
 Sum of Mulliken charges =  -0.00000

 Dipole moment (field-independent basis, Debye):
    X=             -1.7351    Y=              6.4705    Z=              1.3729  Tot=              6.8384
 Quadrupole moment (field-independent basis, Debye-Ang):
   XX=           -154.2887   YY=           -105.6076   ZZ=           -100.0860
   XY=              0.2038   XZ=            -18.2307   YZ=             -3.7377

 Normal termination of Gaussian 16 at Thu May  6 17:54:18 2021.
