 Gaussian 16, Revision A.03,
 Gaussian 16:  EM64L-G16RevA.03 25-Dec-2016

 -------------
 #p 6-31g* mp2
 -------------

 ------------------------------------------------------
 Input file generated by CHIRIPA (05-May-2021 14:57:25)
 ------------------------------------------------------
 Symbolic Z-matrix:
 Charge =  0 Multiplicity = 1

                         Standard orientation:
 ---------------------------------------------------------------------
 Center     Atomic      Atomic             Coordinates (Angstroms)
 Number     Number       Type             X           Y           Z
 ---------------------------------------------------------------------
      1          6           0       -3.317232   -2.360074    0.601438
      2          6           0       -2.335573   -1.865394   -0.263523
      3          6           0       -2.325863   -0.515978   -0.628939
      4          6           0       -3.317267    0.314334   -0.108372
      5          6           0       -4.308654   -0.148581    0.755428
      6          6           0       -4.298909   -1.501602    1.107261
      7          1           0       -3.317219   -3.409733    0.880027
      8          1           0       -1.571956   -2.529782   -0.657887
      9          1           0       -1.577662   -0.106589   -1.296782
     10          1           0       -5.056869    0.538084    1.132370
     11          1           0       -5.062512   -1.883007    1.779188
     12          7           0       -3.317285    1.744809   -0.488032
     13          8           0       -4.201685    2.455741   -0.015751
     14          8           0       -2.432899    2.127997   -1.250702
     15          6           0        4.192527    2.211112    0.643439
     16          6           0        5.084440    1.156594    0.422075
     17          6           0        4.610714   -0.116243    0.090380
     18          6           0        3.232646   -0.299933   -0.011978
     19          6           0        2.318735    0.730608    0.202593
     20          6           0        2.814950    1.995135    0.533186
     21          1           0        4.569264    3.196655    0.900678
     22          1           0        6.154798    1.321411    0.507006
     23          1           0        5.278900   -0.950353   -0.086268
     24          1           0        1.257161    0.535617    0.110632
     25          1           0        2.119941    2.812229    0.704547
     26          7           0        2.719230   -1.643029   -0.362544
     27          8           0        1.500582   -1.778948   -0.446561
     28          8           0        3.545184   -2.534397   -0.546663
 ---------------------------------------------------------------------

 SCF Done:  E(RHF) =  -868.340833742     A.U. after   16 cycles
 E2 =    -0.2598658543D+01 EUMP2 =    -0.87093949228549D+03

 The electronic state is 1-A.
 Alpha  occ. eigenvalues --  -20.61321 -20.61270 -20.60674 -20.60648 -15.86337
 Alpha  occ. eigenvalues --  -15.85701 -11.31369 -11.30795 -11.27905 -11.27874
 Alpha  occ. eigenvalues --  -11.27564 -11.27329 -11.27218 -11.26923 -11.26858
 Alpha  occ. eigenvalues --  -11.26777 -11.26323 -11.26049  -1.60360  -1.59745
 Alpha  occ. eigenvalues --   -1.39927  -1.39306  -1.19505  -1.18907  -1.08960
 Alpha  occ. eigenvalues --   -1.08351  -1.04851  -1.04231  -0.95854  -0.95240
 Alpha  occ. eigenvalues --   -0.86269  -0.85648  -0.82704  -0.82054  -0.77788
 Alpha  occ. eigenvalues --   -0.77139  -0.72583  -0.71924  -0.71660  -0.71068
 Alpha  occ. eigenvalues --   -0.70612  -0.70005  -0.65162  -0.64844  -0.64536
 Alpha  occ. eigenvalues --   -0.64183  -0.62204  -0.61554  -0.55367  -0.54745
 Alpha  occ. eigenvalues --   -0.53205  -0.52938  -0.52613  -0.52276  -0.49337
 Alpha  occ. eigenvalues --   -0.49280  -0.48697  -0.48650  -0.45404  -0.44773
 Alpha  occ. eigenvalues --   -0.37468  -0.36883  -0.36438  -0.35823
 Alpha virt. eigenvalues --    0.04724   0.05298   0.11213   0.11765   0.16297
 Alpha virt. eigenvalues --    0.16895   0.20947   0.22196   0.26140   0.27649
 Alpha virt. eigenvalues --    0.28507   0.29316   0.31012   0.31528   0.31930

 Mulliken charges:
               1
     1  C   -0.172463
     2  C   -0.217985
     3  C   -0.177883
     4  C    0.157607
     5  C   -0.173452
     6  C   -0.218251
     7  H    0.226682
     8  H    0.244507
     9  H    0.275654
    10  H    0.272825
    11  H    0.221577
    12  N    0.487877
    13  O   -0.461406
    14  O   -0.465731
    15  C   -0.170051
    16  C   -0.218673
    17  C   -0.170909
    18  C    0.157595
    19  C   -0.170836
    20  C   -0.218898
    21  H    0.227615
    22  H    0.223994
    23  H    0.274948
    24  H    0.274958
    25  H    0.230674
    26  N    0.492186
    27  O   -0.474426
    28  O   -0.457734
 Sum of Mulliken charges =  -0.00000

 Dipole moment (field-independent basis, Debye):
    X=              2.0714    Y=             -0.3986    Z=              2.5823  Tot=              3.3343
 Quadrupole moment (field-independent basis, Debye-Ang):
   XX=            -85.9544   YY=           -110.7483   ZZ=           -105.0370
   XY=             30.0355   XZ=             -3.1882   YZ=              1.3501

 Normal termination of Gaussian 16 at Fri May  7 03:29:08 2021.
