 Gaussian 16, Revision A.03,
 Gaussian 16:  EM64L-G16RevA.03 25-Dec-2016

 -------------
 #p 6-31g* mp2
 -------------

 ------------------------------------------------------
 Input file generated by CHIRIPA (05-May-2021 14:53:14)
 ------------------------------------------------------
 Symbolic Z-matrix:
 Charge =  0 Multiplicity = 1

                         Standard orientation:
 ---------------------------------------------------------------------
 Center     Atomic      Atomic             Coordinates (Angstroms)
 Number     Number       Type             X           Y           Z
 ---------------------------------------------------------------------
      1          6           0       -3.865538   -0.317750    0.360908
      2          6           0       -4.755134   -1.217648   -0.497456
      3          6           0       -4.937901   -2.612579    0.101340
      4          1           0       -2.884385   -0.795657    0.486960
      5          1           0       -4.302898   -0.232212    1.365296
      6          1           0       -4.316955   -1.300345   -1.500341
      7          1           0       -5.734219   -0.737454   -0.621639
      8          1           0       -5.396544   -2.548884    1.093404
      9          1           0       -3.971228   -3.114973    0.209709
     10          1           0       -5.577190   -3.239179   -0.528376
     11          6           0       -3.673363    1.080103   -0.224586
     12          6           0       -2.783767    1.980001    0.633778
     13          6           0       -2.601000    3.374932    0.034981
     14          1           0       -3.236003    0.994565   -1.228974
     15          1           0       -4.654516    1.558010   -0.350638
     16          1           0       -1.804682    1.499807    0.757960
     17          1           0       -3.221945    2.062698    1.636662
     18          1           0       -3.567673    3.877326   -0.073388
     19          1           0       -2.142356    3.311237   -0.957082
     20          1           0       -1.961711    4.001532    0.664697
     21          6           0        0.522629   -0.991353   -0.185865
     22          6           0        1.508403   -1.942055    0.098631
     23          6           0        2.853647   -1.569092    0.174566
     24          6           0        3.179058   -0.230744   -0.040430
     25          6           0        2.219936    0.739807   -0.325752
     26          6           0        0.880910    0.344189   -0.396777
     27          1           0       -0.519973   -1.289879   -0.242946
     28          1           0        1.233075   -2.979967    0.262878
     29          1           0        3.637120   -2.284495    0.393162
     30          1           0        2.525148    1.766931   -0.484745
     31          1           0        0.117476    1.084675   -0.617894
     32          7           0        4.599915    0.176088    0.037360
     33          8           0        4.860642    1.361521   -0.156049
     34          8           0        5.425954   -0.698175    0.290268
 ---------------------------------------------------------------------

 SCF Done:  E(RHF) =  -669.535122187     A.U. after   15 cycles
 E2 =    -0.2092431691D+01 EUMP2 =    -0.67162755387882D+03

 The electronic state is 1-A.
 Alpha  occ. eigenvalues --  -20.60760 -20.60755 -15.85813 -11.31188 -11.27759
 Alpha  occ. eigenvalues --  -11.27752 -11.27496 -11.26772 -11.26745 -11.22660
 Alpha  occ. eigenvalues --  -11.22582 -11.22524 -11.22449 -11.22030 -11.21956
 Alpha  occ. eigenvalues --   -1.59835  -1.39388  -1.19361  -1.09513  -1.08754
 Alpha  occ. eigenvalues --   -1.04769  -1.04534  -0.96980  -0.95589  -0.87988
 Alpha  occ. eigenvalues --   -0.86167  -0.82422  -0.80590  -0.79323  -0.77466
 Alpha  occ. eigenvalues --   -0.72032  -0.71158  -0.70493  -0.66243  -0.65010
 Alpha  occ. eigenvalues --   -0.64736  -0.62274  -0.61774  -0.60331  -0.58580
 Alpha  occ. eigenvalues --   -0.56336  -0.55238  -0.53632  -0.53383  -0.53093
 Alpha  occ. eigenvalues --   -0.52855  -0.50926  -0.48911  -0.48786  -0.48768
 Alpha  occ. eigenvalues --   -0.47632  -0.46847  -0.46785  -0.44801  -0.44792
 Alpha  occ. eigenvalues --   -0.37334  -0.36360
 Alpha virt. eigenvalues --    0.05062   0.11163   0.16517   0.17963   0.21928
 Alpha virt. eigenvalues --    0.23396   0.25044   0.25967   0.26815   0.28056
 Alpha virt. eigenvalues --    0.29648   0.30358   0.30889   0.31455   0.32060

 Mulliken charges:
               1
     1  C   -0.301986
     2  C   -0.300795
     3  C   -0.475146
     4  H    0.141924
     5  H    0.155134
     6  H    0.151396
     7  H    0.156214
     8  H    0.158108
     9  H    0.150515
    10  H    0.163883
    11  C   -0.299968
    12  C   -0.306290
    13  C   -0.478040
    14  H    0.146587
    15  H    0.155348
    16  H    0.147351
    17  H    0.158090
    18  H    0.160382
    19  H    0.152053
    20  H    0.164446
    21  C   -0.176433
    22  C   -0.219609
    23  C   -0.170621
    24  C    0.158574
    25  C   -0.171764
    26  C   -0.224367
    27  H    0.232624
    28  H    0.223784
    29  H    0.275643
    30  H    0.276023
    31  H    0.229655
    32  N    0.488014
    33  O   -0.460320
    34  O   -0.460411
 Sum of Mulliken charges =  -0.00000

 Dipole moment (field-independent basis, Debye):
    X=             -5.2496    Y=             -1.3662    Z=             -0.2286  Tot=              5.4292
 Quadrupole moment (field-independent basis, Debye-Ang):
   XX=           -124.8987   YY=            -90.2623   ZZ=            -95.1967
   XY=             -5.5426   XZ=             -0.8830   YZ=             -0.4187

 Normal termination of Gaussian 16 at Thu May  6 08:57:03 2021.
