 Gaussian 16, Revision A.03,
 Gaussian 16:  EM64L-G16RevA.03 25-Dec-2016

 -------------
 #p 6-31g* mp2
 -------------

 ------------------------------------------------------
 Input file generated by CHIRIPA (05-May-2021 14:57:26)
 ------------------------------------------------------
 Symbolic Z-matrix:
 Charge =  0 Multiplicity = 1

                         Standard orientation:
 ---------------------------------------------------------------------
 Center     Atomic      Atomic             Coordinates (Angstroms)
 Number     Number       Type             X           Y           Z
 ---------------------------------------------------------------------
      1          6           0        1.894767    2.139331    0.229194
      2          6           0        2.731239    1.692182    1.257248
      3          6           0        3.439530    0.494015    1.125841
      4          6           0        3.287160   -0.235159   -0.052453
      5          6           0        2.461490    0.183866   -1.094555
      6          6           0        1.762795    1.385075   -0.941362
      7          1           0        1.348277    3.071278    0.339736
      8          1           0        2.835661    2.275884    2.167431
      9          1           0        4.093917    0.124482    1.905996
     10          1           0        2.377748   -0.419739   -1.990137
     11          1           0        1.113895    1.729888   -1.741411
     12          7           0        4.031917   -1.505216   -0.203099
     13          8           0        3.880497   -2.129264   -1.251084
     14          8           0        4.752976   -1.852589    0.729662
     15          6           0       -4.624917   -1.981476    0.478787
     16          6           0       -3.927608   -1.373210    1.527736
     17          6           0       -3.115471   -0.260478    1.289388
     18          6           0       -3.023219    0.219898   -0.015992
     19          6           0       -3.705479   -0.364213   -1.082119
     20          6           0       -4.511827   -1.475927   -0.820501
     21          1           0       -5.253556   -2.845477    0.672980
     22          1           0       -4.013546   -1.763670    2.537787
     23          1           0       -2.564619    0.229760    2.082890
     24          1           0       -3.599907    0.047738   -2.078396
     25          1           0       -5.052211   -1.946287   -1.637074
     26          7           0       -2.166511    1.397359   -0.280637
     27          8           0       -2.102042    1.801389   -1.439620
     28          8           0       -1.575714    1.893927    0.675927
 ---------------------------------------------------------------------

 SCF Done:  E(RHF) =  -868.341029532     A.U. after   16 cycles
 E2 =    -0.2599340424D+01 EUMP2 =    -0.87094036995635D+03

 The electronic state is 1-A.
 Alpha  occ. eigenvalues --  -20.61775 -20.61741 -20.60090 -20.60084 -15.86751
 Alpha  occ. eigenvalues --  -15.85135 -11.31760 -11.30201 -11.28289 -11.28281
 Alpha  occ. eigenvalues --  -11.27956 -11.27218 -11.27207 -11.26803 -11.26734
 Alpha  occ. eigenvalues --  -11.26236 -11.25663 -11.25475  -1.60809  -1.59175
 Alpha  occ. eigenvalues --   -1.40372  -1.38737  -1.19897  -1.18335  -1.09361
 Alpha  occ. eigenvalues --   -1.07727  -1.05246  -1.03702  -0.96260  -0.94622
 Alpha  occ. eigenvalues --   -0.86662  -0.85077  -0.83108  -0.81484  -0.78192
 Alpha  occ. eigenvalues --   -0.76612  -0.73012  -0.72097  -0.71357  -0.71002
 Alpha  occ. eigenvalues --   -0.70500  -0.69321  -0.65555  -0.65249  -0.63956
 Alpha  occ. eigenvalues --   -0.63648  -0.62601  -0.61060  -0.55761  -0.54044
 Alpha  occ. eigenvalues --   -0.53592  -0.53335  -0.52053  -0.51759  -0.49769
 Alpha  occ. eigenvalues --   -0.49727  -0.48131  -0.48082  -0.45845  -0.44212
 Alpha  occ. eigenvalues --   -0.37856  -0.36830  -0.36164  -0.35342
 Alpha virt. eigenvalues --    0.04277   0.05949   0.10831   0.12335   0.15853
 Alpha virt. eigenvalues --    0.17561   0.20997   0.22717   0.26929   0.27848
 Alpha virt. eigenvalues --    0.28498   0.29617   0.30615   0.31964   0.32425

 Mulliken charges:
               1
     1  C   -0.157866
     2  C   -0.222565
     3  C   -0.173258
     4  C    0.156146
     5  C   -0.175141
     6  C   -0.226973
     7  H    0.237625
     8  H    0.219960
     9  H    0.270951
    10  H    0.271287
    11  H    0.236111
    12  N    0.488272
    13  O   -0.464086
    14  O   -0.464220
    15  C   -0.169185
    16  C   -0.218219
    17  C   -0.169398
    18  C    0.158394
    19  C   -0.170471
    20  C   -0.218251
    21  H    0.228330
    22  H    0.225737
    23  H    0.275395
    24  H    0.275173
    25  H    0.225623
    26  N    0.490216
    27  O   -0.466019
    28  O   -0.463568
 Sum of Mulliken charges =  -0.00000

 Dipole moment (field-independent basis, Debye):
    X=             -6.1662    Y=              0.4762    Z=              1.4866  Tot=              6.3607
 Quadrupole moment (field-independent basis, Debye-Ang):
   XX=           -104.7262   YY=           -109.5849   ZZ=            -96.3079
   XY=             28.8834   XZ=              2.3080   YZ=              0.6926

 Normal termination of Gaussian 16 at Thu May  6 16:27:04 2021.
