 Gaussian 16, Revision A.03,
 Gaussian 16:  EM64L-G16RevA.03 25-Dec-2016

 -------------
 #p 6-31g* mp2
 -------------

 ------------------------------------------------------
 Input file generated by CHIRIPA (05-May-2021 14:51:12)
 ------------------------------------------------------
 Symbolic Z-matrix:
 Charge =  0 Multiplicity = 1

                         Standard orientation:
 ---------------------------------------------------------------------
 Center     Atomic      Atomic             Coordinates (Angstroms)
 Number     Number       Type             X           Y           Z
 ---------------------------------------------------------------------
      1          6           0       -3.697184   -0.748338    0.384276
      2          6           0       -2.298953   -0.175594    0.149973
      3          6           0       -1.198148   -1.024095    0.787208
      4          1           0       -3.875915   -0.831847    1.465029
      5          1           0       -3.739959   -1.769410   -0.019428
      6          1           0       -2.259244    0.844601    0.552764
      7          1           0       -2.123603   -0.093260   -0.930346
      8          1           0       -1.208963   -2.039543    0.378123
      9          1           0       -1.345375   -1.096353    1.869661
     10          1           0       -0.206847   -0.596463    0.607451
     11          6           0       -4.808342    0.088840   -0.246746
     12          6           0       -6.206573   -0.483904   -0.012443
     13          6           0       -7.307378    0.364598   -0.649678
     14          1           0       -4.765567    1.109913    0.156958
     15          1           0       -4.629611    0.172349   -1.327499
     16          1           0       -6.381923   -0.566238    1.067876
     17          1           0       -6.246282   -1.504099   -0.415235
     18          1           0       -7.160151    0.436855   -1.732131
     19          1           0       -7.296563    1.380045   -0.240593
     20          1           0       -8.298679   -0.063035   -0.469921
     21          6           0        3.801598    0.841935    0.274087
     22          6           0        2.398375    0.913899   -0.329051
     23          6           0        1.507600    1.943038    0.367504
     24          1           0        3.722585    0.597458    1.342232
     25          1           0        4.270139    1.834050    0.214338
     26          1           0        1.933143   -0.078381   -0.269436
     27          1           0        2.480747    1.158045   -1.395926
     28          1           0        1.946481    2.943490    0.296237
     29          1           0        1.395766    1.700040    1.429128
     30          1           0        0.509209    1.977912   -0.079552
     31          6           0        4.703928   -0.182437   -0.411617
     32          6           0        6.107151   -0.254402    0.191521
     33          6           0        6.997926   -1.283540   -0.505033
     34          1           0        4.235387   -1.174553   -0.351867
     35          1           0        4.782941    0.062041   -1.479762
     36          1           0        6.024780   -0.498547    1.258397
     37          1           0        6.572383    0.737879    0.131906
     38          1           0        7.109760   -1.040542   -1.566657
     39          1           0        6.559046   -2.283993   -0.433767
     40          1           0        7.996317   -1.318413   -0.057978
 ---------------------------------------------------------------------

 SCF Done:  E(RHF) =  -470.733018518     A.U. after   11 cycles
 E2 =    -0.1583050478D+01 EUMP2 =    -0.47231606899615D+03

 The electronic state is 1-A.
 Alpha  occ. eigenvalues --  -11.21618 -11.21600 -11.21593 -11.21586 -11.21409
 Alpha  occ. eigenvalues --  -11.21392 -11.21349 -11.21333 -11.21073 -11.21068
 Alpha  occ. eigenvalues --  -11.21064 -11.20997  -1.08446  -1.08409  -1.03580
 Alpha  occ. eigenvalues --   -1.03477  -0.96045  -0.95905  -0.87019  -0.86962
 Alpha  occ. eigenvalues --   -0.79637  -0.79547  -0.78254  -0.78228  -0.65089
 Alpha  occ. eigenvalues --   -0.65045  -0.61046  -0.60906  -0.59587  -0.59116
 Alpha  occ. eigenvalues --   -0.57778  -0.57343  -0.55295  -0.55223  -0.52729
 Alpha  occ. eigenvalues --   -0.52593  -0.52441  -0.52304  -0.49948  -0.49880
 Alpha  occ. eigenvalues --   -0.47994  -0.47831  -0.46638  -0.46606  -0.45799
 Alpha  occ. eigenvalues --   -0.45769  -0.45710  -0.45696  -0.43820  -0.43701
 Alpha virt. eigenvalues --    0.21237   0.23059   0.23434   0.25330   0.26434
 Alpha virt. eigenvalues --    0.26577   0.26940   0.27353   0.27747   0.29167
 Alpha virt. eigenvalues --    0.30058   0.31051   0.31438   0.31624   0.32533

 Mulliken charges:
               1
     1  C   -0.298520
     2  C   -0.299557
     3  C   -0.486003
     4  H    0.149679
     5  H    0.149508
     6  H    0.152591
     7  H    0.151535
     8  H    0.154368
     9  H    0.154639
    10  H    0.172067
    11  C   -0.298284
    12  C   -0.299625
    13  C   -0.475700
    14  H    0.149546
    15  H    0.149570
    16  H    0.151936
    17  H    0.151902
    18  H    0.155154
    19  H    0.155195
    20  H    0.160222
    21  C   -0.297680
    22  C   -0.305831
    23  C   -0.479730
    24  H    0.149811
    25  H    0.149625
    26  H    0.155731
    27  H    0.152396
    28  H    0.155951
    29  H    0.155720
    30  H    0.163594
    31  C   -0.298490
    32  C   -0.299674
    33  C   -0.475729
    34  H    0.149852
    35  H    0.149629
    36  H    0.152029
    37  H    0.151906
    38  H    0.155151
    39  H    0.155257
    40  H    0.160259
 Sum of Mulliken charges =  -0.00000

 Dipole moment (field-independent basis, Debye):
    X=              0.0212    Y=              0.0142    Z=             -0.0014  Tot=              0.0255
 Quadrupole moment (field-independent basis, Debye-Ang):
   XX=            -86.1399   YY=            -84.7400   ZZ=            -83.9229
   XY=              1.1534   XZ=             -0.3377   YZ=             -0.0671

 Normal termination of Gaussian 16 at Thu May  6 00:45:55 2021.
