 Gaussian 16, Revision A.03,
 Gaussian 16:  EM64L-G16RevA.03 25-Dec-2016

 -------------
 #p 6-31g* mp2
 -------------

 ------------------------------------------------------
 Input file generated by CHIRIPA (05-May-2021 14:57:25)
 ------------------------------------------------------
 Symbolic Z-matrix:
 Charge =  0 Multiplicity = 1

                         Standard orientation:
 ---------------------------------------------------------------------
 Center     Atomic      Atomic             Coordinates (Angstroms)
 Number     Number       Type             X           Y           Z
 ---------------------------------------------------------------------
      1          6           0       -3.725246   -0.713696    0.361741
      2          6           0       -3.153303   -0.715018   -0.914739
      3          6           0       -2.091194    0.142100   -1.217759
      4          6           0       -1.623850    0.991244   -0.215844
      5          6           0       -2.172649    1.015954    1.065366
      6          6           0       -3.233959    0.150262    1.345984
      7          1           0       -4.550007   -1.382856    0.588434
      8          1           0       -3.532795   -1.384903   -1.681084
      9          1           0       -1.629849    0.161718   -2.197654
     10          1           0       -1.772779    1.695072    1.808549
     11          1           0       -3.676191    0.153452    2.338187
     12          7           0       -0.499866    1.903175   -0.524781
     13          8           0       -0.106350    2.641696    0.375424
     14          8           0       -0.033686    1.862157   -1.661280
     15          6           0        3.824416    0.666434    0.344423
     16          6           0        3.516219    0.051861   -0.873706
     17          6           0        2.402048   -0.785301   -0.984739
     18          6           0        1.614263   -0.986675    0.147575
     19          6           0        1.895211   -0.388678    1.375076
     20          6           0        3.014356    0.444593    1.462953
     21          1           0        4.691862    1.315250    0.421682
     22          1           0        4.143538    0.222328   -1.744027
     23          1           0        2.140410   -1.273714   -1.915553
     24          1           0        1.251063   -0.577758    2.225216
     25          1           0        3.251290    0.920554    2.410249
     26          7           0        0.432106   -1.870881    0.042286
     27          8           0       -0.246054   -2.032123    1.054578
     28          8           0        0.206078   -2.385938   -1.050538
 ---------------------------------------------------------------------

 SCF Done:  E(RHF) =  -868.338983205     A.U. after   16 cycles
 E2 =    -0.2605959171D+01 EUMP2 =    -0.87094494237518D+03

 The electronic state is 1-A.
 Alpha  occ. eigenvalues --  -20.60645 -20.60600 -20.60425 -20.60417 -15.85620
 Alpha  occ. eigenvalues --  -15.85445 -11.30593 -11.30361 -11.27177 -11.27125
 Alpha  occ. eigenvalues --  -11.26948 -11.26846 -11.26789 -11.26545 -11.26054
 Alpha  occ. eigenvalues --  -11.26016 -11.25841 -11.25737  -1.59690  -1.59497
 Alpha  occ. eigenvalues --   -1.39257  -1.39065  -1.18740  -1.18502  -1.08221
 Alpha  occ. eigenvalues --   -1.07968  -1.04075  -1.03832  -0.95118  -0.94891
 Alpha  occ. eigenvalues --   -0.85516  -0.85283  -0.81976  -0.81746  -0.77070
 Alpha  occ. eigenvalues --   -0.76843  -0.71895  -0.71692  -0.71410  -0.70503
 Alpha  occ. eigenvalues --   -0.69865  -0.69632  -0.64403  -0.64167  -0.64103
 Alpha  occ. eigenvalues --   -0.63865  -0.61467  -0.61222  -0.54617  -0.54380
 Alpha  occ. eigenvalues --   -0.52501  -0.52197  -0.52009  -0.51952  -0.48659
 Alpha  occ. eigenvalues --   -0.48582  -0.48461  -0.48394  -0.44827  -0.44544
 Alpha  occ. eigenvalues --   -0.36843  -0.36286  -0.35540  -0.35286
 Alpha virt. eigenvalues --    0.04921   0.06137   0.11831   0.12464   0.16800
 Alpha virt. eigenvalues --    0.17503   0.21967   0.22365   0.27804   0.28297
 Alpha virt. eigenvalues --    0.28651   0.29300   0.31417   0.31963   0.32591

 Mulliken charges:
               1
     1  C   -0.162086
     2  C   -0.205635
     3  C   -0.169263
     4  C    0.145056
     5  C   -0.168208
     6  C   -0.211460
     7  H    0.224349
     8  H    0.224573
     9  H    0.273916
    10  H    0.268131
    11  H    0.219464
    12  N    0.489739
    13  O   -0.465810
    14  O   -0.464134
    15  C   -0.165351
    16  C   -0.212983
    17  C   -0.160079
    18  C    0.145360
    19  C   -0.170447
    20  C   -0.210245
    21  H    0.225542
    22  H    0.223138
    23  H    0.272532
    24  H    0.270110
    25  H    0.222195
    26  N    0.489108
    27  O   -0.461700
    28  O   -0.465812
 Sum of Mulliken charges =  -0.00000

 Dipole moment (field-independent basis, Debye):
    X=              0.2240    Y=             -0.2068    Z=              1.3971  Tot=              1.4299
 Quadrupole moment (field-independent basis, Debye-Ang):
   XX=            -78.2353   YY=           -118.5151   ZZ=            -96.3713
   XY=              3.1627   XZ=             -1.0956   YZ=              4.7666

 Normal termination of Gaussian 16 at Fri May  7 11:12:57 2021.
