 Gaussian 16, Revision A.03,
 Gaussian 16:  EM64L-G16RevA.03 25-Dec-2016

 -------------
 #p 6-31g* mp2
 -------------

 ------------------------------------------------------
 Input file generated by CHIRIPA (05-May-2021 14:51:11)
 ------------------------------------------------------
 Symbolic Z-matrix:
 Charge =  0 Multiplicity = 1

                         Standard orientation:
 ---------------------------------------------------------------------
 Center     Atomic      Atomic             Coordinates (Angstroms)
 Number     Number       Type             X           Y           Z
 ---------------------------------------------------------------------
      1          6           0       -3.455098   -0.226573    0.132272
      2          6           0       -3.695606   -1.330613   -0.897891
      3          6           0       -4.185508   -2.633311   -0.264829
      4          1           0       -2.720295   -0.576271    0.870325
      5          1           0       -4.387105   -0.039657    0.683472
      6          1           0       -2.763787   -1.514429   -1.447928
      7          1           0       -4.429778   -0.978175   -1.633686
      8          1           0       -5.127951   -2.471906    0.268418
      9          1           0       -3.452494   -3.011206    0.455231
     10          1           0       -4.351031   -3.408842   -1.019159
     11          6           0       -2.965053    1.081937   -0.485291
     12          6           0       -2.724545    2.185977    0.544872
     13          6           0       -2.234642    3.488675   -0.088190
     14          1           0       -2.033046    0.895020   -1.036491
     15          1           0       -3.699855    1.431635   -1.223344
     16          1           0       -1.990372    1.833539    1.280667
     17          1           0       -3.656363    2.369792    1.094909
     18          1           0       -2.967657    3.866570   -0.808250
     19          1           0       -1.292200    3.327269   -0.621437
     20          1           0       -2.069120    4.264206    0.666140
     21          6           0        2.610543   -0.895505    0.104849
     22          6           0        1.455045   -0.548616    1.044250
     23          6           0        0.262998   -1.493467    0.889097
     24          1           0        2.251732   -0.868023   -0.933152
     25          1           0        2.932687   -1.928321    0.296967
     26          1           0        1.136090    0.483702    0.851368
     27          1           0        1.816696   -0.576738    2.080124
     28          1           0        0.559399   -2.525723    1.101686
     29          1           0       -0.125073   -1.459257   -0.134051
     30          1           0       -0.551526   -1.227311    1.569958
     31          6           0        3.809607    0.040141    0.248171
     32          6           0        4.965107   -0.306748   -0.691231
     33          6           0        6.157153    0.638104   -0.536078
     34          1           0        3.487464    1.072957    0.056051
     35          1           0        4.168418    0.012659    1.286170
     36          1           0        4.603456   -0.278625   -1.727105
     37          1           0        5.284061   -1.339066   -0.498349
     38          1           0        6.545225    0.603894    0.487070
     39          1           0        5.860751    1.670360   -0.748668
     40          1           0        6.971677    0.371947   -1.216940
 ---------------------------------------------------------------------

 SCF Done:  E(RHF) =  -470.733023238     A.U. after   11 cycles
 E2 =    -0.1583542266D+01 EUMP2 =    -0.47231656550405D+03

 The electronic state is 1-A.
 Alpha  occ. eigenvalues --  -11.21701 -11.21640 -11.21590 -11.21541 -11.21470
 Alpha  occ. eigenvalues --  -11.21406 -11.21351 -11.21248 -11.21184 -11.21100
 Alpha  occ. eigenvalues --  -11.21076 -11.21006  -1.08502  -1.08376  -1.03604
 Alpha  occ. eigenvalues --   -1.03488  -0.96066  -0.95926  -0.87089  -0.86942
 Alpha  occ. eigenvalues --   -0.79674  -0.79549  -0.78307  -0.78198  -0.65221
 Alpha  occ. eigenvalues --   -0.64956  -0.60996  -0.60885  -0.59440  -0.59299
 Alpha  occ. eigenvalues --   -0.57692  -0.57530  -0.55408  -0.55154  -0.52792
 Alpha  occ. eigenvalues --   -0.52638  -0.52490  -0.52332  -0.50042  -0.49820
 Alpha  occ. eigenvalues --   -0.47998  -0.47875  -0.46693  -0.46584  -0.45865
 Alpha  occ. eigenvalues --   -0.45773  -0.45713  -0.45647  -0.43795  -0.43730
 Alpha virt. eigenvalues --    0.19800   0.23039   0.23584   0.24737   0.25473
 Alpha virt. eigenvalues --    0.26143   0.27097   0.27622   0.27896   0.30021
 Alpha virt. eigenvalues --    0.30342   0.30994   0.31766   0.32000   0.32366

 Mulliken charges:
               1
     1  C   -0.303855
     2  C   -0.300047
     3  C   -0.476200
     4  H    0.157037
     5  H    0.148762
     6  H    0.152117
     7  H    0.151513
     8  H    0.154828
     9  H    0.156239
    10  H    0.159883
    11  C   -0.298335
    12  C   -0.300558
    13  C   -0.475556
    14  H    0.149187
    15  H    0.149463
    16  H    0.152286
    17  H    0.152026
    18  H    0.155296
    19  H    0.154496
    20  H    0.160248
    21  C   -0.298641
    22  C   -0.300425
    23  C   -0.481290
    24  H    0.149605
    25  H    0.149886
    26  H    0.152338
    27  H    0.152483
    28  H    0.155840
    29  H    0.157342
    30  H    0.163398
    31  C   -0.298373
    32  C   -0.299714
    33  C   -0.475755
    34  H    0.149650
    35  H    0.149838
    36  H    0.152013
    37  H    0.152022
    38  H    0.155252
    39  H    0.155298
    40  H    0.160405
 Sum of Mulliken charges =  -0.00000

 Dipole moment (field-independent basis, Debye):
    X=              0.0443    Y=             -0.0205    Z=              0.0212  Tot=              0.0532
 Quadrupole moment (field-independent basis, Debye-Ang):
   XX=            -84.7672   YY=            -85.7021   ZZ=            -84.3528
   XY=             -1.4842   XZ=              0.4773   YZ=             -0.1975

 Normal termination of Gaussian 16 at Thu May  6 02:17:13 2021.
