 Gaussian 16, Revision A.03,
 Gaussian 16:  EM64L-G16RevA.03 25-Dec-2016

 -------------
 #p 6-31g* mp2
 -------------

 ------------------------------------------------------
 Input file generated by CHIRIPA (05-May-2021 14:51:10)
 ------------------------------------------------------
 Symbolic Z-matrix:
 Charge =  0 Multiplicity = 1

                         Standard orientation:
 ---------------------------------------------------------------------
 Center     Atomic      Atomic             Coordinates (Angstroms)
 Number     Number       Type             X           Y           Z
 ---------------------------------------------------------------------
      1          6           0       -2.521073   -0.500957    0.977154
      2          6           0       -1.553362   -1.673981    1.136956
      3          6           0       -1.442926   -2.156362    2.583644
      4          1           0       -2.190845    0.328400    1.617514
      5          1           0       -3.513391   -0.801077    1.341335
      6          1           0       -0.563497   -1.372186    0.771301
      7          1           0       -1.885825   -2.500573    0.495996
      8          1           0       -2.418955   -2.483831    2.956111
      9          1           0       -1.089114   -1.349033    3.232980
     10          1           0       -0.746033   -2.995322    2.675006
     11          6           0       -2.642225   -0.007486   -0.463518
     12          6           0       -3.609936    1.165538   -0.623320
     13          6           0       -3.720373    1.647919   -2.070008
     14          1           0       -1.649907    0.292634   -0.827699
     15          1           0       -2.972453   -0.836843   -1.103878
     16          1           0       -3.277474    1.992130    0.017640
     17          1           0       -4.599801    0.863743   -0.257665
     18          1           0       -4.074184    0.840590   -2.719344
     19          1           0       -2.744344    1.975388   -2.442475
     20          1           0       -4.417265    2.486879   -2.161370
     21          6           0        2.927704   -0.391188   -0.473901
     22          6           0        2.069266   -1.259520   -1.394263
     23          6           0        2.775263   -2.547202   -1.819986
     24          1           0        3.867793   -0.143639   -0.985659
     25          1           0        3.200828   -0.972644    0.417563
     26          1           0        1.796689   -0.676144   -2.283078
     27          1           0        1.131029   -1.504872   -0.880328
     28          1           0        3.032981   -3.152619   -0.944970
     29          1           0        3.702424   -2.319183   -2.355691
     30          1           0        2.143713   -3.152791   -2.477456
     31          6           0        2.235594    0.899630   -0.039735
     32          6           0        3.094032    1.767963    0.880628
     33          6           0        2.388036    3.055644    1.306350
     34          1           0        1.962470    1.481087   -0.931198
     35          1           0        1.295505    0.652082    0.472024
     36          1           0        4.032270    2.013314    0.366692
     37          1           0        3.366609    1.184587    1.769442
     38          1           0        1.460874    2.827626    1.842055
     39          1           0        2.130317    3.661062    0.431335
     40          1           0        3.019585    3.661234    1.963820
 ---------------------------------------------------------------------

 SCF Done:  E(RHF) =  -470.733257785     A.U. after   11 cycles
 E2 =    -0.1583696857D+01 EUMP2 =    -0.47231695464202D+03

 The electronic state is 1-A.
 Alpha  occ. eigenvalues --  -11.21656 -11.21641 -11.21591 -11.21583 -11.21464
 Alpha  occ. eigenvalues --  -11.21418 -11.21391 -11.21345 -11.21126 -11.21124
 Alpha  occ. eigenvalues --  -11.21068 -11.21058  -1.08490  -1.08431  -1.03570
 Alpha  occ. eigenvalues --   -1.03539  -0.96012  -0.95994  -0.87030  -0.87009
 Alpha  occ. eigenvalues --   -0.79682  -0.79568  -0.78392  -0.78157  -0.65272
 Alpha  occ. eigenvalues --   -0.64929  -0.61037  -0.60877  -0.59408  -0.59333
 Alpha  occ. eigenvalues --   -0.57629  -0.57598  -0.55301  -0.55280  -0.52716
 Alpha  occ. eigenvalues --   -0.52680  -0.52443  -0.52413  -0.49979  -0.49925
 Alpha  occ. eigenvalues --   -0.48083  -0.47858  -0.46875  -0.46551  -0.46185
 Alpha  occ. eigenvalues --   -0.45779  -0.45757  -0.45150  -0.43819  -0.43794
 Alpha virt. eigenvalues --    0.19923   0.23321   0.23955   0.24338   0.25173
 Alpha virt. eigenvalues --    0.26817   0.26982   0.27794   0.27938   0.30302
 Alpha virt. eigenvalues --    0.30708   0.31589   0.31677   0.31922   0.32002

 Mulliken charges:
               1
     1  C   -0.297294
     2  C   -0.310874
     3  C   -0.475009
     4  H    0.149044
     5  H    0.149768
     6  H    0.161604
     7  H    0.152161
     8  H    0.155643
     9  H    0.154752
    10  H    0.160116
    11  C   -0.300678
    12  C   -0.299602
    13  C   -0.475701
    14  H    0.152208
    15  H    0.149506
    16  H    0.152076
    17  H    0.151826
    18  H    0.155099
    19  H    0.155369
    20  H    0.160189
    21  C   -0.297669
    22  C   -0.308546
    23  C   -0.475131
    24  H    0.149945
    25  H    0.149427
    26  H    0.151788
    27  H    0.160522
    28  H    0.155034
    29  H    0.155068
    30  H    0.160450
    31  C   -0.302765
    32  C   -0.299579
    33  C   -0.475677
    34  H    0.149539
    35  H    0.152258
    36  H    0.152401
    37  H    0.152214
    38  H    0.154662
    39  H    0.155248
    40  H    0.160606
 Sum of Mulliken charges =  -0.00000

 Dipole moment (field-independent basis, Debye):
    X=              0.0045    Y=             -0.0028    Z=             -0.0050  Tot=              0.0073
 Quadrupole moment (field-independent basis, Debye-Ang):
   XX=            -84.2038   YY=            -85.2530   ZZ=            -85.2596
   XY=              1.1896   XZ=             -0.2109   YZ=             -0.2098

 Normal termination of Gaussian 16 at Wed May  5 15:11:21 2021.
