 Gaussian 16, Revision A.03,
 Gaussian 16:  EM64L-G16RevA.03 25-Dec-2016

 -------------
 #p 6-31g* mp2
 -------------

 ------------------------------------------------------
 Input file generated by CHIRIPA (05-May-2021 14:57:25)
 ------------------------------------------------------
 Symbolic Z-matrix:
 Charge =  0 Multiplicity = 1

                         Standard orientation:
 ---------------------------------------------------------------------
 Center     Atomic      Atomic             Coordinates (Angstroms)
 Number     Number       Type             X           Y           Z
 ---------------------------------------------------------------------
      1          6           0       -5.306424    1.168903   -0.416065
      2          6           0       -4.171476    1.513604   -1.157411
      3          6           0       -2.963787    0.836701   -0.962896
      4          6           0       -2.926549   -0.184337   -0.014536
      5          6           0       -4.040114   -0.551007    0.739661
      6          6           0       -5.237243    0.139512    0.528440
      7          1           0       -6.240485    1.700026   -0.573658
      8          1           0       -4.222272    2.312620   -1.891604
      9          1           0       -2.069961    1.083055   -1.523078
     10          1           0       -3.958595   -1.351959    1.464402
     11          1           0       -6.117067   -0.130337    1.105620
     12          7           0       -1.653612   -0.908151    0.200231
     13          8           0       -1.646879   -1.803926    1.041764
     14          8           0       -0.686721   -0.565995   -0.477033
     15          6           0        3.645700    2.458204    0.665778
     16          6           0        4.199267    1.900116   -0.491210
     17          6           0        3.923927    0.575151   -0.842213
     18          6           0        3.087101   -0.166319   -0.009606
     19          6           0        2.520389    0.361316    1.149589
     20          6           0        2.809501    1.688379    1.481048
     21          1           0        3.864940    3.488283    0.930854
     22          1           0        4.849013    2.495611   -1.126240
     23          1           0        4.339088    0.118038   -1.732217
     24          1           0        1.876298   -0.257179    1.762800
     25          1           0        2.378189    2.119170    2.380177
     26          7           0        2.788321   -1.570111   -0.370851
     27          8           0        2.048031   -2.202344    0.379409
     28          8           0        3.300084   -2.011589   -1.397415
 ---------------------------------------------------------------------

 SCF Done:  E(RHF) =  -868.336554797     A.U. after   16 cycles
 E2 =    -0.2601093003D+01 EUMP2 =    -0.87093764780054D+03

 The electronic state is 1-A.
 Alpha  occ. eigenvalues --  -20.60538 -20.60516 -20.59242 -20.59081 -15.85591
 Alpha  occ. eigenvalues --  -15.84216 -11.31099 -11.29937 -11.27688 -11.27674
 Alpha  occ. eigenvalues --  -11.27451 -11.26733 -11.26718 -11.26637 -11.26519
 Alpha  occ. eigenvalues --  -11.26486 -11.25752 -11.25701  -1.59586  -1.58213
 Alpha  occ. eigenvalues --   -1.39144  -1.37760  -1.19283  -1.18176  -1.08648
 Alpha  occ. eigenvalues --   -1.07517  -1.04707  -1.03653  -0.95459  -0.94289
 Alpha  occ. eigenvalues --   -0.86097  -0.85032  -0.82294  -0.81136  -0.77315
 Alpha  occ. eigenvalues --   -0.76092  -0.71823  -0.70939  -0.70470  -0.70384
 Alpha  occ. eigenvalues --   -0.69485  -0.69323  -0.64933  -0.64706  -0.63841
 Alpha  occ. eigenvalues --   -0.63693  -0.62051  -0.60996  -0.55198  -0.54195
 Alpha  occ. eigenvalues --   -0.53032  -0.52799  -0.51950  -0.51770  -0.48591
 Alpha  occ. eigenvalues --   -0.48511  -0.47264  -0.47157  -0.44526  -0.43030
 Alpha  occ. eigenvalues --   -0.37277  -0.36319  -0.36188  -0.35262
 Alpha virt. eigenvalues --    0.05203   0.06489   0.11333   0.12388   0.16685
 Alpha virt. eigenvalues --    0.17871   0.21463   0.22349   0.27362   0.28214
 Alpha virt. eigenvalues --    0.28372   0.29306   0.31003   0.31842   0.32604

 Mulliken charges:
               1
     1  C   -0.171294
     2  C   -0.218631
     3  C   -0.171526
     4  C    0.158172
     5  C   -0.171385
     6  C   -0.218590
     7  H    0.225002
     8  H    0.222580
     9  H    0.275171
    10  H    0.276286
    11  H    0.223243
    12  N    0.487385
    13  O   -0.453574
    14  O   -0.461424
    15  C   -0.172725
    16  C   -0.219941
    17  C   -0.172375
    18  C    0.164110
    19  C   -0.162791
    20  C   -0.221543
    21  H    0.219693
    22  H    0.218056
    23  H    0.272578
    24  H    0.280933
    25  H    0.218124
    26  N    0.490438
    27  O   -0.444789
    28  O   -0.471183
 Sum of Mulliken charges =  -0.00000

 Dipole moment (field-independent basis, Debye):
    X=             -3.7504    Y=              7.1349    Z=              0.6103  Tot=              8.0836
 Quadrupole moment (field-independent basis, Debye-Ang):
   XX=            -72.2425   YY=           -107.3198   ZZ=           -100.0247
   XY=              9.6953   XZ=              1.9222   YZ=             -3.2413

 Normal termination of Gaussian 16 at Thu May  6 03:31:20 2021.
