 Gaussian 16, Revision A.03,
 Gaussian 16:  EM64L-G16RevA.03 25-Dec-2016

 -------------
 #p 6-31g* mp2
 -------------

 ------------------------------------------------------
 Input file generated by CHIRIPA (05-May-2021 14:53:13)
 ------------------------------------------------------
 Symbolic Z-matrix:
 Charge =  0 Multiplicity = 1

                         Standard orientation:
 ---------------------------------------------------------------------
 Center     Atomic      Atomic             Coordinates (Angstroms)
 Number     Number       Type             X           Y           Z
 ---------------------------------------------------------------------
      1          6           0        4.314523   -0.028333   -0.586023
      2          6           0        4.592902   -1.367991    0.096478
      3          6           0        5.666612   -2.185677   -0.622084
      4          1           0        4.005200   -0.210331   -1.624359
      5          1           0        5.246810    0.551213   -0.634623
      6          1           0        3.660074   -1.944265    0.145016
      7          1           0        4.901413   -1.182792    1.133366
      8          1           0        6.611447   -1.633775   -0.658022
      9          1           0        5.363055   -2.399575   -1.651988
     10          1           0        5.849785   -3.139386   -0.117360
     11          6           0        3.243409    0.800564    0.120640
     12          6           0        2.965030    2.140222   -0.561861
     13          6           0        1.891321    2.957908    0.156701
     14          1           0        2.311122    0.221018    0.169239
     15          1           0        3.552732    0.982562    1.158976
     16          1           0        2.656519    1.955023   -1.598750
     17          1           0        3.897858    2.716496   -0.610399
     18          1           0        2.194877    3.171806    1.186605
     19          1           0        0.946485    2.406006    0.192638
     20          1           0        1.708148    3.911617   -0.348024
     21          6           0       -0.794028   -0.559030    1.462988
     22          6           0       -1.459716   -1.689891    0.978703
     23          6           0       -2.656255   -1.559196    0.267533
     24          6           0       -3.160973   -0.276771    0.057929
     25          6           0       -2.521140    0.869166    0.527750
     26          6           0       -1.325927    0.714645    1.236365
     27          1           0        0.134957   -0.669812    2.014450
     28          1           0       -1.048969   -2.680286    1.153204
     29          1           0       -3.192263   -2.417702   -0.118577
     30          1           0       -2.955177    1.843351    0.338025
     31          1           0       -0.811110    1.594666    1.611295
     32          7           0       -4.426993   -0.125798   -0.693603
     33          8           0       -4.850894    1.015074   -0.864947
     34          8           0       -4.971426   -1.151193   -1.097078
 ---------------------------------------------------------------------

 SCF Done:  E(RHF) =  -669.535587599     A.U. after   15 cycles
 E2 =    -0.2092012344D+01 EUMP2 =    -0.67162759994327D+03

 The electronic state is 1-A.
 Alpha  occ. eigenvalues --  -20.60788 -20.60783 -15.85841 -11.31226 -11.27798
 Alpha  occ. eigenvalues --  -11.27788 -11.27528 -11.26810 -11.26772 -11.22299
 Alpha  occ. eigenvalues --  -11.22272 -11.22167 -11.22013 -11.21882 -11.21606
 Alpha  occ. eigenvalues --   -1.59863  -1.39416  -1.19400  -1.09132  -1.08788
 Alpha  occ. eigenvalues --   -1.04805  -1.04214  -0.96676  -0.95619  -0.87700
 Alpha  occ. eigenvalues --   -0.86197  -0.82449  -0.80292  -0.78964  -0.77496
 Alpha  occ. eigenvalues --   -0.72059  -0.71186  -0.70492  -0.65766  -0.65047
 Alpha  occ. eigenvalues --   -0.64814  -0.62191  -0.61574  -0.60032  -0.58290
 Alpha  occ. eigenvalues --   -0.55995  -0.55272  -0.53350  -0.53253  -0.53106
 Alpha  occ. eigenvalues --   -0.52769  -0.50596  -0.48827  -0.48813  -0.48586
 Alpha  occ. eigenvalues --   -0.47306  -0.46498  -0.46411  -0.44817  -0.44470
 Alpha  occ. eigenvalues --   -0.37357  -0.36389
 Alpha virt. eigenvalues --    0.05006   0.11111   0.16376   0.20536   0.22469
 Alpha virt. eigenvalues --    0.23769   0.25656   0.25986   0.26383   0.28323
 Alpha virt. eigenvalues --    0.29247   0.30378   0.30936   0.31339   0.31620

 Mulliken charges:
               1
     1  C   -0.298455
     2  C   -0.299621
     3  C   -0.476034
     4  H    0.152502
     5  H    0.151855
     6  H    0.148077
     7  H    0.151261
     8  H    0.156897
     9  H    0.156898
    10  H    0.160870
    11  C   -0.302031
    12  C   -0.298623
    13  C   -0.483699
    14  H    0.146864
    15  H    0.147414
    16  H    0.156089
    17  H    0.154713
    18  H    0.152928
    19  H    0.153707
    20  H    0.165016
    21  C   -0.172644
    22  C   -0.219296
    23  C   -0.170599
    24  C    0.158690
    25  C   -0.172406
    26  C   -0.219797
    27  H    0.228214
    28  H    0.223691
    29  H    0.275781
    30  H    0.276182
    31  H    0.227998
    32  N    0.488081
    33  O   -0.460151
    34  O   -0.460371
 Sum of Mulliken charges =  -0.00000

 Dipole moment (field-independent basis, Debye):
    X=              4.5524    Y=             -0.5301    Z=              2.5705  Tot=              5.2548
 Quadrupole moment (field-independent basis, Debye-Ang):
   XX=           -123.2030   YY=            -89.7127   ZZ=            -94.9742
   XY=              1.6374   XZ=             -7.7177   YZ=             -0.3082

 Normal termination of Gaussian 16 at Wed May  5 15:32:54 2021.
