 Gaussian 16, Revision A.03,
 Gaussian 16:  EM64L-G16RevA.03 25-Dec-2016

 -------------
 #p 6-31g* mp2
 -------------

 ------------------------------------------------------
 Input file generated by CHIRIPA (05-May-2021 14:55:19)
 ------------------------------------------------------
 Symbolic Z-matrix:
 Charge =  0 Multiplicity = 1

                         Standard orientation:
 ---------------------------------------------------------------------
 Center     Atomic      Atomic             Coordinates (Angstroms)
 Number     Number       Type             X           Y           Z
 ---------------------------------------------------------------------
      1          6           0        1.079882    1.509889    1.988675
      2          6           0        1.661830    1.965715    0.801207
      3          6           0        2.127504    1.058500   -0.155170
      4          6           0        1.994697   -0.303661    0.109728
      5          6           0        1.419525   -0.788868    1.283202
      6          6           0        0.960797    0.136473    2.225465
      7          1           0        0.720833    2.221676    2.726129
      8          1           0        1.755623    3.031754    0.614632
      9          1           0        2.582120    1.383982   -1.082965
     10          1           0        1.339827   -1.857597    1.440948
     11          1           0        0.509278   -0.220400    3.146777
     12          7           0        2.484008   -1.273683   -0.895275
     13          8           0        2.355354   -2.468641   -0.638057
     14          8           0        2.986920   -0.820662   -1.921183
     15          6           0       -1.888196    0.688059   -0.469930
     16          6           0       -2.392534    2.080479   -0.850453
     17          6           0       -1.256865    3.077647   -1.082195
     18          1           0       -1.273317    0.763041    0.437399
     19          1           0       -1.227905    0.314915   -1.265024
     20          1           0       -3.052778    2.450311   -0.055521
     21          1           0       -3.006441    2.002145   -1.756873
     22          1           0       -0.601741    2.734607   -1.889496
     23          1           0       -0.648341    3.185318   -0.178477
     24          1           0       -1.639874    4.066472   -1.353100
     25          6           0       -3.011777   -0.319959   -0.235002
     26          6           0       -2.507440   -1.712378    0.145521
     27          6           0       -3.643108   -2.709548    0.377263
     28          1           0       -3.672069    0.053185    0.560091
     29          1           0       -3.626657   -0.394942   -1.142331
     30          1           0       -1.893532   -1.634045    1.051941
     31          1           0       -1.847196   -2.082211   -0.649412
     32          1           0       -4.251633   -2.817219   -0.526455
     33          1           0       -4.298233   -2.366507    1.184564
     34          1           0       -3.260100   -3.698373    0.648167
 ---------------------------------------------------------------------

 SCF Done:  E(RHF) =  -669.533257974     A.U. after   15 cycles
 E2 =    -0.2096858234D+01 EUMP2 =    -0.67163011620856D+03

 The electronic state is 1-A.
 Alpha  occ. eigenvalues --  -20.60845 -20.60840 -15.85897 -11.31291 -11.27845
 Alpha  occ. eigenvalues --  -11.27838 -11.27574 -11.26878 -11.26852 -11.21796
 Alpha  occ. eigenvalues --  -11.21663 -11.21438 -11.21398 -11.21282 -11.21116
 Alpha  occ. eigenvalues --   -1.59919  -1.39471  -1.19473  -1.08880  -1.08504
 Alpha  occ. eigenvalues --   -1.04880  -1.03671  -0.96126  -0.95689  -0.87168
 Alpha  occ. eigenvalues --   -0.86264  -0.82516  -0.79751  -0.78339  -0.77556
 Alpha  occ. eigenvalues --   -0.72116  -0.71238  -0.70569  -0.65207  -0.65107
 Alpha  occ. eigenvalues --   -0.64881  -0.62234  -0.61087  -0.59500  -0.57743
 Alpha  occ. eigenvalues --   -0.55462  -0.55352  -0.53423  -0.53005  -0.52777
 Alpha  occ. eigenvalues --   -0.52524  -0.50090  -0.48877  -0.48868  -0.48041
 Alpha  occ. eigenvalues --   -0.46789  -0.45827  -0.45649  -0.44868  -0.43889
 Alpha  occ. eigenvalues --   -0.37352  -0.36373
 Alpha virt. eigenvalues --    0.04929   0.11041   0.16344   0.20781   0.22979
 Alpha virt. eigenvalues --    0.23883   0.26293   0.26574   0.27528   0.27921
 Alpha virt. eigenvalues --    0.28545   0.30581   0.31068   0.31789   0.32297

 Mulliken charges:
               1
     1  C   -0.174560
     2  C   -0.212702
     3  C   -0.170590
     4  C    0.160803
     5  C   -0.167370
     6  C   -0.219623
     7  H    0.226125
     8  H    0.225626
     9  H    0.276058
    10  H    0.276439
    11  H    0.224045
    12  N    0.487512
    13  O   -0.459918
    14  O   -0.460303
    15  C   -0.306814
    16  C   -0.298531
    17  C   -0.476008
    18  H    0.158263
    19  H    0.150344
    20  H    0.148727
    21  H    0.153518
    22  H    0.155251
    23  H    0.148457
    24  H    0.158871
    25  C   -0.297604
    26  C   -0.300181
    27  C   -0.475818
    28  H    0.145973
    29  H    0.150653
    30  H    0.144078
    31  H    0.158170
    32  H    0.157026
    33  H    0.152774
    34  H    0.161309
 Sum of Mulliken charges =  -0.00000

 Dipole moment (field-independent basis, Debye):
    X=             -1.5657    Y=              3.3434    Z=              3.5258  Tot=              5.1050
 Quadrupole moment (field-independent basis, Debye-Ang):
   XX=           -102.7167   YY=            -95.1585   ZZ=            -91.7393
   XY=              8.2969   XZ=              6.2061   YZ=             -2.6208

 Normal termination of Gaussian 16 at Thu May  6 14:04:11 2021.
