 Gaussian 16, Revision A.03,
 Gaussian 16:  EM64L-G16RevA.03 25-Dec-2016

 -------------
 #p 6-31g* mp2
 -------------

 ------------------------------------------------------
 Input file generated by CHIRIPA (05-May-2021 14:55:19)
 ------------------------------------------------------
 Symbolic Z-matrix:
 Charge =  0 Multiplicity = 1

                         Standard orientation:
 ---------------------------------------------------------------------
 Center     Atomic      Atomic             Coordinates (Angstroms)
 Number     Number       Type             X           Y           Z
 ---------------------------------------------------------------------
      1          6           0       -4.194276    1.596417   -0.534211
      2          6           0       -2.804848    1.738874   -0.458610
      3          6           0       -1.993010    0.638272   -0.168538
      4          6           0       -2.606815   -0.595627    0.041289
      5          6           0       -3.988247   -0.769549   -0.027171
      6          6           0       -4.780508    0.344867   -0.318630
      7          1           0       -4.817328    2.456756   -0.760085
      8          1           0       -2.346823    2.709637   -0.625575
      9          1           0       -0.914811    0.720331   -0.103955
     10          1           0       -4.415856   -1.749974    0.144103
     11          1           0       -5.859289    0.231274   -0.376707
     12          7           0       -1.757721   -1.768097    0.349109
     13          8           0       -2.322944   -2.844424    0.529885
     14          8           0       -0.543056   -1.588551    0.403775
     15          6           0        3.441040    1.267909   -0.093042
     16          6           0        2.271217    1.875114    0.682071
     17          6           0        2.134539    3.381925    0.461544
     18          1           0        4.371203    1.769684    0.206897
     19          1           0        3.307260    1.471973   -1.164422
     20          1           0        2.406453    1.668769    1.751533
     21          1           0        1.343756    1.371704    0.380393
     22          1           0        1.975006    3.603184   -0.598736
     23          1           0        3.043743    3.901937    0.780194
     24          1           0        1.292149    3.795333    1.024869
     25          6           0        3.590655   -0.237791    0.117219
     26          6           0        4.760477   -0.844997   -0.657895
     27          6           0        4.897156   -2.351808   -0.437368
     28          1           0        3.724435   -0.441856    1.188599
     29          1           0        2.660492   -0.739567   -0.182721
     30          1           0        5.687939   -0.341587   -0.356217
     31          1           0        4.625241   -0.638652   -1.727357
     32          1           0        3.987952   -2.871820   -0.756018
     33          1           0        5.056688   -2.573066    0.622912
     34          1           0        5.739545   -2.765215   -1.000692
 ---------------------------------------------------------------------

 SCF Done:  E(RHF) =  -669.535756897     A.U. after   15 cycles
 E2 =    -0.2091688354D+01 EUMP2 =    -0.67162744525146D+03

 The electronic state is 1-A.
 Alpha  occ. eigenvalues --  -20.60838 -20.60832 -15.85886 -11.31219 -11.27788
 Alpha  occ. eigenvalues --  -11.27776 -11.27528 -11.26800 -11.26786 -11.21657
 Alpha  occ. eigenvalues --  -11.21318 -11.21155 -11.21058 -11.20719 -11.20413
 Alpha  occ. eigenvalues --   -1.59907  -1.39462  -1.19392  -1.08793  -1.08102
 Alpha  occ. eigenvalues --   -1.04792  -1.03272  -0.95705  -0.95633  -0.86723
 Alpha  occ. eigenvalues --   -0.86193  -0.82464  -0.79370  -0.77844  -0.77495
 Alpha  occ. eigenvalues --   -0.72104  -0.71226  -0.70511  -0.65046  -0.64873
 Alpha  occ. eigenvalues --   -0.64677  -0.62164  -0.60662  -0.59123  -0.57297
 Alpha  occ. eigenvalues --   -0.55301  -0.54984  -0.53123  -0.52901  -0.52450
 Alpha  occ. eigenvalues --   -0.52107  -0.49638  -0.48867  -0.48856  -0.47658
 Alpha  occ. eigenvalues --   -0.46408  -0.45378  -0.45250  -0.44870  -0.43485
 Alpha  occ. eigenvalues --   -0.37374  -0.36393
 Alpha virt. eigenvalues --    0.05014   0.11257   0.16512   0.19990   0.23134
 Alpha virt. eigenvalues --    0.24313   0.25567   0.27359   0.27468   0.28352
 Alpha virt. eigenvalues --    0.29521   0.30800   0.31513   0.31882   0.31934

 Mulliken charges:
               1
     1  C   -0.170340
     2  C   -0.224021
     3  C   -0.180258
     4  C    0.155978
     5  C   -0.169516
     6  C   -0.219212
     7  H    0.225824
     8  H    0.224554
     9  H    0.293384
    10  H    0.275720
    11  H    0.223571
    12  N    0.487793
    13  O   -0.459632
    14  O   -0.463633
    15  C   -0.297249
    16  C   -0.306700
    17  C   -0.476552
    18  H    0.148673
    19  H    0.146890
    20  H    0.156575
    21  H    0.152251
    22  H    0.152088
    23  H    0.158403
    24  H    0.155340
    25  C   -0.303787
    26  C   -0.299502
    27  C   -0.476147
    28  H    0.150374
    29  H    0.166640
    30  H    0.148689
    31  H    0.149590
    32  H    0.161552
    33  H    0.155446
    34  H    0.157211
 Sum of Mulliken charges =  -0.00000

 Dipole moment (field-independent basis, Debye):
    X=             -3.0210    Y=              3.9963    Z=             -1.0416  Tot=              5.1168
 Quadrupole moment (field-independent basis, Debye-Ang):
   XX=            -75.8431   YY=            -99.8292   ZZ=            -95.1218
   XY=             -6.2814   XZ=              3.2055   YZ=              0.8090

 Normal termination of Gaussian 16 at Thu May  6 04:30:52 2021.
