 Gaussian 16, Revision A.03,
 Gaussian 16:  EM64L-G16RevA.03 25-Dec-2016

 -------------
 #p 6-31g* mp2
 -------------

 ------------------------------------------------------
 Input file generated by CHIRIPA (05-May-2021 14:55:22)
 ------------------------------------------------------
 Symbolic Z-matrix:
 Charge =  0 Multiplicity = 1

                         Standard orientation:
 ---------------------------------------------------------------------
 Center     Atomic      Atomic             Coordinates (Angstroms)
 Number     Number       Type             X           Y           Z
 ---------------------------------------------------------------------
      1          6           0        0.334508   -1.753855    2.077911
      2          6           0        0.264194   -2.361348    0.819925
      3          6           0        0.949897   -1.817696   -0.270398
      4          6           0        1.699842   -0.660490   -0.066082
      5          6           0        1.789572   -0.031987    1.174976
      6          6           0        1.095631   -0.593160    2.251116
      7          1           0       -0.201362   -2.182982    2.919392
      8          1           0       -0.326128   -3.262831    0.682475
      9          1           0        0.912822   -2.267488   -1.255147
     10          1           0        2.386201    0.865899    1.281052
     11          1           0        1.152057   -0.119223    3.226947
     12          7           0        2.430126   -0.075676   -1.212850
     13          8           0        3.083934    0.944464   -1.006726
     14          8           0        2.334886   -0.648512   -2.296098
     15          6           0       -2.386267    0.553941   -0.685015
     16          6           0       -3.184554   -0.609768   -0.096370
     17          6           0       -3.908220   -1.430346   -1.164430
     18          1           0       -3.064525    1.205405   -1.252912
     19          1           0       -1.654930    0.160843   -1.404747
     20          1           0       -3.913228   -0.214717    0.623065
     21          1           0       -2.504351   -1.258434    0.470351
     22          1           0       -3.192132   -1.851775   -1.877323
     23          1           0       -4.609015   -0.802128   -1.723742
     24          1           0       -4.472599   -2.256965   -0.721670
     25          6           0       -1.657209    1.383656    0.370340
     26          6           0       -0.858921    2.547366   -0.218306
     27          6           0       -0.135255    3.367944    0.849755
     28          1           0       -2.388547    1.776754    1.090073
     29          1           0       -0.978951    0.732193    0.938236
     30          1           0       -1.539125    3.196031   -0.785026
     31          1           0       -0.130248    2.152315   -0.937739
     32          1           0        0.565539    2.739727    1.409068
     33          1           0       -0.851342    3.789373    1.562648
     34          1           0        0.429125    4.194564    0.406996
 ---------------------------------------------------------------------

 SCF Done:  E(RHF) =  -669.533519534     A.U. after   15 cycles
 E2 =    -0.2098394514D+01 EUMP2 =    -0.67163191404801D+03

 The electronic state is 1-A.
 Alpha  occ. eigenvalues --  -20.60968 -20.60954 -15.86012 -11.31429 -11.28013
 Alpha  occ. eigenvalues --  -11.27955 -11.27715 -11.27021 -11.26963 -11.21732
 Alpha  occ. eigenvalues --  -11.21448 -11.21347 -11.21315 -11.21137 -11.21068
 Alpha  occ. eigenvalues --   -1.60035  -1.39585  -1.19629  -1.08995  -1.08403
 Alpha  occ. eigenvalues --   -1.05035  -1.03563  -0.96023  -0.95814  -0.87051
 Alpha  occ. eigenvalues --   -0.86400  -0.82640  -0.79639  -0.78221  -0.77685
 Alpha  occ. eigenvalues --   -0.72225  -0.71375  -0.70696  -0.65254  -0.65128
 Alpha  occ. eigenvalues --   -0.65004  -0.62393  -0.60978  -0.59389  -0.57629
 Alpha  occ. eigenvalues --   -0.55547  -0.55342  -0.53383  -0.53087  -0.52711
 Alpha  occ. eigenvalues --   -0.52429  -0.49995  -0.48990  -0.48980  -0.47980
 Alpha  occ. eigenvalues --   -0.46709  -0.45719  -0.45572  -0.44961  -0.43774
 Alpha  occ. eigenvalues --   -0.37526  -0.36492
 Alpha virt. eigenvalues --    0.04804   0.10863   0.16234   0.20620   0.23007
 Alpha virt. eigenvalues --    0.23597   0.26448   0.26619   0.27609   0.27902
 Alpha virt. eigenvalues --    0.28630   0.30629   0.31269   0.31763   0.31882

 Mulliken charges:
               1
     1  C   -0.169601
     2  C   -0.216217
     3  C   -0.171793
     4  C    0.161006
     5  C   -0.171485
     6  C   -0.220987
     7  H    0.227704
     8  H    0.225900
     9  H    0.276833
    10  H    0.277728
    11  H    0.225628
    12  N    0.488250
    13  O   -0.459065
    14  O   -0.459566
    15  C   -0.296586
    16  C   -0.302973
    17  C   -0.475616
    18  H    0.149997
    19  H    0.149875
    20  H    0.150279
    21  H    0.148382
    22  H    0.153428
    23  H    0.157996
    24  H    0.156956
    25  C   -0.308972
    26  C   -0.301126
    27  C   -0.473656
    28  H    0.144918
    29  H    0.161058
    30  H    0.153009
    31  H    0.155731
    32  H    0.144374
    33  H    0.152681
    34  H    0.165908
 Sum of Mulliken charges =  -0.00000

 Dipole moment (field-independent basis, Debye):
    X=             -2.3623    Y=             -2.1249    Z=              4.0293  Tot=              5.1313
 Quadrupole moment (field-independent basis, Debye-Ang):
   XX=           -103.7046   YY=            -89.7314   ZZ=            -94.2863
   XY=             -1.3425   XZ=              7.8809   YZ=             -0.8244

 Normal termination of Gaussian 16 at Thu May  6 12:33:50 2021.
