 Gaussian 16, Revision A.03,
 Gaussian 16:  EM64L-G16RevA.03 25-Dec-2016

 -------------
 #p 6-31g* mp2
 -------------

 ------------------------------------------------------
 Input file generated by CHIRIPA (05-May-2021 14:53:16)
 ------------------------------------------------------
 Symbolic Z-matrix:
 Charge =  0 Multiplicity = 1

                         Standard orientation:
 ---------------------------------------------------------------------
 Center     Atomic      Atomic             Coordinates (Angstroms)
 Number     Number       Type             X           Y           Z
 ---------------------------------------------------------------------
      1          6           0       -4.036465    0.612787   -0.292396
      2          6           0       -3.660803    2.022215    0.166272
      3          6           0       -4.550415    3.101603   -0.451227
      4          1           0       -3.971486    0.561053   -1.387862
      5          1           0       -5.085958    0.417508   -0.031960
      6          1           0       -2.611928    2.214266   -0.093715
      7          1           0       -3.726499    2.070545    1.260788
      8          1           0       -5.598689    2.937781   -0.181253
      9          1           0       -4.477785    3.082318   -1.543452
     10          1           0       -4.264401    4.101344   -0.109798
     11          6           0       -3.156095   -0.477202    0.316374
     12          6           0       -3.531757   -1.886630   -0.142294
     13          6           0       -2.642145   -2.966018    0.475206
     14          1           0       -2.106603   -0.281923    0.055938
     15          1           0       -3.221074   -0.425468    1.411840
     16          1           0       -3.466062   -1.934960   -1.236809
     17          1           0       -4.580633   -2.078681    0.117693
     18          1           0       -2.714776   -2.946734    1.567430
     19          1           0       -1.593872   -2.802196    0.205232
     20          1           0       -2.928160   -3.965759    0.133776
     21          6           0        5.055115    1.095176    0.063678
     22          6           0        4.656951    0.408913   -1.088290
     23          6           0        3.414970   -0.230897   -1.139977
     24          6           0        2.592505   -0.163961   -0.016428
     25          6           0        2.960851    0.511839    1.145857
     26          6           0        4.207290    1.144361    1.175115
     27          1           0        6.021648    1.589365    0.095118
     28          1           0        5.313327    0.369056   -1.952945
     29          1           0        3.081705   -0.769185   -2.018953
     30          1           0        2.284864    0.534094    1.992003
     31          1           0        4.513886    1.676587    2.071095
     32          7           0        1.275316   -0.837442   -0.059275
     33          8           0        0.569028   -0.763717    0.943899
     34          8           0        0.974132   -1.426288   -1.095222
 ---------------------------------------------------------------------

 SCF Done:  E(RHF) =  -669.537026619     A.U. after   15 cycles
 E2 =    -0.2092331305D+01 EUMP2 =    -0.67162935792448D+03

 The electronic state is 1-A.
 Alpha  occ. eigenvalues --  -20.61220 -20.61209 -15.86190 -11.31437 -11.27982
 Alpha  occ. eigenvalues --  -11.27977 -11.27705 -11.26967 -11.26957 -11.20676
 Alpha  occ. eigenvalues --  -11.20365 -11.20160 -11.19949 -11.19596 -11.19067
 Alpha  occ. eigenvalues --   -1.60242  -1.39799  -1.19590  -1.09012  -1.07051
 Alpha  occ. eigenvalues --   -1.04971  -1.02170  -0.95864  -0.94608  -0.86376
 Alpha  occ. eigenvalues --   -0.85625  -0.82700  -0.78315  -0.77767  -0.76757
 Alpha  occ. eigenvalues --   -0.72385  -0.71542  -0.70697  -0.65244  -0.64974
 Alpha  occ. eigenvalues --   -0.63694  -0.62317  -0.59575  -0.58065  -0.56205
 Alpha  occ. eigenvalues --   -0.55479  -0.53887  -0.53307  -0.53060  -0.51376
 Alpha  occ. eigenvalues --   -0.51009  -0.49273  -0.49171  -0.48510  -0.46576
 Alpha  occ. eigenvalues --   -0.45350  -0.45260  -0.44325  -0.43995  -0.42410
 Alpha  occ. eigenvalues --   -0.37563  -0.36566
 Alpha virt. eigenvalues --    0.04726   0.11091   0.16246   0.21230   0.24119
 Alpha virt. eigenvalues --    0.25756   0.27165   0.27946   0.28181   0.28899
 Alpha virt. eigenvalues --    0.29368   0.30830   0.32350   0.32727   0.32838

 Mulliken charges:
               1
     1  C   -0.297757
     2  C   -0.297528
     3  C   -0.474706
     4  H    0.146925
     5  H    0.144649
     6  H    0.150265
     7  H    0.150041
     8  H    0.153766
     9  H    0.153610
    10  H    0.155970
    11  C   -0.302667
    12  C   -0.297046
    13  C   -0.482050
    14  H    0.170684
    15  H    0.144867
    16  H    0.149065
    17  H    0.142735
    18  H    0.148370
    19  H    0.181370
    20  H    0.149165
    21  C   -0.170194
    22  C   -0.218651
    23  C   -0.170557
    24  C    0.159069
    25  C   -0.170496
    26  C   -0.218625
    27  H    0.226565
    28  H    0.224330
    29  H    0.276114
    30  H    0.276473
    31  H    0.224425
    32  N    0.487626
    33  O   -0.456298
    34  O   -0.459508
 Sum of Mulliken charges =  -0.00000

 Dipole moment (field-independent basis, Debye):
    X=              5.2189    Y=              2.3638    Z=              0.1554  Tot=              5.7314
 Quadrupole moment (field-independent basis, Debye-Ang):
   XX=            -72.6469   YY=            -97.5514   ZZ=            -90.0480
   XY=              5.7150   XZ=             -1.3874   YZ=              2.0269

 Normal termination of Gaussian 16 at Wed May  5 21:59:13 2021.
