 Gaussian 16, Revision A.03,
 Gaussian 16:  EM64L-G16RevA.03 25-Dec-2016

 -------------
 #p 6-31g* mp2
 -------------

 ------------------------------------------------------
 Input file generated by CHIRIPA (05-May-2021 14:55:22)
 ------------------------------------------------------
 Symbolic Z-matrix:
 Charge =  0 Multiplicity = 1

                         Standard orientation:
 ---------------------------------------------------------------------
 Center     Atomic      Atomic             Coordinates (Angstroms)
 Number     Number       Type             X           Y           Z
 ---------------------------------------------------------------------
      1          6           0       -2.538202   -0.211137   -2.348827
      2          6           0       -1.787759   -1.319795   -1.943571
      3          6           0       -1.472159   -1.508939   -0.594805
      4          6           0       -1.925226   -0.565515    0.326049
      5          6           0       -2.674701    0.549270   -0.046550
      6          6           0       -2.978501    0.718219   -1.400695
      7          1           0       -2.778784   -0.072049   -3.398670
      8          1           0       -1.444486   -2.043162   -2.677702
      9          1           0       -0.892771   -2.358224   -0.253566
     10          1           0       -3.002873    1.253320    0.708457
     11          1           0       -3.561471    1.580161   -1.712540
     12          7           0       -1.597360   -0.755064    1.756775
     13          8           0       -2.008349    0.090479    2.548471
     14          8           0       -0.935599   -1.745585    2.059390
     15          6           0        2.404184    1.410913    0.079758
     16          6           0        0.960037    1.854530   -0.156101
     17          6           0        0.717058    3.311363    0.239366
     18          1           0        2.655703    1.551394    1.139922
     19          1           0        3.078885    2.064114   -0.490769
     20          1           0        0.288173    1.199820    0.413611
     21          1           0        0.711865    1.712797   -1.215788
     22          1           0        1.363615    3.980211   -0.337874
     23          1           0        0.937516    3.464319    1.300782
     24          1           0       -0.321640    3.607483    0.062500
     25          6           0        2.662728   -0.043167   -0.310795
     26          6           0        4.106874   -0.486785   -0.074936
     27          6           0        4.349853   -1.943617   -0.470403
     28          1           0        1.988027   -0.696368    0.259734
     29          1           0        2.411209   -0.183648   -1.370959
     30          1           0        4.355046   -0.345052    0.984752
     31          1           0        4.778738    0.167925   -0.644646
     32          1           0        4.129395   -2.096574   -1.531819
     33          1           0        3.703296   -2.612466    0.106838
     34          1           0        5.388550   -2.239737   -0.293537
 ---------------------------------------------------------------------

 SCF Done:  E(RHF) =  -669.535016860     A.U. after   15 cycles
 E2 =    -0.2094375834D+01 EUMP2 =    -0.67162939269333D+03

 The electronic state is 1-A.
 Alpha  occ. eigenvalues --  -20.60891 -20.60879 -15.85914 -11.31185 -11.27784
 Alpha  occ. eigenvalues --  -11.27777 -11.27542 -11.26815 -11.26802 -11.21442
 Alpha  occ. eigenvalues --  -11.21433 -11.21234 -11.21166 -11.20983 -11.20960
 Alpha  occ. eigenvalues --   -1.59955  -1.39508  -1.19401  -1.08817  -1.08270
 Alpha  occ. eigenvalues --   -1.04794  -1.03394  -0.95849  -0.95651  -0.86869
 Alpha  occ. eigenvalues --   -0.86199  -0.82485  -0.79473  -0.78109  -0.77534
 Alpha  occ. eigenvalues --   -0.72140  -0.71295  -0.70513  -0.65057  -0.64890
 Alpha  occ. eigenvalues --   -0.64802  -0.62145  -0.60791  -0.59246  -0.57483
 Alpha  occ. eigenvalues --   -0.55308  -0.55128  -0.53196  -0.52890  -0.52525
 Alpha  occ. eigenvalues --   -0.52277  -0.49785  -0.48903  -0.48895  -0.47764
 Alpha  occ. eigenvalues --   -0.46513  -0.45609  -0.45559  -0.44898  -0.43646
 Alpha  occ. eigenvalues --   -0.37291  -0.36374
 Alpha virt. eigenvalues --    0.04958   0.11185   0.16463   0.21254   0.22956
 Alpha virt. eigenvalues --    0.24267   0.26276   0.27089   0.27357   0.28119
 Alpha virt. eigenvalues --    0.28477   0.31029   0.31271   0.31704   0.32008

 Mulliken charges:
               1
     1  C   -0.171038
     2  C   -0.217704
     3  C   -0.169676
     4  C    0.154568
     5  C   -0.170333
     6  C   -0.216749
     7  H    0.225742
     8  H    0.223756
     9  H    0.275616
    10  H    0.275449
    11  H    0.223602
    12  N    0.491946
    13  O   -0.459809
    14  O   -0.461015
    15  C   -0.298405
    16  C   -0.300275
    17  C   -0.474575
    18  H    0.154135
    19  H    0.147403
    20  H    0.153319
    21  H    0.148559
    22  H    0.153541
    23  H    0.160443
    24  H    0.153922
    25  C   -0.301069
    26  C   -0.299224
    27  C   -0.476409
    28  H    0.154753
    29  H    0.144196
    30  H    0.155435
    31  H    0.150407
    32  H    0.151124
    33  H    0.157839
    34  H    0.160526
 Sum of Mulliken charges =  -0.00000

 Dipole moment (field-independent basis, Debye):
    X=             -1.2059    Y=              0.6290    Z=             -4.9633  Tot=              5.1463
 Quadrupole moment (field-independent basis, Debye-Ang):
   XX=            -89.7702   YY=            -93.3862   ZZ=            -97.5407
   XY=             -2.6391   XZ=              9.0460   YZ=              3.7510

 Normal termination of Gaussian 16 at Thu May  6 17:34:12 2021.
