 Gaussian 16, Revision A.03,
 Gaussian 16:  EM64L-G16RevA.03 25-Dec-2016

 -------------
 #p 6-31g* mp2
 -------------

 ------------------------------------------------------
 Input file generated by CHIRIPA (05-May-2021 14:51:07)
 ------------------------------------------------------
 Symbolic Z-matrix:
 Charge =  0 Multiplicity = 1

                         Standard orientation:
 ---------------------------------------------------------------------
 Center     Atomic      Atomic             Coordinates (Angstroms)
 Number     Number       Type             X           Y           Z
 ---------------------------------------------------------------------
      1          6           0       -3.696241   -0.449554   -0.478122
      2          6           0       -2.947176   -1.640334    0.120986
      3          6           0       -3.246008   -2.952520   -0.604728
      4          1           0       -4.775927   -0.650102   -0.446431
      5          1           0       -3.427395   -0.352324   -1.539094
      6          1           0       -3.216296   -1.734446    1.180861
      7          1           0       -1.869158   -1.436845    0.088041
      8          1           0       -2.960705   -2.883071   -1.659422
      9          1           0       -4.315497   -3.182363   -0.560394
     10          1           0       -2.700191   -3.790522   -0.160098
     11          6           0       -3.407799    0.869407    0.236631
     12          6           0       -4.156864    2.060187   -0.362478
     13          6           0       -3.858033    3.372373    0.363237
     14          1           0       -3.676645    0.772178    1.297603
     15          1           0       -2.328113    1.069956    0.204940
     16          1           0       -5.234882    1.856698   -0.329532
     17          1           0       -3.887745    2.154299   -1.422352
     18          1           0       -2.788543    3.602216    0.318903
     19          1           0       -4.143335    3.302924    1.417931
     20          1           0       -4.403849    4.210375   -0.081393
     21          6           0        4.011031    0.386158    0.252746
     22          6           0        5.238972    0.419222   -0.657778
     23          6           0        6.147585    1.617536   -0.381624
     24          1           0        3.441896    1.317008    0.124110
     25          1           0        4.340756    0.363672    1.300682
     26          1           0        4.907040    0.440242   -1.703721
     27          1           0        5.805147   -0.511898   -0.527101
     28          1           0        6.506914    1.598333    0.652356
     29          1           0        5.603703    2.555883   -0.530948
     30          1           0        7.019120    1.621512   -1.043644
     31          6           0        3.093009   -0.806011   -0.011255
     32          6           0        1.865069   -0.839075    0.899270
     33          6           0        0.956455   -2.037389    0.623114
     34          1           0        2.763284   -0.783525   -1.059191
     35          1           0        3.662144   -1.736861    0.117381
     36          1           0        1.298894    0.092045    0.768593
     37          1           0        2.197000   -0.860095    1.945212
     38          1           0        1.500337   -2.975736    0.772439
     39          1           0        0.597126   -2.018187   -0.410865
     40          1           0        0.084920   -2.041365    1.285135
 ---------------------------------------------------------------------

 SCF Done:  E(RHF) =  -470.732700443     A.U. after   11 cycles
 E2 =    -0.1582961482D+01 EUMP2 =    -0.47231566192519D+03

 The electronic state is 1-A.
 Alpha  occ. eigenvalues --  -11.21646 -11.21624 -11.21591 -11.21449 -11.21437
 Alpha  occ. eigenvalues --  -11.21377 -11.21373 -11.21302 -11.21089 -11.21082
 Alpha  occ. eigenvalues --  -11.21068 -11.21001  -1.08466  -1.08385  -1.03580
 Alpha  occ. eigenvalues --   -1.03468  -0.96029  -0.95927  -0.87050  -0.86943
 Alpha  occ. eigenvalues --   -0.79695  -0.79491  -0.78279  -0.78198  -0.65137
 Alpha  occ. eigenvalues --   -0.64992  -0.61082  -0.60800  -0.59497  -0.59201
 Alpha  occ. eigenvalues --   -0.57659  -0.57509  -0.55357  -0.55181  -0.52753
 Alpha  occ. eigenvalues --   -0.52603  -0.52446  -0.52349  -0.50032  -0.49827
 Alpha  occ. eigenvalues --   -0.47985  -0.47809  -0.46762  -0.46463  -0.45825
 Alpha  occ. eigenvalues --   -0.45755  -0.45723  -0.45624  -0.43799  -0.43697
 Alpha virt. eigenvalues --    0.21564   0.23165   0.23693   0.24643   0.26266
 Alpha virt. eigenvalues --    0.26923   0.27002   0.27259   0.28025   0.29089
 Alpha virt. eigenvalues --    0.30380   0.31433   0.31547   0.31877   0.32216

 Mulliken charges:
               1
     1  C   -0.297523
     2  C   -0.308866
     3  C   -0.475436
     4  H    0.149214
     5  H    0.148800
     6  H    0.150215
     7  H    0.163821
     8  H    0.154375
     9  H    0.154790
    10  H    0.160675
    11  C   -0.298204
    12  C   -0.299571
    13  C   -0.475639
    14  H    0.149462
    15  H    0.148844
    16  H    0.152055
    17  H    0.151745
    18  H    0.154905
    19  H    0.155220
    20  H    0.160209
    21  C   -0.298288
    22  C   -0.299675
    23  C   -0.475722
    24  H    0.149548
    25  H    0.149687
    26  H    0.151887
    27  H    0.152022
    28  H    0.155254
    29  H    0.155185
    30  H    0.160326
    31  C   -0.298486
    32  C   -0.300537
    33  C   -0.480435
    34  H    0.149467
    35  H    0.149938
    36  H    0.151732
    37  H    0.152451
    38  H    0.155742
    39  H    0.155425
    40  H    0.165385
 Sum of Mulliken charges =  -0.00000

 Dipole moment (field-independent basis, Debye):
    X=              0.0461    Y=             -0.0173    Z=              0.0165  Tot=              0.0519
 Quadrupole moment (field-independent basis, Debye-Ang):
   XX=            -84.6540   YY=            -86.1827   ZZ=            -84.0972
   XY=             -0.9305   XZ=             -0.2577   YZ=             -1.0301

 Normal termination of Gaussian 16 at Wed May  5 19:39:54 2021.
