 Gaussian 16, Revision A.03,
 Gaussian 16:  EM64L-G16RevA.03 25-Dec-2016

 -------------
 #p 6-31g* mp2
 -------------

 ------------------------------------------------------
 Input file generated by CHIRIPA (05-May-2021 14:51:14)
 ------------------------------------------------------
 Symbolic Z-matrix:
 Charge =  0 Multiplicity = 1

                         Standard orientation:
 ---------------------------------------------------------------------
 Center     Atomic      Atomic             Coordinates (Angstroms)
 Number     Number       Type             X           Y           Z
 ---------------------------------------------------------------------
      1          6           0       -2.900795   -0.008544   -0.148538
      2          6           0       -1.952800   -1.208187   -0.160736
      3          6           0       -0.488215   -0.802590   -0.328892
      4          1           0       -2.780099    0.555610   -1.083475
      5          1           0       -2.611540    0.670252    0.665687
      6          1           0       -2.244611   -1.885201   -0.973825
      7          1           0       -2.075904   -1.769659    0.774256
      8          1           0       -0.174238   -0.145274    0.488394
      9          1           0       -0.343903   -0.261473   -1.269619
     10          1           0        0.171957   -1.675514   -0.334907
     11          6           0       -4.368485   -0.397901    0.018844
     12          6           0       -5.316480    0.801742    0.031042
     13          6           0       -6.781064    0.396144    0.199197
     14          1           0       -4.657739   -1.076697   -0.795381
     15          1           0       -4.489180   -0.962055    0.953781
     16          1           0       -5.193375    1.363214   -0.903950
     17          1           0       -5.024668    1.478756    0.844131
     18          1           0       -6.925376   -0.144972    1.139925
     19          1           0       -7.095041   -0.261171   -0.618088
     20          1           0       -7.441237    1.269069    0.205213
     21          6           0        3.429070   -0.470417    0.360453
     22          6           0        4.110349   -1.661735   -0.313792
     23          6           0        3.688945   -3.002388    0.288588
     24          1           0        3.663161   -0.481532    1.433776
     25          1           0        2.339398   -0.584631    0.276994
     26          1           0        5.198433   -1.544609   -0.230297
     27          1           0        3.874765   -1.647674   -1.385669
     28          1           0        2.607847   -3.145418    0.191784
     29          1           0        3.939035   -3.041767    1.353720
     30          1           0        4.187853   -3.840306   -0.208245
     31          6           0        3.840209    0.876862   -0.230759
     32          6           0        3.158931    2.068180    0.443486
     33          6           0        3.580334    3.408833   -0.158894
     34          1           0        4.929881    0.991077   -0.147300
     35          1           0        3.606117    0.887977   -1.304082
     36          1           0        3.394515    2.054119    1.515363
     37          1           0        2.070847    1.951054    0.359991
     38          1           0        3.330243    3.448214   -1.224026
     39          1           0        4.661431    3.551865   -0.062090
     40          1           0        3.081427    4.246751    0.337939
 ---------------------------------------------------------------------

 SCF Done:  E(RHF) =  -470.732899677     A.U. after   11 cycles
 E2 =    -0.1583317668D+01 EUMP2 =    -0.47231621734445D+03

 The electronic state is 1-A.
 Alpha  occ. eigenvalues --  -11.21681 -11.21634 -11.21529 -11.21513 -11.21460
 Alpha  occ. eigenvalues --  -11.21397 -11.21280 -11.21206 -11.21161 -11.21096
 Alpha  occ. eigenvalues --  -11.21038 -11.21019  -1.08491  -1.08325  -1.03601
 Alpha  occ. eigenvalues --   -1.03455  -0.96066  -0.95896  -0.87096  -0.86913
 Alpha  occ. eigenvalues --   -0.79696  -0.79508  -0.78315  -0.78109  -0.65125
 Alpha  occ. eigenvalues --   -0.64963  -0.60995  -0.60880  -0.59450  -0.59238
 Alpha  occ. eigenvalues --   -0.57667  -0.57509  -0.55366  -0.55181  -0.52812
 Alpha  occ. eigenvalues --   -0.52607  -0.52486  -0.52306  -0.50020  -0.49832
 Alpha  occ. eigenvalues --   -0.48003  -0.47822  -0.46723  -0.46546  -0.45922
 Alpha  occ. eigenvalues --   -0.45778  -0.45664  -0.45468  -0.43766  -0.43686
 Alpha virt. eigenvalues --    0.21186   0.22958   0.23450   0.24373   0.25593
 Alpha virt. eigenvalues --    0.26594   0.26862   0.27274   0.27823   0.29552
 Alpha virt. eigenvalues --    0.29641   0.31371   0.31790   0.31945   0.32241

 Mulliken charges:
               1
     1  C   -0.298808
     2  C   -0.299928
     3  C   -0.481645
     4  H    0.149660
     5  H    0.149817
     6  H    0.152229
     7  H    0.152635
     8  H    0.157708
     9  H    0.155669
    10  H    0.162630
    11  C   -0.298369
    12  C   -0.299679
    13  C   -0.475745
    14  H    0.149644
    15  H    0.149843
    16  H    0.151980
    17  H    0.152042
    18  H    0.155264
    19  H    0.155228
    20  H    0.160384
    21  C   -0.310562
    22  C   -0.298844
    23  C   -0.477562
    24  H    0.148108
    25  H    0.165825
    26  H    0.151464
    27  H    0.151456
    28  H    0.155620
    29  H    0.155230
    30  H    0.160074
    31  C   -0.297076
    32  C   -0.301486
    33  C   -0.475538
    34  H    0.148824
    35  H    0.149109
    36  H    0.151443
    37  H    0.153394
    38  H    0.155030
    39  H    0.155079
    40  H    0.159854
 Sum of Mulliken charges =  -0.00000

 Dipole moment (field-independent basis, Debye):
    X=             -0.0790    Y=             -0.0076    Z=             -0.0011  Tot=              0.0794
 Quadrupole moment (field-independent basis, Debye-Ang):
   XX=            -85.6845   YY=            -86.0018   ZZ=            -83.4106
   XY=             -0.3012   XZ=              0.7955   YZ=              0.4610

 Normal termination of Gaussian 16 at Wed May  5 20:00:05 2021.
