 Gaussian 16, Revision A.03,
 Gaussian 16:  EM64L-G16RevA.03 25-Dec-2016

 -------------
 #p 6-31g* mp2
 -------------

 ------------------------------------------------------
 Input file generated by CHIRIPA (05-May-2021 14:57:21)
 ------------------------------------------------------
 Symbolic Z-matrix:
 Charge =  0 Multiplicity = 1

                         Standard orientation:
 ---------------------------------------------------------------------
 Center     Atomic      Atomic             Coordinates (Angstroms)
 Number     Number       Type             X           Y           Z
 ---------------------------------------------------------------------
      1          6           0        5.954529   -0.730791    1.064768
      2          6           0        5.892297    0.589202    0.606218
      3          6           0        4.747785    1.062256   -0.042519
      4          6           0        3.679178    0.184156   -0.216613
      5          6           0        3.710830   -1.136372    0.228912
      6          6           0        4.865517   -1.587854    0.874986
      7          1           0        6.847565   -1.089892    1.567689
      8          1           0        6.736521    1.257045    0.752219
      9          1           0        4.672827    2.079397   -0.407518
     10          1           0        2.853281   -1.778539    0.068763
     11          1           0        4.911040   -2.613476    1.230054
     12          7           0        2.462149    0.673539   -0.901993
     13          8           0        1.534200   -0.119969   -1.043036
     14          8           0        2.459235    1.841359   -1.285172
     15          6           0       -6.320833    0.324300    0.577014
     16          6           0       -5.949806   -0.588056   -0.416196
     17          6           0       -4.600278   -0.832958   -0.687019
     18          6           0       -3.643764   -0.144858    0.057892
     19          6           0       -3.981764    0.770106    1.053827
     20          6           0       -5.337362    0.999279    1.307568
     21          1           0       -7.371536    0.508436    0.780761
     22          1           0       -6.711423   -1.113698   -0.985130
     23          1           0       -4.285103   -1.534013   -1.450303
     24          1           0       -3.199796    1.278886    1.604360
     25          1           0       -5.622578    1.708378    2.079498
     26          7           0       -2.211868   -0.395799   -0.219773
     27          8           0       -1.388385    0.223255    0.450514
     28          8           0       -1.940142   -1.206789   -1.102438
 ---------------------------------------------------------------------

 SCF Done:  E(RHF) =  -868.334936761     A.U. after   16 cycles
 E2 =    -0.2600677342D+01 EUMP2 =    -0.87093561410390D+03

 The electronic state is 1-A.
 Alpha  occ. eigenvalues --  -20.59660 -20.59646 -20.59381 -20.59189 -15.84737
 Alpha  occ. eigenvalues --  -15.84331 -11.30469 -11.30141 -11.27083 -11.27079
 Alpha  occ. eigenvalues --  -11.26898 -11.26797 -11.26725 -11.26620 -11.26185
 Alpha  occ. eigenvalues --  -11.26175 -11.25910 -11.25875  -1.58707  -1.58355
 Alpha  occ. eigenvalues --   -1.38265  -1.37894  -1.18674  -1.18364  -1.07999
 Alpha  occ. eigenvalues --   -1.07684  -1.04135  -1.03832  -0.94774  -0.94435
 Alpha  occ. eigenvalues --   -0.85516  -0.85210  -0.81612  -0.81265  -0.76592
 Alpha  occ. eigenvalues --   -0.76235  -0.70954  -0.70538  -0.70063  -0.69785
 Alpha  occ. eigenvalues --   -0.69686  -0.69476  -0.64322  -0.64145  -0.64001
 Alpha  occ. eigenvalues --   -0.63848  -0.61480  -0.61171  -0.54626  -0.54338
 Alpha  occ. eigenvalues --   -0.52443  -0.52235  -0.52142  -0.51933  -0.47828
 Alpha  occ. eigenvalues --   -0.47654  -0.47313  -0.47183  -0.43605  -0.43148
 Alpha  occ. eigenvalues --   -0.36678  -0.36377  -0.35756  -0.35457
 Alpha virt. eigenvalues --    0.05953   0.06314   0.11893   0.12191   0.17380
 Alpha virt. eigenvalues --    0.17716   0.21973   0.22251   0.27856   0.28132
 Alpha virt. eigenvalues --    0.28896   0.29201   0.31493   0.31764   0.33151

 Mulliken charges:
               1
     1  C   -0.172428
     2  C   -0.218813
     3  C   -0.172102
     4  C    0.159632
     5  C   -0.170937
     6  C   -0.219011
     7  H    0.221655
     8  H    0.219638
     9  H    0.273455
    10  H    0.280220
    11  H    0.220578
    12  N    0.486589
    13  O   -0.439067
    14  O   -0.470008
    15  C   -0.172080
    16  C   -0.218505
    17  C   -0.171538
    18  C    0.159720
    19  C   -0.171315
    20  C   -0.218499
    21  H    0.222970
    22  H    0.221160
    23  H    0.274997
    24  H    0.275109
    25  H    0.221126
    26  N    0.487847
    27  O   -0.453356
    28  O   -0.457035
 Sum of Mulliken charges =  -0.00000

 Dipole moment (field-independent basis, Debye):
    X=             -0.9032    Y=             -0.9447    Z=              3.2871  Tot=              3.5374
 Quadrupole moment (field-independent basis, Debye-Ang):
   XX=            -39.9779   YY=           -100.4743   ZZ=           -104.5869
   XY=             -5.2197   XZ=              4.9704   YZ=              3.0470

 Normal termination of Gaussian 16 at Thu May  6 21:07:04 2021.
