 Gaussian 16, Revision A.03,
 Gaussian 16:  EM64L-G16RevA.03 25-Dec-2016

 -------------
 #p 6-31g* mp2
 -------------

 ------------------------------------------------------
 Input file generated by CHIRIPA (05-May-2021 14:51:10)
 ------------------------------------------------------
 Symbolic Z-matrix:
 Charge =  0 Multiplicity = 1

                         Standard orientation:
 ---------------------------------------------------------------------
 Center     Atomic      Atomic             Coordinates (Angstroms)
 Number     Number       Type             X           Y           Z
 ---------------------------------------------------------------------
      1          6           0        2.100946    0.618995   -0.057371
      2          6           0        3.012491    1.191232    1.028730
      3          6           0        2.762726    2.677295    1.287628
      4          1           0        2.249464    1.184696   -0.987355
      5          1           0        1.052908    0.769896    0.236294
      6          1           0        4.058503    1.038058    0.733752
      7          1           0        2.861925    0.623979    1.956184
      8          1           0        1.728725    2.844360    1.606267
      9          1           0        2.932101    3.260792    0.376889
     10          1           0        3.425045    3.065799    2.067538
     11          6           0        2.338689   -0.865662   -0.327560
     12          6           0        1.427144   -1.437899   -1.413662
     13          6           0        1.676909   -2.923962   -1.672560
     14          1           0        3.386727   -1.016562   -0.621225
     15          1           0        2.190171   -1.431363    0.602423
     16          1           0        1.577710   -0.870646   -2.341115
     17          1           0        0.381132   -1.284725   -1.118683
     18          1           0        1.507534   -3.507458   -0.761821
     19          1           0        2.710910   -3.091027   -1.991198
     20          1           0        1.014590   -3.312465   -2.452469
     21          6           0       -2.380276    0.509952   -0.446449
     22          6           0       -2.200349    2.021480   -0.301897
     23          6           0       -2.525142    2.781180   -1.588428
     24          1           0       -1.738031    0.146842   -1.260462
     25          1           0       -3.415721    0.298061   -0.747031
     26          1           0       -1.165923    2.230371   -0.000331
     27          1           0       -2.842953    2.381004    0.511994
     28          1           0       -3.562195    2.602122   -1.890187
     29          1           0       -1.875635    2.450633   -2.405423
     30          1           0       -2.389834    3.859949   -1.462694
     31          6           0       -2.059359   -0.263285    0.831379
     32          6           0       -2.239286   -1.774813    0.686829
     33          6           0       -1.914493   -2.534513    1.973359
     34          1           0       -1.023914   -0.051394    1.131962
     35          1           0       -2.701603    0.099824    1.645394
     36          1           0       -1.596682   -2.134337   -0.127063
     37          1           0       -3.273712   -1.983704    0.385263
     38          1           0       -2.564000   -2.203966    2.790354
     39          1           0       -0.877440   -2.355456    2.275119
     40          1           0       -2.049801   -3.613282    1.847625
 ---------------------------------------------------------------------

 SCF Done:  E(RHF) =  -470.732331708     A.U. after   11 cycles
 E2 =    -0.1585943116D+01 EUMP2 =    -0.47231827482464D+03

 The electronic state is 1-A.
 Alpha  occ. eigenvalues --  -11.21655 -11.21642 -11.21642 -11.21602 -11.21469
 Alpha  occ. eigenvalues --  -11.21442 -11.21407 -11.21371 -11.21131 -11.21126
 Alpha  occ. eigenvalues --  -11.21116 -11.21060  -1.08570  -1.08410  -1.03613
 Alpha  occ. eigenvalues --   -1.03537  -0.96050  -0.96001  -0.87056  -0.87025
 Alpha  occ. eigenvalues --   -0.79681  -0.79620  -0.78345  -0.78273  -0.65674
 Alpha  occ. eigenvalues --   -0.64630  -0.61216  -0.60741  -0.59405  -0.59374
 Alpha  occ. eigenvalues --   -0.57681  -0.57594  -0.55445  -0.55206  -0.52726
 Alpha  occ. eigenvalues --   -0.52707  -0.52459  -0.52435  -0.49998  -0.49962
 Alpha  occ. eigenvalues --   -0.48074  -0.47902  -0.46896  -0.46654  -0.46342
 Alpha  occ. eigenvalues --   -0.45819  -0.45489  -0.45188  -0.43844  -0.43806
 Alpha virt. eigenvalues --    0.19184   0.21937   0.23378   0.25068   0.25447
 Alpha virt. eigenvalues --    0.26512   0.26892   0.27577   0.28079   0.30616
 Alpha virt. eigenvalues --    0.31510   0.31561   0.31843   0.31959   0.32091

 Mulliken charges:
               1
     1  C   -0.309448
     2  C   -0.299218
     3  C   -0.476661
     4  H    0.149848
     5  H    0.159519
     6  H    0.152358
     7  H    0.151817
     8  H    0.155623
     9  H    0.155389
    10  H    0.160707
    11  C   -0.297492
    12  C   -0.311162
    13  C   -0.475762
    14  H    0.150225
    15  H    0.149154
    16  H    0.151882
    17  H    0.162637
    18  H    0.155648
    19  H    0.155647
    20  H    0.160306
    21  C   -0.301992
    22  C   -0.303300
    23  C   -0.475610
    24  H    0.153205
    25  H    0.150071
    26  H    0.155029
    27  H    0.151797
    28  H    0.155038
    29  H    0.155674
    30  H    0.160347
    31  C   -0.304405
    32  C   -0.304419
    33  C   -0.475676
    34  H    0.153055
    35  H    0.150703
    36  H    0.156189
    37  H    0.152661
    38  H    0.155575
    39  H    0.154383
    40  H    0.160659
 Sum of Mulliken charges =  -0.00000

 Dipole moment (field-independent basis, Debye):
    X=              0.0001    Y=             -0.0025    Z=             -0.0093  Tot=              0.0096
 Quadrupole moment (field-independent basis, Debye-Ang):
   XX=            -83.3501   YY=            -86.3030   ZZ=            -85.0000
   XY=              0.3203   XZ=             -0.9266   YZ=              0.1300

 Normal termination of Gaussian 16 at Wed May  5 15:12:35 2021.
