 Gaussian 16, Revision A.03,
 Gaussian 16:  EM64L-G16RevA.03 25-Dec-2016

 -------------
 #p 6-31g* mp2
 -------------

 ------------------------------------------------------
 Input file generated by CHIRIPA (05-May-2021 14:55:21)
 ------------------------------------------------------
 Symbolic Z-matrix:
 Charge =  0 Multiplicity = 1

                         Standard orientation:
 ---------------------------------------------------------------------
 Center     Atomic      Atomic             Coordinates (Angstroms)
 Number     Number       Type             X           Y           Z
 ---------------------------------------------------------------------
      1          6           0       -4.653662    1.177880   -1.335088
      2          6           0       -5.122727    0.025349   -0.696204
      3          6           0       -4.244801   -0.801883    0.010537
      4          6           0       -2.898113   -0.444871    0.058115
      5          6           0       -2.400332    0.696832   -0.567998
      6          6           0       -3.296355    1.509358   -1.269063
      7          1           0       -5.342685    1.814782   -1.881896
      8          1           0       -6.176309   -0.234555   -0.745796
      9          1           0       -4.581075   -1.699950    0.514336
     10          1           0       -1.344581    0.929847   -0.500821
     11          1           0       -2.929258    2.403819   -1.764264
     12          7           0       -1.959113   -1.312840    0.803305
     13          8           0       -0.777312   -0.976302    0.830243
     14          8           0       -2.422706   -2.313258    1.346337
     15          6           0        4.601820    0.073297    0.022765
     16          6           0        4.818725   -0.672652   -1.294238
     17          6           0        6.212072   -1.293375   -1.399513
     18          1           0        5.363250    0.859063    0.121456
     19          1           0        4.759042   -0.621182    0.859650
     20          1           0        4.659786    0.022687   -2.128419
     21          1           0        4.056573   -1.456609   -1.389896
     22          1           0        6.377733   -2.008235   -0.587029
     23          1           0        6.984374   -0.520534   -1.329748
     24          1           0        6.345551   -1.821672   -2.348694
     25          6           0        3.213531    0.699361    0.142869
     26          6           0        2.996626    1.445309    1.459873
     27          6           0        1.603280    2.066032    1.565148
     28          1           0        3.056309    1.393839   -0.694015
     29          1           0        2.452101   -0.086406    0.044178
     30          1           0        3.758778    2.229266    1.555530
     31          1           0        3.155566    0.749970    2.294054
     32          1           0        0.830977    1.293191    1.495383
     33          1           0        1.437617    2.780892    0.752662
     34          1           0        1.469800    2.594329    2.514329
 ---------------------------------------------------------------------

 SCF Done:  E(RHF) =  -669.536541251     A.U. after   15 cycles
 E2 =    -0.2091313376D+01 EUMP2 =    -0.67162785462788D+03

 The electronic state is 1-A.
 Alpha  occ. eigenvalues --  -20.60977 -20.60957 -15.86002 -11.31269 -11.27835
 Alpha  occ. eigenvalues --  -11.27814 -11.27567 -11.26834 -11.26819 -11.21092
 Alpha  occ. eigenvalues --  -11.20931 -11.20794 -11.20650 -11.20640 -11.20388
 Alpha  occ. eigenvalues --   -1.60028  -1.39586  -1.19437  -1.08852  -1.07806
 Alpha  occ. eigenvalues --   -1.04826  -1.02940  -0.95704  -0.95396  -0.86424
 Alpha  occ. eigenvalues --   -0.86229  -0.82539  -0.79022  -0.77673  -0.77540
 Alpha  occ. eigenvalues --   -0.72231  -0.71336  -0.70548  -0.65099  -0.64832
 Alpha  occ. eigenvalues --   -0.64415  -0.62176  -0.60318  -0.58772  -0.57015
 Alpha  occ. eigenvalues --   -0.55337  -0.54668  -0.53162  -0.52921  -0.52115
 Alpha  occ. eigenvalues --   -0.51835  -0.49367  -0.48972  -0.48952  -0.47334
 Alpha  occ. eigenvalues --   -0.46034  -0.45178  -0.45064  -0.44945  -0.43191
 Alpha  occ. eigenvalues --   -0.37418  -0.36425
 Alpha virt. eigenvalues --    0.04901   0.11221   0.16394   0.21028   0.23431
 Alpha virt. eigenvalues --    0.24431   0.26578   0.27273   0.27672   0.28335
 Alpha virt. eigenvalues --    0.29247   0.30873   0.31693   0.32142   0.32505

 Mulliken charges:
               1
     1  C   -0.170372
     2  C   -0.218734
     3  C   -0.170738
     4  C    0.157382
     5  C   -0.171469
     6  C   -0.219218
     7  H    0.225939
     8  H    0.223690
     9  H    0.275611
    10  H    0.279213
    11  H    0.224209
    12  N    0.492114
    13  O   -0.465635
    14  O   -0.458572
    15  C   -0.297858
    16  C   -0.299760
    17  C   -0.475410
    18  H    0.146686
    19  H    0.151466
    20  H    0.148781
    21  H    0.154982
    22  H    0.155947
    23  H    0.153574
    24  H    0.158627
    25  C   -0.303480
    26  C   -0.296360
    27  C   -0.490235
    28  H    0.142115
    29  H    0.164805
    30  H    0.147439
    31  H    0.155500
    32  H    0.178522
    33  H    0.143850
    34  H    0.157392
 Sum of Mulliken charges =  -0.00000

 Dipole moment (field-independent basis, Debye):
    X=             -3.5215    Y=              2.8734    Z=             -2.5749  Tot=              5.2238
 Quadrupole moment (field-independent basis, Debye-Ang):
   XX=            -74.2850   YY=            -96.0535   ZZ=            -95.4804
   XY=             -4.5202   XZ=              6.8580   YZ=             -0.2730

 Normal termination of Gaussian 16 at Wed May  5 23:48:48 2021.
