 Gaussian 16, Revision A.03,
 Gaussian 16:  EM64L-G16RevA.03 25-Dec-2016

 -------------
 #p 6-31g* mp2
 -------------

 ------------------------------------------------------
 Input file generated by CHIRIPA (05-May-2021 14:55:22)
 ------------------------------------------------------
 Symbolic Z-matrix:
 Charge =  0 Multiplicity = 1

                         Standard orientation:
 ---------------------------------------------------------------------
 Center     Atomic      Atomic             Coordinates (Angstroms)
 Number     Number       Type             X           Y           Z
 ---------------------------------------------------------------------
      1          6           0        5.056452    0.486769   -0.900487
      2          6           0        4.726585    1.018662    0.350432
      3          6           0        3.491803    0.732604    0.940374
      4          6           0        2.606818   -0.092720    0.248325
      5          6           0        2.906369   -0.637829   -0.999239
      6          6           0        4.146895   -0.338324   -1.570149
      7          1           0        6.017892    0.714209   -1.351377
      8          1           0        5.430995    1.659742    0.872798
      9          1           0        3.210750    1.130992    1.907697
     10          1           0        2.183487   -1.273709   -1.495744
     11          1           0        4.400383   -0.752802   -2.541745
     12          7           0        1.296568   -0.402675    0.862797
     13          8           0        0.534363   -1.132472    0.232657
     14          8           0        1.056610    0.090048    1.962925
     15          6           0       -3.330945    0.763065   -0.193287
     16          6           0       -4.405382    1.841780   -0.334502
     17          6           0       -3.825272    3.256416   -0.343014
     18          1           0       -2.767106    0.935269    0.733739
     19          1           0       -2.612432    0.860754   -1.018871
     20          1           0       -5.122427    1.741213    0.490331
     21          1           0       -4.966853    1.666876   -1.261203
     22          1           0       -3.125010    3.380622   -1.175366
     23          1           0       -3.281468    3.455381    0.586121
     24          1           0       -4.610692    4.011803   -0.444836
     25          6           0       -3.895327   -0.656477   -0.183169
     26          6           0       -2.820890   -1.735192   -0.041954
     27          6           0       -3.401000   -3.149827   -0.033441
     28          1           0       -4.613840   -0.754166    0.642416
     29          1           0       -4.459165   -0.828680   -1.110195
     30          1           0       -2.259418   -1.560288    0.884747
     31          1           0       -2.103845   -1.634625   -0.866787
     32          1           0       -3.944803   -3.348792   -0.962576
     33          1           0       -4.101261   -3.274033    0.798909
     34          1           0       -2.615580   -3.905214    0.068380
 ---------------------------------------------------------------------

 SCF Done:  E(RHF) =  -669.535592100     A.U. after   15 cycles
 E2 =    -0.2091628297D+01 EUMP2 =    -0.67162722039701D+03

 The electronic state is 1-A.
 Alpha  occ. eigenvalues --  -20.60949 -20.60942 -15.85976 -11.31303 -11.27869
 Alpha  occ. eigenvalues --  -11.27864 -11.27604 -11.26875 -11.26865 -11.20694
 Alpha  occ. eigenvalues --  -11.20346 -11.20164 -11.20042 -11.19744 -11.19682
 Alpha  occ. eigenvalues --   -1.60011  -1.39568  -1.19473  -1.08877  -1.07163
 Alpha  occ. eigenvalues --   -1.04869  -1.02294  -0.95720  -0.94823  -0.86270
 Alpha  occ. eigenvalues --   -0.85848  -0.82558  -0.78366  -0.77609  -0.76878
 Alpha  occ. eigenvalues --   -0.72185  -0.71321  -0.70582  -0.65128  -0.64873
 Alpha  occ. eigenvalues --   -0.63811  -0.62218  -0.59703  -0.58200  -0.56385
 Alpha  occ. eigenvalues --   -0.55373  -0.54142  -0.53201  -0.52962  -0.51552
 Alpha  occ. eigenvalues --   -0.51234  -0.49046  -0.48966  -0.48783  -0.46622
 Alpha  occ. eigenvalues --   -0.45394  -0.45032  -0.44334  -0.44286  -0.42550
 Alpha  occ. eigenvalues --   -0.37451  -0.36471
 Alpha virt. eigenvalues --    0.04919   0.11184   0.16412   0.21308   0.24017
 Alpha virt. eigenvalues --    0.25446   0.27224   0.27824   0.28148   0.28873
 Alpha virt. eigenvalues --    0.29135   0.30899   0.32281   0.32585   0.33012

 Mulliken charges:
               1
     1  C   -0.170603
     2  C   -0.218552
     3  C   -0.170542
     4  C    0.157700
     5  C   -0.170831
     6  C   -0.218511
     7  H    0.226029
     8  H    0.223855
     9  H    0.275834
    10  H    0.275450
    11  H    0.223825
    12  N    0.491482
    13  O   -0.460386
    14  O   -0.460315
    15  C   -0.297318
    16  C   -0.298593
    17  C   -0.474862
    18  H    0.157781
    19  H    0.146565
    20  H    0.150360
    21  H    0.148445
    22  H    0.152237
    23  H    0.156004
    24  H    0.156629
    25  C   -0.299015
    26  C   -0.296968
    27  C   -0.476235
    28  H    0.145028
    29  H    0.142337
    30  H    0.171020
    31  H    0.155226
    32  H    0.147432
    33  H    0.150246
    34  H    0.159249
 Sum of Mulliken charges =  -0.00000

 Dipole moment (field-independent basis, Debye):
    X=              5.0080    Y=              1.0740    Z=             -2.0419  Tot=              5.5138
 Quadrupole moment (field-independent basis, Debye-Ang):
   XX=            -72.6498   YY=            -95.9478   ZZ=            -91.9709
   XY=              2.9067   XZ=             -4.0930   YZ=              3.1580

 Normal termination of Gaussian 16 at Thu May  6 20:46:53 2021.
