 Gaussian 16, Revision A.03,
 Gaussian 16:  EM64L-G16RevA.03 25-Dec-2016

 -------------
 #p 6-31g* mp2
 -------------

 ------------------------------------------------------
 Input file generated by CHIRIPA (05-May-2021 14:55:19)
 ------------------------------------------------------
 Symbolic Z-matrix:
 Charge =  0 Multiplicity = 1

                         Standard orientation:
 ---------------------------------------------------------------------
 Center     Atomic      Atomic             Coordinates (Angstroms)
 Number     Number       Type             X           Y           Z
 ---------------------------------------------------------------------
      1          6           0        3.504507    2.009648    0.889863
      2          6           0        2.917385    1.073884    1.747857
      3          6           0        2.352421   -0.099389    1.239139
      4          6           0        2.392295   -0.305695   -0.138953
      5          6           0        2.969987    0.607597   -1.019555
      6          6           0        3.528891    1.773933   -0.488675
      7          1           0        3.941031    2.918380    1.293655
      8          1           0        2.897007    1.254303    2.818875
      9          1           0        1.891473   -0.840620    1.880639
     10          1           0        2.975117    0.399930   -2.082695
     11          1           0        3.984186    2.498899   -1.157387
     12          7           0        1.797401   -1.544115   -0.689241
     13          8           0        1.845349   -1.702387   -1.907144
     14          8           0        1.294438   -2.333067    0.107766
     15          6           0       -3.484134    0.807450    0.253156
     16          6           0       -3.198148    1.905807   -0.771446
     17          6           0       -3.797754    3.255149   -0.374529
     18          1           0       -4.570838    0.704999    0.377740
     19          1           0       -3.085054    1.113983    1.229971
     20          1           0       -3.596428    1.596686   -1.746347
     21          1           0       -2.112000    2.005524   -0.893747
     22          1           0       -3.392133    3.589417    0.585854
     23          1           0       -4.884994    3.178256   -0.271590
     24          1           0       -3.581304    4.025802   -1.120924
     25          6           0       -2.891140   -0.547384   -0.129613
     26          6           0       -3.177126   -1.645740    0.894988
     27          6           0       -2.577520   -2.995082    0.498072
     28          1           0       -3.290220   -0.853916   -1.106429
     29          1           0       -1.804435   -0.444932   -0.254198
     30          1           0       -4.263273   -1.745457    1.017289
     31          1           0       -2.778846   -1.336620    1.869890
     32          1           0       -1.490280   -2.918189    0.395133
     33          1           0       -2.983141   -3.329350   -0.462312
     34          1           0       -2.793970   -3.765735    1.244466
 ---------------------------------------------------------------------

 SCF Done:  E(RHF) =  -669.536354396     A.U. after   15 cycles
 E2 =    -0.2091421700D+01 EUMP2 =    -0.67162777609639D+03

 The electronic state is 1-A.
 Alpha  occ. eigenvalues --  -20.61010 -20.61005 -15.86034 -11.31339 -11.27898
 Alpha  occ. eigenvalues --  -11.27891 -11.27629 -11.26898 -11.26888 -11.21361
 Alpha  occ. eigenvalues --  -11.21017 -11.20948 -11.20848 -11.20759 -11.19793
 Alpha  occ. eigenvalues --   -1.60064  -1.39621  -1.19503  -1.08910  -1.07931
 Alpha  occ. eigenvalues --   -1.04895  -1.02959  -0.95755  -0.95384  -0.86397
 Alpha  occ. eigenvalues --   -0.86295  -0.82588  -0.79057  -0.77712  -0.77637
 Alpha  occ. eigenvalues --   -0.72255  -0.71375  -0.70609  -0.65158  -0.64896
 Alpha  occ. eigenvalues --   -0.64571  -0.62241  -0.60355  -0.58821  -0.56992
 Alpha  occ. eigenvalues --   -0.55399  -0.54661  -0.53228  -0.52985  -0.52086
 Alpha  occ. eigenvalues --   -0.51794  -0.49353  -0.49014  -0.48973  -0.47346
 Alpha  occ. eigenvalues --   -0.46121  -0.45345  -0.45215  -0.44807  -0.43232
 Alpha  occ. eigenvalues --   -0.37479  -0.36495
 Alpha virt. eigenvalues --    0.04847   0.11155   0.16315   0.21277   0.23258
 Alpha virt. eigenvalues --    0.24902   0.26972   0.27246   0.27847   0.28182
 Alpha virt. eigenvalues --    0.28785   0.30833   0.31930   0.32182   0.32441

 Mulliken charges:
               1
     1  C   -0.170489
     2  C   -0.218558
     3  C   -0.171059
     4  C    0.157561
     5  C   -0.170618
     6  C   -0.218569
     7  H    0.226246
     8  H    0.224036
     9  H    0.275892
    10  H    0.276124
    11  H    0.224082
    12  N    0.489443
    13  O   -0.457644
    14  O   -0.461147
    15  C   -0.297564
    16  C   -0.298862
    17  C   -0.475139
    18  H    0.148980
    19  H    0.145915
    20  H    0.153086
    21  H    0.149855
    22  H    0.152849
    23  H    0.155444
    24  H    0.158504
    25  C   -0.296643
    26  C   -0.298080
    27  C   -0.487558
    28  H    0.150905
    29  H    0.148660
    30  H    0.147901
    31  H    0.146430
    32  H    0.182598
    33  H    0.152750
    34  H    0.154667
 Sum of Mulliken charges =  -0.00000

 Dipole moment (field-independent basis, Debye):
    X=              2.3483    Y=              4.2942    Z=              1.8581  Tot=              5.2352
 Quadrupole moment (field-independent basis, Debye-Ang):
   XX=            -85.0839   YY=            -98.7874   ZZ=            -90.9258
   XY=             11.0553   XZ=              3.7880   YZ=             -2.5843

 Normal termination of Gaussian 16 at Wed May  5 23:45:23 2021.
