 Gaussian 16, Revision A.03,
 Gaussian 16:  EM64L-G16RevA.03 25-Dec-2016

 -------------
 #p 6-31g* mp2
 -------------

 ------------------------------------------------------
 Input file generated by CHIRIPA (05-May-2021 14:57:26)
 ------------------------------------------------------
 Symbolic Z-matrix:
 Charge =  0 Multiplicity = 1

                         Standard orientation:
 ---------------------------------------------------------------------
 Center     Atomic      Atomic             Coordinates (Angstroms)
 Number     Number       Type             X           Y           Z
 ---------------------------------------------------------------------
      1          6           0        3.710430   -2.230001    0.527203
      2          6           0        2.923548   -1.469698    1.398567
      3          6           0        2.674066   -0.119577    1.134978
      4          6           0        3.229689    0.440573   -0.014285
      5          6           0        4.017777   -0.290650   -0.901708
      6          6           0        4.254074   -1.639093   -0.618135
      7          1           0        3.899112   -3.278156    0.739727
      8          1           0        2.500053   -1.925961    2.288804
      9          1           0        2.068504    0.492219    1.792564
     10          1           0        4.426316    0.192037   -1.781212
     11          1           0        4.865556   -2.227123   -1.296630
     12          7           0        2.972552    1.868998   -0.303913
     13          8           0        3.473556    2.338969   -1.323109
     14          8           0        2.274874    2.491578    0.493755
     15          6           0       -5.689833    0.515628   -0.061875
     16          6           0       -5.251012   -0.496645   -0.921677
     17          6           0       -3.913662   -0.904068   -0.914524
     18          6           0       -3.038327   -0.274835   -0.030701
     19          6           0       -3.445144    0.736633    0.838047
     20          6           0       -4.787091    1.127958    0.813699
     21          1           0       -6.730504    0.825871   -0.074110
     22          1           0       -5.949865   -0.973960   -1.602720
     23          1           0       -3.547125   -1.685165   -1.569470
     24          1           0       -2.725015    1.193775    1.505769
     25          1           0       -5.125075    1.914371    1.482552
     26          7           0       -1.620102   -0.697633   -0.014027
     27          8           0       -0.868752   -0.127516    0.774057
     28          8           0       -1.286701   -1.591134   -0.789358
 ---------------------------------------------------------------------

 SCF Done:  E(RHF) =  -868.338959601     A.U. after   16 cycles
 E2 =    -0.2599167955D+01 EUMP2 =    -0.87093812755581D+03

 The electronic state is 1-A.
 Alpha  occ. eigenvalues --  -20.60970 -20.60961 -20.59616 -20.59594 -15.86009
 Alpha  occ. eigenvalues --  -15.84655 -11.31233 -11.29762 -11.27803 -11.27767
 Alpha  occ. eigenvalues --  -11.27519 -11.26790 -11.26761 -11.26441 -11.26283
 Alpha  occ. eigenvalues --  -11.26163 -11.25420 -11.25292  -1.60032  -1.58683
 Alpha  occ. eigenvalues --   -1.39591  -1.38243  -1.19396  -1.17956  -1.08820
 Alpha  occ. eigenvalues --   -1.07421  -1.04779  -1.03336  -0.95679  -0.94288
 Alpha  occ. eigenvalues --   -0.86185  -0.84770  -0.82516  -0.81137  -0.77574
 Alpha  occ. eigenvalues --   -0.76190  -0.72251  -0.71341  -0.70898  -0.70508
 Alpha  occ. eigenvalues --   -0.69986  -0.69129  -0.65056  -0.64785  -0.63643
 Alpha  occ. eigenvalues --   -0.63392  -0.62127  -0.60706  -0.55294  -0.53931
 Alpha  occ. eigenvalues --   -0.53115  -0.52872  -0.51671  -0.51472  -0.48984
 Alpha  occ. eigenvalues --   -0.48967  -0.47650  -0.47629  -0.45026  -0.43705
 Alpha  occ. eigenvalues --   -0.37373  -0.36375  -0.35955  -0.34863
 Alpha virt. eigenvalues --    0.04953   0.06358   0.11282   0.12762   0.16471
 Alpha virt. eigenvalues --    0.17864   0.21418   0.22673   0.27342   0.28244
 Alpha virt. eigenvalues --    0.28610   0.29554   0.30989   0.32140   0.32547

 Mulliken charges:
               1
     1  C   -0.168877
     2  C   -0.215483
     3  C   -0.149523
     4  C    0.155090
     5  C   -0.171029
     6  C   -0.219080
     7  H    0.220688
     8  H    0.220251
     9  H    0.277565
    10  H    0.270703
    11  H    0.217785
    12  N    0.488717
    13  O   -0.466696
    14  O   -0.461679
    15  C   -0.170286
    16  C   -0.218651
    17  C   -0.170705
    18  C    0.158006
    19  C   -0.169751
    20  C   -0.218566
    21  H    0.226061
    22  H    0.223420
    23  H    0.274860
    24  H    0.277559
    25  H    0.224657
    26  N    0.490186
    27  O   -0.464416
    28  O   -0.460804
 Sum of Mulliken charges =  -0.00000

 Dipole moment (field-independent basis, Debye):
    X=             -4.4576    Y=             -3.5351    Z=              1.0885  Tot=              5.7924
 Quadrupole moment (field-independent basis, Debye-Ang):
   XX=            -69.1035   YY=           -109.3422   ZZ=            -99.5540
   XY=            -18.9118   XZ=              2.1346   YZ=              3.7609

 Normal termination of Gaussian 16 at Thu May  6 22:55:33 2021.
