 Gaussian 16, Revision A.03,
 Gaussian 16:  EM64L-G16RevA.03 25-Dec-2016

 -------------
 #p 6-31g* mp2
 -------------

 ------------------------------------------------------
 Input file generated by CHIRIPA (05-May-2021 14:51:08)
 ------------------------------------------------------
 Symbolic Z-matrix:
 Charge =  0 Multiplicity = 1

                         Standard orientation:
 ---------------------------------------------------------------------
 Center     Atomic      Atomic             Coordinates (Angstroms)
 Number     Number       Type             X           Y           Z
 ---------------------------------------------------------------------
      1          6           0        4.056582   -0.431717    0.172866
      2          6           0        3.844428   -1.768228   -0.538972
      3          6           0        4.639939   -2.909092    0.096155
      4          1           0        5.126893   -0.184164    0.163077
      5          1           0        3.769707   -0.536798    1.228354
      6          1           0        4.130311   -1.660279   -1.593123
      7          1           0        2.774474   -2.012535   -0.527656
      8          1           0        4.349038   -3.045583    1.142744
      9          1           0        5.712579   -2.691326    0.071223
     10          1           0        4.473546   -3.855163   -0.428366
     11          6           0        3.267888    0.718560   -0.450475
     12          6           0        3.480042    2.055071    0.261363
     13          6           0        2.684531    3.195935   -0.373765
     14          1           0        3.554764    0.823641   -1.505963
     15          1           0        2.197577    0.471007   -0.440686
     16          1           0        4.549996    2.299378    0.250046
     17          1           0        3.194159    1.947122    1.315513
     18          1           0        1.611891    2.978169   -0.348832
     19          1           0        2.975432    3.332426   -1.420353
     20          1           0        2.850924    4.142007    0.150756
     21          6           0       -4.387434   -0.035847    0.353154
     22          6           0       -5.402430   -0.445065   -0.714699
     23          6           0       -6.848841   -0.223924   -0.271092
     24          1           0       -4.581787   -0.605575    1.272166
     25          1           0       -4.536989    1.023330    0.604496
     26          1           0       -5.250100   -1.502791   -0.964951
     27          1           0       -5.205518    0.125566   -1.631336
     28          1           0       -7.023865    0.831868   -0.040289
     29          1           0       -7.068698   -0.805740    0.629882
     30          1           0       -7.557691   -0.523067   -1.049490
     31          6           0       -2.937036   -0.250996   -0.075545
     32          6           0       -1.922040    0.158221    0.992308
     33          6           0       -0.475630   -0.062920    0.548701
     34          1           0       -2.787482   -1.310173   -0.326887
     35          1           0       -2.742684    0.318732   -0.994556
     36          1           0       -2.118952   -0.412409    1.908945
     37          1           0       -2.074372    1.215948    1.242560
     38          1           0       -0.255771    0.518897   -0.352272
     39          1           0       -0.300606   -1.118711    0.317899
     40          1           0        0.233220    0.236224    1.327100
 ---------------------------------------------------------------------

 SCF Done:  E(RHF) =  -470.732969032     A.U. after   11 cycles
 E2 =    -0.1583264803D+01 EUMP2 =    -0.47231623383469D+03

 The electronic state is 1-A.
 Alpha  occ. eigenvalues --  -11.21692 -11.21636 -11.21523 -11.21518 -11.21464
 Alpha  occ. eigenvalues --  -11.21401 -11.21284 -11.21222 -11.21163 -11.21097
 Alpha  occ. eigenvalues --  -11.21020 -11.21017  -1.08496  -1.08324  -1.03609
 Alpha  occ. eigenvalues --   -1.03450  -0.96072  -0.95891  -0.87103  -0.86906
 Alpha  occ. eigenvalues --   -0.79702  -0.79502  -0.78320  -0.78110  -0.65135
 Alpha  occ. eigenvalues --   -0.64961  -0.61057  -0.60811  -0.59423  -0.59265
 Alpha  occ. eigenvalues --   -0.57671  -0.57508  -0.55357  -0.55195  -0.52790
 Alpha  occ. eigenvalues --   -0.52609  -0.52500  -0.52300  -0.50045  -0.49817
 Alpha  occ. eigenvalues --   -0.48019  -0.47827  -0.46770  -0.46484  -0.45949
 Alpha  occ. eigenvalues --   -0.45769  -0.45656  -0.45428  -0.43812  -0.43688
 Alpha virt. eigenvalues --    0.20916   0.22913   0.23777   0.24784   0.25547
 Alpha virt. eigenvalues --    0.26477   0.26714   0.27671   0.27811   0.29536
 Alpha virt. eigenvalues --    0.29969   0.31063   0.31761   0.32155   0.32311

 Mulliken charges:
               1
     1  C   -0.297340
     2  C   -0.300425
     3  C   -0.475630
     4  H    0.149016
     5  H    0.148732
     6  H    0.151652
     7  H    0.152702
     8  H    0.154973
     9  H    0.155045
    10  H    0.159841
    11  C   -0.309838
    12  C   -0.298870
    13  C   -0.477014
    14  H    0.148151
    15  H    0.165360
    16  H    0.151537
    17  H    0.150927
    18  H    0.155824
    19  H    0.154915
    20  H    0.159859
    21  C   -0.298390
    22  C   -0.299700
    23  C   -0.475752
    24  H    0.149757
    25  H    0.149702
    26  H    0.152001
    27  H    0.152087
    28  H    0.155269
    29  H    0.155218
    30  H    0.160402
    31  C   -0.298688
    32  C   -0.300330
    33  C   -0.480027
    34  H    0.149671
    35  H    0.150025
    36  H    0.152267
    37  H    0.152458
    38  H    0.157018
    39  H    0.156206
    40  H    0.161386
 Sum of Mulliken charges =  -0.00000

 Dipole moment (field-independent basis, Debye):
    X=             -0.0828    Y=             -0.0132    Z=             -0.0015  Tot=              0.0838
 Quadrupole moment (field-independent basis, Debye-Ang):
   XX=            -85.8651   YY=            -84.8196   ZZ=            -84.4301
   XY=              0.7448   XZ=             -0.4845   YZ=             -0.2030

 Normal termination of Gaussian 16 at Thu May  6 03:41:45 2021.
