 Gaussian 16, Revision A.03,
 Gaussian 16:  EM64L-G16RevA.03 25-Dec-2016

 -------------
 #p 6-31g* mp2
 -------------

 ------------------------------------------------------
 Input file generated by CHIRIPA (05-May-2021 14:55:19)
 ------------------------------------------------------
 Symbolic Z-matrix:
 Charge =  0 Multiplicity = 1

                         Standard orientation:
 ---------------------------------------------------------------------
 Center     Atomic      Atomic             Coordinates (Angstroms)
 Number     Number       Type             X           Y           Z
 ---------------------------------------------------------------------
      1          6           0       -3.689691   -1.872320   -0.913887
      2          6           0       -2.504119   -2.240806   -0.269559
      3          6           0       -1.730772   -1.284738    0.395585
      4          6           0       -2.174775    0.036682    0.396468
      5          6           0       -3.351325    0.434992   -0.236280
      6          6           0       -4.108771   -0.537950   -0.895224
      7          1           0       -4.284269   -2.621571   -1.428179
      8          1           0       -2.176208   -3.276352   -0.282415
      9          1           0       -0.808826   -1.542497    0.902531
     10          1           0       -3.652413    1.475116   -0.206203
     11          1           0       -5.029070   -0.248895   -1.394766
     12          7           0       -1.364484    1.057760    1.097345
     13          8           0       -1.777425    2.215312    1.083549
     14          8           0       -0.331781    0.681194    1.647216
     15          6           0        2.534266    0.604000   -0.825463
     16          6           0        2.408584    2.052462   -0.352019
     17          6           0        1.564686    2.911297   -1.294373
     18          1           0        2.976633    0.590675   -1.830987
     19          1           0        1.530082    0.168019   -0.919958
     20          1           0        3.412770    2.485152   -0.257117
     21          1           0        1.966643    2.062331    0.652574
     22          1           0        0.551384    2.506014   -1.381354
     23          1           0        2.005729    2.931237   -2.296214
     24          1           0        1.487951    3.942883   -0.936881
     25          6           0        3.375036   -0.267094    0.106218
     26          6           0        3.500717   -1.715555   -0.367226
     27          6           0        4.344615   -2.574389    0.575129
     28          1           0        4.379219    0.168889    0.200712
     29          1           0        2.932669   -0.253767    1.111743
     30          1           0        3.942659   -1.725423   -1.371819
     31          1           0        2.496532   -2.148245   -0.462128
     32          1           0        3.903574   -2.594330    1.576969
     33          1           0        5.357918   -2.169106    0.662110
     34          1           0        4.421351   -3.605975    0.217635
 ---------------------------------------------------------------------

 SCF Done:  E(RHF) =  -669.536639029     A.U. after   15 cycles
 E2 =    -0.2092877666D+01 EUMP2 =    -0.67162951669494D+03

 The electronic state is 1-A.
 Alpha  occ. eigenvalues --  -20.61087 -20.61081 -15.86090 -11.31368 -11.27921
 Alpha  occ. eigenvalues --  -11.27911 -11.27641 -11.26912 -11.26902 -11.21237
 Alpha  occ. eigenvalues --  -11.20787 -11.20629 -11.20525 -11.20299 -11.20049
 Alpha  occ. eigenvalues --   -1.60128  -1.39686  -1.19525  -1.08938  -1.07647
 Alpha  occ. eigenvalues --   -1.04911  -1.02767  -0.95788  -0.95246  -0.86314
 Alpha  occ. eigenvalues --   -0.86274  -0.82623  -0.78865  -0.77685  -0.77412
 Alpha  occ. eigenvalues --   -0.72317  -0.71454  -0.70630  -0.65186  -0.64912
 Alpha  occ. eigenvalues --   -0.64244  -0.62258  -0.60145  -0.58654  -0.56840
 Alpha  occ. eigenvalues --   -0.55416  -0.54541  -0.53242  -0.53001  -0.51971
 Alpha  occ. eigenvalues --   -0.51677  -0.49243  -0.49092  -0.49067  -0.47179
 Alpha  occ. eigenvalues --   -0.45922  -0.45193  -0.44930  -0.44653  -0.43011
 Alpha  occ. eigenvalues --   -0.37495  -0.36505
 Alpha virt. eigenvalues --    0.04803   0.11093   0.16273   0.20850   0.23142
 Alpha virt. eigenvalues --    0.24883   0.26324   0.27437   0.28236   0.28425
 Alpha virt. eigenvalues --    0.28952   0.31145   0.31718   0.32358   0.32610

 Mulliken charges:
               1
     1  C   -0.170338
     2  C   -0.218403
     3  C   -0.171522
     4  C    0.157870
     5  C   -0.170680
     6  C   -0.218413
     7  H    0.226406
     8  H    0.224379
     9  H    0.276268
    10  H    0.276200
    11  H    0.224217
    12  N    0.489064
    13  O   -0.457372
    14  O   -0.460499
    15  C   -0.292856
    16  C   -0.309314
    17  C   -0.471679
    18  H    0.143401
    19  H    0.142617
    20  H    0.145536
    21  H    0.179050
    22  H    0.150371
    23  H    0.147675
    24  H    0.162388
    25  C   -0.301208
    26  C   -0.297332
    27  C   -0.475423
    28  H    0.147651
    29  H    0.160590
    30  H    0.150330
    31  H    0.143161
    32  H    0.155365
    33  H    0.156058
    34  H    0.156441
 Sum of Mulliken charges =  -0.00000

 Dipole moment (field-independent basis, Debye):
    X=             -3.0952    Y=             -3.4971    Z=             -2.2392  Tot=              5.1793
 Quadrupole moment (field-independent basis, Debye-Ang):
   XX=            -80.3721   YY=            -93.5153   ZZ=            -97.4543
   XY=              6.0670   XZ=              5.1673   YZ=             -1.8461

 Normal termination of Gaussian 16 at Thu May  6 02:54:54 2021.
