 Gaussian 16, Revision A.03,
 Gaussian 16:  EM64L-G16RevA.03 25-Dec-2016

 -------------
 #p 6-31g* mp2
 -------------

 ------------------------------------------------------
 Input file generated by CHIRIPA (05-May-2021 14:53:13)
 ------------------------------------------------------
 Symbolic Z-matrix:
 Charge =  0 Multiplicity = 1

                         Standard orientation:
 ---------------------------------------------------------------------
 Center     Atomic      Atomic             Coordinates (Angstroms)
 Number     Number       Type             X           Y           Z
 ---------------------------------------------------------------------
      1          6           0       -3.525956    0.370391   -0.325006
      2          6           0       -3.892939   -1.085939   -0.037932
      3          6           0       -4.929964   -1.638166   -1.016410
      4          1           0       -4.435051    0.985868   -0.284055
      5          1           0       -3.141341    0.448847   -1.351315
      6          1           0       -4.275452   -1.161859    0.988000
      7          1           0       -2.982835   -1.697992   -0.079381
      8          1           0       -4.553718   -1.591511   -2.043475
      9          1           0       -5.853679   -1.052332   -0.970029
     10          1           0       -5.177722   -2.680525   -0.792884
     11          6           0       -2.490291    0.936639    0.644782
     12          6           0       -2.123307    2.392969    0.357708
     13          6           0       -1.086282    2.945195    1.336186
     14          1           0       -2.874905    0.858182    1.671091
     15          1           0       -1.581195    0.321161    0.603832
     16          1           0       -3.033411    3.005022    0.399158
     17          1           0       -1.740795    2.468889   -0.668224
     18          1           0       -0.162567    2.359362    1.289805
     19          1           0       -1.462529    2.898541    2.363251
     20          1           0       -0.838524    3.987554    1.112660
     21          6           0        1.033399   -2.497220    0.702981
     22          6           0        0.427999   -1.557229   -0.137511
     23          6           0        1.147943   -0.452596   -0.602288
     24          6           0        2.477389   -0.318495   -0.204950
     25          6           0        3.108586   -1.237930    0.631423
     26          6           0        2.369405   -2.334857    1.084094
     27          1           0        0.466658   -3.352332    1.059329
     28          1           0       -0.609408   -1.680764   -0.435119
     29          1           0        0.703988    0.290203   -1.253879
     30          1           0        4.144332   -1.087822    0.910916
     31          1           0        2.842158   -3.063284    1.736737
     32          7           0        3.249745    0.846850   -0.690580
     33          8           0        4.419632    0.942231   -0.326024
     34          8           0        2.670604    1.642802   -1.426579
 ---------------------------------------------------------------------

 SCF Done:  E(RHF) =  -669.534489952     A.U. after   15 cycles
 E2 =    -0.2094004397D+01 EUMP2 =    -0.67162849434992D+03

 The electronic state is 1-A.
 Alpha  occ. eigenvalues --  -20.60818 -20.60813 -15.85872 -11.31264 -11.27834
 Alpha  occ. eigenvalues --  -11.27820 -11.27553 -11.26840 -11.26807 -11.22497
 Alpha  occ. eigenvalues --  -11.22032 -11.21844 -11.21776 -11.21770 -11.21070
 Alpha  occ. eigenvalues --   -1.59892  -1.39445  -1.19438  -1.09008  -1.08815
 Alpha  occ. eigenvalues --   -1.04847  -1.04007  -0.96424  -0.95652  -0.87441
 Alpha  occ. eigenvalues --   -0.86239  -0.82498  -0.80115  -0.78796  -0.77523
 Alpha  occ. eigenvalues --   -0.72088  -0.71216  -0.70531  -0.65813  -0.65079
 Alpha  occ. eigenvalues --   -0.64775  -0.62152  -0.61420  -0.59819  -0.58028
 Alpha  occ. eigenvalues --   -0.55720  -0.55326  -0.53211  -0.53126  -0.52916
 Alpha  occ. eigenvalues --   -0.52814  -0.50391  -0.48856  -0.48842  -0.48397
 Alpha  occ. eigenvalues --   -0.47181  -0.46282  -0.46211  -0.44840  -0.44259
 Alpha  occ. eigenvalues --   -0.37403  -0.36368
 Alpha virt. eigenvalues --    0.04970   0.11108   0.16316   0.19071   0.22901
 Alpha virt. eigenvalues --    0.23287   0.25467   0.26236   0.27354   0.28446
 Alpha virt. eigenvalues --    0.29623   0.30313   0.31360   0.31530   0.32162

 Mulliken charges:
               1
     1  C   -0.299702
     2  C   -0.302331
     3  C   -0.475602
     4  H    0.154440
     5  H    0.147275
     6  H    0.155875
     7  H    0.140311
     8  H    0.155808
     9  H    0.159251
    10  H    0.160677
    11  C   -0.307427
    12  C   -0.300792
    13  C   -0.475653
    14  H    0.151081
    15  H    0.150227
    16  H    0.153247
    17  H    0.152774
    18  H    0.157080
    19  H    0.153677
    20  H    0.165302
    21  C   -0.174326
    22  C   -0.223528
    23  C   -0.172880
    24  C    0.158275
    25  C   -0.170891
    26  C   -0.218367
    27  H    0.226365
    28  H    0.234900
    29  H    0.277268
    30  H    0.275970
    31  H    0.223910
    32  N    0.488056
    33  O   -0.460022
    34  O   -0.460250
 Sum of Mulliken charges =  -0.00000

 Dipole moment (field-independent basis, Debye):
    X=             -2.7455    Y=             -4.0321    Z=              1.7448  Tot=              5.1807
 Quadrupole moment (field-independent basis, Debye-Ang):
   XX=           -104.6473   YY=            -92.0891   ZZ=            -94.8195
   XY=            -11.6588   XZ=              6.2701   YZ=             -0.8455

 Normal termination of Gaussian 16 at Thu May  6 10:30:31 2021.
