 Gaussian 16, Revision A.03,
 Gaussian 16:  EM64L-G16RevA.03 25-Dec-2016

 -------------
 #p 6-31g* mp2
 -------------

 ------------------------------------------------------
 Input file generated by CHIRIPA (05-May-2021 14:55:22)
 ------------------------------------------------------
 Symbolic Z-matrix:
 Charge =  0 Multiplicity = 1

                         Standard orientation:
 ---------------------------------------------------------------------
 Center     Atomic      Atomic             Coordinates (Angstroms)
 Number     Number       Type             X           Y           Z
 ---------------------------------------------------------------------
      1          6           0       -0.984042   -2.341809    0.597159
      2          6           0       -1.483892   -2.118120   -0.689944
      3          6           0       -2.184849   -0.945145   -0.985473
      4          6           0       -2.368482   -0.013025    0.034684
      5          6           0       -1.882660   -0.207002    1.326829
      6          6           0       -1.184668   -1.387219    1.599671
      7          1           0       -0.440673   -3.255817    0.817922
      8          1           0       -1.329587   -2.857713   -1.470480
      9          1           0       -2.582573   -0.746481   -1.973282
     10          1           0       -2.052321    0.548740    2.084118
     11          1           0       -0.797606   -1.558267    2.600156
     12          7           0       -3.108984    1.232585   -0.266171
     13          8           0       -3.257389    2.038183    0.650139
     14          8           0       -3.526963    1.379709   -1.412594
     15          6           0        2.487046   -0.373055   -0.025243
     16          6           0        3.288227   -1.610989   -0.429735
     17          6           0        2.497760   -2.908582   -0.258833
     18          1           0        2.169531   -0.475498    1.021482
     19          1           0        1.568982   -0.326213   -0.627207
     20          1           0        4.205179   -1.654729    0.171847
     21          1           0        3.604035   -1.505499   -1.475562
     22          1           0        1.590769   -2.890718   -0.871736
     23          1           0        2.195330   -3.040796    0.785033
     24          1           0        3.089369   -3.780874   -0.553730
     25          6           0        3.263834    0.931944   -0.190483
     26          6           0        2.462654    2.169878    0.214009
     27          6           0        3.253121    3.467472    0.043107
     28          1           0        4.181898    0.885102    0.411481
     29          1           0        3.581349    1.034388   -1.237208
     30          1           0        2.146846    2.064388    1.259836
     31          1           0        1.545701    2.213619   -0.387573
     32          1           0        3.555551    3.599686   -1.000759
     33          1           0        4.160112    3.449608    0.656009
     34          1           0        2.661510    4.339764    0.338004
 ---------------------------------------------------------------------

 SCF Done:  E(RHF) =  -669.534714361     A.U. after   15 cycles
 E2 =    -0.2093672338D+01 EUMP2 =    -0.67162838669854D+03

 The electronic state is 1-A.
 Alpha  occ. eigenvalues --  -20.60766 -20.60761 -15.85823 -11.31178 -11.27789
 Alpha  occ. eigenvalues --  -11.27771 -11.27459 -11.26762 -11.26739 -11.22152
 Alpha  occ. eigenvalues --  -11.21937 -11.21696 -11.21679 -11.21564 -11.21066
 Alpha  occ. eigenvalues --   -1.59843  -1.39397  -1.19366  -1.08806  -1.08689
 Alpha  occ. eigenvalues --   -1.04773  -1.03884  -0.96363  -0.95581  -0.87388
 Alpha  occ. eigenvalues --   -0.86167  -0.82425  -0.79970  -0.78511  -0.77473
 Alpha  occ. eigenvalues --   -0.72040  -0.71168  -0.70469  -0.65382  -0.65014
 Alpha  occ. eigenvalues --   -0.64782  -0.62128  -0.61286  -0.59742  -0.57963
 Alpha  occ. eigenvalues --   -0.55665  -0.55268  -0.53182  -0.53015  -0.52865
 Alpha  occ. eigenvalues --   -0.52731  -0.50321  -0.48798  -0.48794  -0.48249
 Alpha  occ. eigenvalues --   -0.46989  -0.46052  -0.45947  -0.44805  -0.44104
 Alpha  occ. eigenvalues --   -0.37239  -0.36366
 Alpha virt. eigenvalues --    0.05063   0.11114   0.16520   0.20600   0.22712
 Alpha virt. eigenvalues --    0.24176   0.25565   0.26424   0.27088   0.27552
 Alpha virt. eigenvalues --    0.29254   0.29845   0.31210   0.31489   0.32181

 Mulliken charges:
               1
     1  C   -0.164175
     2  C   -0.222101
     3  C   -0.171637
     4  C    0.157678
     5  C   -0.169815
     6  C   -0.219359
     7  H    0.229563
     8  H    0.223331
     9  H    0.275549
    10  H    0.275618
    11  H    0.222746
    12  N    0.488109
    13  O   -0.460424
    14  O   -0.460830
    15  C   -0.299266
    16  C   -0.299257
    17  C   -0.477224
    18  H    0.145744
    19  H    0.154531
    20  H    0.153208
    21  H    0.153972
    22  H    0.152077
    23  H    0.147267
    24  H    0.161832
    25  C   -0.298951
    26  C   -0.299345
    27  C   -0.476130
    28  H    0.148755
    29  H    0.150300
    30  H    0.150037
    31  H    0.154971
    32  H    0.155742
    33  H    0.154034
    34  H    0.163449
 Sum of Mulliken charges =  -0.00000

 Dipole moment (field-independent basis, Debye):
    X=              2.6162    Y=             -4.3178    Z=              1.0435  Tot=              5.1553
 Quadrupole moment (field-independent basis, Debye-Ang):
   XX=           -108.0691   YY=            -95.8681   ZZ=            -89.3975
   XY=             10.3567   XZ=             -1.5387   YZ=              1.4360

 Normal termination of Gaussian 16 at Thu May  6 19:11:06 2021.
