 Gaussian 16, Revision A.03,
 Gaussian 16:  EM64L-G16RevA.03 25-Dec-2016

 -------------
 #p 6-31g* mp2
 -------------

 ------------------------------------------------------
 Input file generated by CHIRIPA (05-May-2021 14:51:13)
 ------------------------------------------------------
 Symbolic Z-matrix:
 Charge =  0 Multiplicity = 1

                         Standard orientation:
 ---------------------------------------------------------------------
 Center     Atomic      Atomic             Coordinates (Angstroms)
 Number     Number       Type             X           Y           Z
 ---------------------------------------------------------------------
      1          6           0        4.224912    0.552297    0.018906
      2          6           0        3.768308    1.990613   -0.227561
      3          6           0        4.841155    3.020497    0.127589
      4          1           0        4.507909    0.439958    1.074480
      5          1           0        5.131556    0.356741   -0.570287
      6          1           0        2.862004    2.182963    0.360854
      7          1           0        3.486183    2.099491   -1.282628
      8          1           0        5.744624    2.856899   -0.468717
      9          1           0        5.116899    2.940846    1.184103
     10          1           0        4.493655    4.041918   -0.056267
     11          6           0        3.163252   -0.488795   -0.331426
     12          6           0        3.619856   -1.927111   -0.084959
     13          6           0        2.547008   -2.956995   -0.440109
     14          1           0        2.256607   -0.293239    0.257767
     15          1           0        2.880255   -0.376456   -1.387000
     16          1           0        3.901980   -2.035988    0.970108
     17          1           0        4.526159   -2.119461   -0.673374
     18          1           0        2.271265   -2.877344   -1.496623
     19          1           0        1.643539   -2.793397    0.156197
     20          1           0        2.894509   -3.978416   -0.256253
     21          6           0       -3.114822   -0.508576    0.012983
     22          6           0       -1.940329   -0.343060    0.977948
     23          6           0       -0.789272   -1.303883    0.678477
     24          1           0       -3.477836   -1.544342    0.061518
     25          1           0       -2.760983   -0.349226   -1.015024
     26          1           0       -2.296566   -0.501312    2.003943
     27          1           0       -1.580192    0.692482    0.927252
     28          1           0       -0.406310   -1.142447   -0.334380
     29          1           0       -1.126754   -2.343024    0.748429
     30          1           0        0.039646   -1.168420    1.380192
     31          6           0       -4.273341    0.445074    0.299536
     32          6           0       -5.447835    0.279558   -0.665427
     33          6           0       -6.598891    1.240380   -0.365958
     34          1           0       -4.627182    0.285723    1.327544
     35          1           0       -3.910328    1.480839    0.251003
     36          1           0       -5.807971   -0.755984   -0.614732
     37          1           0       -5.091598    0.437809   -1.691424
     38          1           0       -6.261409    2.279521   -0.435910
     39          1           0       -6.981853    1.078944    0.646900
     40          1           0       -7.427810    1.104918   -1.067672
 ---------------------------------------------------------------------

 SCF Done:  E(RHF) =  -470.732613114     A.U. after   11 cycles
 E2 =    -0.1583286283D+01 EUMP2 =    -0.47231589939661D+03

 The electronic state is 1-A.
 Alpha  occ. eigenvalues --  -11.21631 -11.21612 -11.21580 -11.21507 -11.21424
 Alpha  occ. eigenvalues --  -11.21364 -11.21341 -11.21261 -11.21115 -11.21080
 Alpha  occ. eigenvalues --  -11.21055 -11.20877  -1.08456  -1.08364  -1.03576
 Alpha  occ. eigenvalues --   -1.03447  -0.96033  -0.95891  -0.87070  -0.86900
 Alpha  occ. eigenvalues --   -0.79715  -0.79454  -0.78282  -0.78152  -0.65095
 Alpha  occ. eigenvalues --   -0.64997  -0.60974  -0.60870  -0.59431  -0.59222
 Alpha  occ. eigenvalues --   -0.57652  -0.57497  -0.55316  -0.55189  -0.52788
 Alpha  occ. eigenvalues --   -0.52594  -0.52518  -0.52224  -0.49982  -0.49825
 Alpha  occ. eigenvalues --   -0.47999  -0.47764  -0.46682  -0.46547  -0.45848
 Alpha  occ. eigenvalues --   -0.45750  -0.45681  -0.45565  -0.43751  -0.43698
 Alpha virt. eigenvalues --    0.21707   0.23049   0.23680   0.24745   0.26246
 Alpha virt. eigenvalues --    0.26564   0.26915   0.27422   0.28004   0.29385
 Alpha virt. eigenvalues --    0.30163   0.31331   0.31464   0.31817   0.32225

 Mulliken charges:
               1
     1  C   -0.297986
     2  C   -0.299493
     3  C   -0.475626
     4  H    0.149265
     5  H    0.149363
     6  H    0.151508
     7  H    0.151678
     8  H    0.155204
     9  H    0.155133
    10  H    0.160030
    11  C   -0.303386
    12  C   -0.298945
    13  C   -0.483825
    14  H    0.155641
    15  H    0.148505
    16  H    0.150897
    17  H    0.151275
    18  H    0.153623
    19  H    0.168096
    20  H    0.158919
    21  C   -0.298674
    22  C   -0.301041
    23  C   -0.479382
    24  H    0.149809
    25  H    0.149857
    26  H    0.151844
    27  H    0.152075
    28  H    0.159749
    29  H    0.155573
    30  H    0.160121
    31  C   -0.298357
    32  C   -0.299643
    33  C   -0.475719
    34  H    0.149528
    35  H    0.149709
    36  H    0.151989
    37  H    0.151995
    38  H    0.155200
    39  H    0.155182
    40  H    0.160310
 Sum of Mulliken charges =  -0.00000

 Dipole moment (field-independent basis, Debye):
    X=             -0.0653    Y=             -0.0054    Z=              0.0084  Tot=              0.0661
 Quadrupole moment (field-independent basis, Debye-Ang):
   XX=            -86.0417   YY=            -85.5316   ZZ=            -83.5487
   XY=              0.3667   XZ=             -0.6136   YZ=             -0.6815

 Normal termination of Gaussian 16 at Wed May  5 23:13:57 2021.
