 Gaussian 16, Revision A.03,
 Gaussian 16:  EM64L-G16RevA.03 25-Dec-2016

 -------------
 #p 6-31g* mp2
 -------------

 ------------------------------------------------------
 Input file generated by CHIRIPA (05-May-2021 14:53:16)
 ------------------------------------------------------
 Symbolic Z-matrix:
 Charge =  0 Multiplicity = 1

                         Standard orientation:
 ---------------------------------------------------------------------
 Center     Atomic      Atomic             Coordinates (Angstroms)
 Number     Number       Type             X           Y           Z
 ---------------------------------------------------------------------
      1          6           0        3.214696    1.201576   -0.114449
      2          6           0        1.719984    1.514481   -0.037572
      3          6           0        1.438754    2.991236    0.241529
      4          1           0        3.693373    1.495395    0.829735
      5          1           0        3.671216    1.817827   -0.901353
      6          1           0        1.266161    0.896816    0.748019
      7          1           0        1.244777    1.219706   -0.981977
      8          1           0        1.864979    3.620237   -0.546690
      9          1           0        1.886486    3.295513    1.193135
     10          1           0        0.364181    3.192646    0.292404
     11          6           0        3.511875   -0.270790   -0.392928
     12          6           0        5.006587   -0.583695   -0.469805
     13          6           0        5.287817   -2.060451   -0.748906
     14          1           0        3.055355   -0.887042    0.393977
     15          1           0        3.033198   -0.564609   -1.337112
     16          1           0        5.481794   -0.288921    0.474600
     17          1           0        5.460410    0.033969   -1.255395
     18          1           0        4.840085   -2.364727   -1.700512
     19          1           0        4.861592   -2.689452    0.039314
     20          1           0        6.362390   -2.261860   -0.799781
     21          6           0       -4.188498    0.154161   -1.715272
     22          6           0       -3.667228    1.192588   -0.936511
     23          6           0       -2.801466    0.917424    0.126168
     24          6           0       -2.476662   -0.413642    0.383181
     25          6           0       -2.979627   -1.470143   -0.374526
     26          6           0       -3.843642   -1.171554   -1.432294
     27          1           0       -4.860364    0.377014   -2.538878
     28          1           0       -3.933310    2.223100   -1.153971
     29          1           0       -2.383455    1.702023    0.745110
     30          1           0       -2.696076   -2.487445   -0.133459
     31          1           0       -4.246951   -1.980034   -2.035407
     32          7           0       -1.561043   -0.717347    1.505592
     33          8           0       -1.290346   -1.898429    1.711511
     34          8           0       -1.131414    0.231445    2.158165
 ---------------------------------------------------------------------

 SCF Done:  E(RHF) =  -669.536394252     A.U. after   15 cycles
 E2 =    -0.2091629875D+01 EUMP2 =    -0.67162802412665D+03

 The electronic state is 1-A.
 Alpha  occ. eigenvalues --  -20.60942 -20.60934 -15.85956 -11.31262 -11.27825
 Alpha  occ. eigenvalues --  -11.27821 -11.27561 -11.26832 -11.26822 -11.21114
 Alpha  occ. eigenvalues --  -11.20882 -11.20811 -11.20754 -11.20629 -11.20627
 Alpha  occ. eigenvalues --   -1.59993  -1.39550  -1.19429  -1.08837  -1.07853
 Alpha  occ. eigenvalues --   -1.04824  -1.02989  -0.95684  -0.95463  -0.86486
 Alpha  occ. eigenvalues --   -0.86225  -0.82519  -0.79056  -0.77679  -0.77558
 Alpha  occ. eigenvalues --   -0.72185  -0.71299  -0.70541  -0.65087  -0.64830
 Alpha  occ. eigenvalues --   -0.64469  -0.62176  -0.60371  -0.58842  -0.57078
 Alpha  occ. eigenvalues --   -0.55332  -0.54746  -0.53153  -0.52921  -0.52184
 Alpha  occ. eigenvalues --   -0.51893  -0.49401  -0.48950  -0.48943  -0.47397
 Alpha  occ. eigenvalues --   -0.46118  -0.45330  -0.45197  -0.44637  -0.43248
 Alpha  occ. eigenvalues --   -0.37403  -0.36421
 Alpha virt. eigenvalues --    0.04922   0.11198   0.16408   0.21004   0.23395
 Alpha virt. eigenvalues --    0.24307   0.26661   0.27255   0.27694   0.28188
 Alpha virt. eigenvalues --    0.28974   0.30506   0.31517   0.31939   0.32409

 Mulliken charges:
               1
     1  C   -0.297421
     2  C   -0.310401
     3  C   -0.471481
     4  H    0.150954
     5  H    0.145404
     6  H    0.173094
     7  H    0.144235
     8  H    0.150622
     9  H    0.158375
    10  H    0.151672
    11  C   -0.299811
    12  C   -0.299214
    13  C   -0.475673
    14  H    0.157004
    15  H    0.146129
    16  H    0.152453
    17  H    0.149531
    18  H    0.153223
    19  H    0.157590
    20  H    0.158507
    21  C   -0.170563
    22  C   -0.218741
    23  C   -0.171400
    24  C    0.159105
    25  C   -0.170729
    26  C   -0.218599
    27  H    0.225894
    28  H    0.223862
    29  H    0.277129
    30  H    0.275719
    31  H    0.223703
    32  N    0.487845
    33  O   -0.458893
    34  O   -0.459124
 Sum of Mulliken charges =  -0.00000

 Dipole moment (field-independent basis, Debye):
    X=             -3.3580    Y=              0.9544    Z=             -3.8053  Tot=              5.1641
 Quadrupole moment (field-independent basis, Debye-Ang):
   XX=            -79.8905   YY=            -92.2758   ZZ=            -97.3291
   XY=             -0.6515   XZ=              9.4349   YZ=              2.9230

 Normal termination of Gaussian 16 at Thu May  6 07:32:26 2021.
