 Gaussian 16, Revision A.03,
 Gaussian 16:  EM64L-G16RevA.03 25-Dec-2016

 -------------
 #p 6-31g* mp2
 -------------

 ------------------------------------------------------
 Input file generated by CHIRIPA (05-May-2021 14:57:26)
 ------------------------------------------------------
 Symbolic Z-matrix:
 Charge =  0 Multiplicity = 1

                         Standard orientation:
 ---------------------------------------------------------------------
 Center     Atomic      Atomic             Coordinates (Angstroms)
 Number     Number       Type             X           Y           Z
 ---------------------------------------------------------------------
      1          6           0        1.371919    0.510288    2.700361
      2          6           0        1.707860   -0.806310    2.368346
      3          6           0        2.136924   -1.125398    1.076590
      4          6           0        2.218759   -0.098466    0.137439
      5          6           0        1.891100    1.222832    0.437605
      6          6           0        1.464448    1.518879    1.735631
      7          1           0        1.039549    0.749214    3.706263
      8          1           0        1.636958   -1.591635    3.115530
      9          1           0        2.403216   -2.136247    0.792530
     10          1           0        1.971869    1.984196   -0.328698
     11          1           0        1.204204    2.542249    1.990645
     12          7           0        2.671713   -0.424074   -1.233405
     13          8           0        2.735292    0.498795   -2.042669
     14          8           0        2.954584   -1.595988   -1.472651
     15          6           0       -2.736551   -2.359919    0.118550
     16          6           0       -1.824697   -2.053628   -0.896945
     17          6           0       -1.489026   -0.724784   -1.172708
     18          6           0       -2.086832    0.277282   -0.409960
     19          6           0       -2.998814    0.004112    0.608351
     20          6           0       -3.319671   -1.331884    0.866638
     21          1           0       -2.991554   -3.394976    0.325981
     22          1           0       -1.370283   -2.849962   -1.479530
     23          1           0       -0.786170   -0.459431   -1.953091
     24          1           0       -3.435396    0.819563    1.172135
     25          1           0       -4.028150   -1.566795    1.655890
     26          7           0       -1.739313    1.687856   -0.692648
     27          8           0       -2.279828    2.552417   -0.006343
     28          8           0       -0.932994    1.902192   -1.595170
 ---------------------------------------------------------------------

 SCF Done:  E(RHF) =  -868.339306562     A.U. after   16 cycles
 E2 =    -0.2602459867D+01 EUMP2 =    -0.87094176642936D+03

 The electronic state is 1-A.
 Alpha  occ. eigenvalues --  -20.61037 -20.61007 -20.60696 -20.60613 -15.86040
 Alpha  occ. eigenvalues --  -15.85695 -11.31285 -11.30943 -11.27883 -11.27774
 Alpha  occ. eigenvalues --  -11.27618 -11.27577 -11.27374 -11.27294 -11.26885
 Alpha  occ. eigenvalues --  -11.26772 -11.26589 -11.26406  -1.60092  -1.59745
 Alpha  occ. eigenvalues --   -1.39647  -1.39289  -1.19450  -1.19135  -1.08874
 Alpha  occ. eigenvalues --   -1.08561  -1.04830  -1.04503  -0.95728  -0.95401
 Alpha  occ. eigenvalues --   -0.86238  -0.85904  -0.82556  -0.82220  -0.77621
 Alpha  occ. eigenvalues --   -0.77265  -0.72273  -0.71910  -0.71440  -0.71079
 Alpha  occ. eigenvalues --   -0.70552  -0.70223  -0.65105  -0.64831  -0.64776
 Alpha  occ. eigenvalues --   -0.64485  -0.62169  -0.61814  -0.55355  -0.55034
 Alpha  occ. eigenvalues --   -0.53351  -0.52916  -0.52693  -0.52568  -0.49044
 Alpha  occ. eigenvalues --   -0.49025  -0.48686  -0.48650  -0.45099  -0.44692
 Alpha  occ. eigenvalues --   -0.37447  -0.37254  -0.36338  -0.36049
 Alpha virt. eigenvalues --    0.04863   0.05225   0.11109   0.11623   0.16407
 Alpha virt. eigenvalues --    0.16719   0.21332   0.21762   0.27255   0.27688
 Alpha virt. eigenvalues --    0.28147   0.28684   0.30896   0.31237   0.32271

 Mulliken charges:
               1
     1  C   -0.170602
     2  C   -0.218824
     3  C   -0.171608
     4  C    0.153069
     5  C   -0.169404
     6  C   -0.224047
     7  H    0.224584
     8  H    0.219895
     9  H    0.271334
    10  H    0.288588
    11  H    0.231140
    12  N    0.485062
    13  O   -0.452242
    14  O   -0.467794
    15  C   -0.171561
    16  C   -0.219632
    17  C   -0.174803
    18  C    0.160464
    19  C   -0.172035
    20  C   -0.219354
    21  H    0.225335
    22  H    0.229217
    23  H    0.282980
    24  H    0.272977
    25  H    0.221781
    26  N    0.487568
    27  O   -0.464691
    28  O   -0.457395
 Sum of Mulliken charges =  -0.00000

 Dipole moment (field-independent basis, Debye):
    X=             -2.8013    Y=             -3.6235    Z=              5.6694  Tot=              7.2883
 Quadrupole moment (field-independent basis, Debye-Ang):
   XX=           -106.5668   YY=           -103.2079   ZZ=           -102.2299
   XY=             11.9759   XZ=              6.5179   YZ=              1.8949

 Normal termination of Gaussian 16 at Fri May  7 02:03:02 2021.
