 Gaussian 16, Revision A.03,
 Gaussian 16:  EM64L-G16RevA.03 25-Dec-2016

 -------------
 #p 6-31g* mp2
 -------------

 ------------------------------------------------------
 Input file generated by CHIRIPA (05-May-2021 14:55:23)
 ------------------------------------------------------
 Symbolic Z-matrix:
 Charge =  0 Multiplicity = 1

                         Standard orientation:
 ---------------------------------------------------------------------
 Center     Atomic      Atomic             Coordinates (Angstroms)
 Number     Number       Type             X           Y           Z
 ---------------------------------------------------------------------
      1          6           0        2.692848    2.339356   -0.160932
      2          6           0        1.607872    1.581614   -0.613893
      3          6           0        1.650430    0.184845   -0.571761
      4          6           0        2.798887   -0.424056   -0.068198
      5          6           0        3.896069    0.303308    0.390523
      6          6           0        3.831476    1.698914    0.338949
      7          1           0        2.651229    3.423948   -0.197328
      8          1           0        0.722302    2.076290   -1.002617
      9          1           0        0.824766   -0.426122   -0.915877
     10          1           0        4.765191   -0.218254    0.772644
     11          1           0        4.675580    2.284835    0.691411
     12          7           0        2.855605   -1.902136   -0.018598
     13          8           0        3.878928   -2.414564    0.429583
     14          8           0        1.875664   -2.520241   -0.428840
     15          6           0       -4.130956   -0.271863   -0.031072
     16          6           0       -3.718287   -1.720368    0.232604
     17          6           0       -4.849973   -2.714524   -0.029566
     18          1           0       -4.994006   -0.022277    0.601224
     19          1           0       -4.468843   -0.177961   -1.072422
     20          1           0       -3.379973   -1.811209    1.272753
     21          1           0       -2.856000   -1.966475   -0.400252
     22          1           0       -5.183165   -2.653178   -1.070634
     23          1           0       -5.710117   -2.497029    0.611876
     24          1           0       -4.533218   -3.743894    0.165171
     25          6           0       -3.010264    0.733816    0.226587
     26          6           0       -3.422934    2.182319   -0.037090
     27          6           0       -2.291248    3.176476    0.225083
     28          1           0       -2.672378    0.639914    1.267937
     29          1           0       -2.147215    0.484229   -0.405707
     30          1           0       -4.285221    2.428427    0.595767
     31          1           0       -3.761248    2.273160   -1.077237
     32          1           0       -1.431105    2.958981   -0.416361
     33          1           0       -1.958055    3.115129    1.266149
     34          1           0       -2.608003    4.205847    0.030344
 ---------------------------------------------------------------------

 SCF Done:  E(RHF) =  -669.535426474     A.U. after   15 cycles
 E2 =    -0.2091438792D+01 EUMP2 =    -0.67162686526590D+03

 The electronic state is 1-A.
 Alpha  occ. eigenvalues --  -20.60738 -20.60733 -15.85791 -11.31148 -11.27719
 Alpha  occ. eigenvalues --  -11.27714 -11.27453 -11.26732 -11.26706 -11.22205
 Alpha  occ. eigenvalues --  -11.21938 -11.21900 -11.21656 -11.21596 -11.21025
 Alpha  occ. eigenvalues --   -1.59813  -1.39367  -1.19319  -1.08808  -1.08715
 Alpha  occ. eigenvalues --   -1.04723  -1.03886  -0.96366  -0.95552  -0.87387
 Alpha  occ. eigenvalues --   -0.86121  -0.82388  -0.79973  -0.78572  -0.77433
 Alpha  occ. eigenvalues --   -0.72010  -0.71136  -0.70427  -0.65458  -0.64971
 Alpha  occ. eigenvalues --   -0.64746  -0.62110  -0.61259  -0.59748  -0.57945
 Alpha  occ. eigenvalues --   -0.55694  -0.55217  -0.53068  -0.53049  -0.52968
 Alpha  occ. eigenvalues --   -0.52617  -0.50312  -0.48771  -0.48765  -0.48265
 Alpha  occ. eigenvalues --   -0.47005  -0.46123  -0.46011  -0.44775  -0.44137
 Alpha  occ. eigenvalues --   -0.37297  -0.36317
 Alpha virt. eigenvalues --    0.05095   0.11299   0.16545   0.19178   0.22850
 Alpha virt. eigenvalues --    0.23757   0.24823   0.26057   0.26796   0.28578
 Alpha virt. eigenvalues --    0.29465   0.30298   0.31287   0.31786   0.31975

 Mulliken charges:
               1
     1  C   -0.172456
     2  C   -0.221727
     3  C   -0.173512
     4  C    0.158779
     5  C   -0.170998
     6  C   -0.218655
     7  H    0.225999
     8  H    0.230482
     9  H    0.276109
    10  H    0.275420
    11  H    0.223271
    12  N    0.488121
    13  O   -0.460631
    14  O   -0.460618
    15  C   -0.298932
    16  C   -0.300624
    17  C   -0.476229
    18  H    0.150744
    19  H    0.149648
    20  H    0.153951
    21  H    0.155193
    22  H    0.154825
    23  H    0.154366
    24  H    0.164014
    25  C   -0.297322
    26  C   -0.300078
    27  C   -0.477808
    28  H    0.152842
    29  H    0.141309
    30  H    0.155627
    31  H    0.152954
    32  H    0.144176
    33  H    0.158957
    34  H    0.162803
 Sum of Mulliken charges =  -0.00000

 Dipole moment (field-independent basis, Debye):
    X=             -0.3431    Y=              5.1576    Z=             -0.0952  Tot=              5.1698
 Quadrupole moment (field-independent basis, Debye-Ang):
   XX=            -91.6477   YY=           -100.3401   ZZ=            -93.7821
   XY=             14.5515   XZ=              1.0762   YZ=             -0.0940

 Normal termination of Gaussian 16 at Thu May  6 09:27:05 2021.
