 Gaussian 16, Revision A.03,
 Gaussian 16:  EM64L-G16RevA.03 25-Dec-2016

 -------------
 #p 6-31g* mp2
 -------------

 ------------------------------------------------------
 Input file generated by CHIRIPA (05-May-2021 14:55:19)
 ------------------------------------------------------
 Symbolic Z-matrix:
 Charge =  0 Multiplicity = 1

                         Standard orientation:
 ---------------------------------------------------------------------
 Center     Atomic      Atomic             Coordinates (Angstroms)
 Number     Number       Type             X           Y           Z
 ---------------------------------------------------------------------
      1          6           0       -5.268481   -1.059585    0.027723
      2          6           0       -4.210821   -1.790033    0.579376
      3          6           0       -2.909745   -1.278707    0.562215
      4          6           0       -2.701325   -0.028095   -0.017285
      5          6           0       -3.734269    0.723734   -0.575021
      6          6           0       -5.027255    0.192760   -0.546702
      7          1           0       -6.276046   -1.464427    0.045389
      8          1           0       -4.395208   -2.762886    1.026147
      9          1           0       -2.072561   -1.822962    0.982129
     10          1           0       -3.519355    1.690724   -1.013381
     11          1           0       -5.846721    0.762261   -0.975873
     12          7           0       -1.328216    0.523623   -0.041360
     13          8           0       -1.170861    1.627775   -0.557813
     14          8           0       -0.435328   -0.158540    0.456680
     15          6           0        3.098599    0.555484    0.021347
     16          6           0        3.302512    2.028759    0.376121
     17          6           0        1.995469    2.822116    0.380596
     18          1           0        2.621988    0.485240   -0.965999
     19          1           0        2.398349    0.106218    0.739125
     20          1           0        4.003240    2.474764   -0.341288
     21          1           0        3.778866    2.095499    1.362653
     22          1           0        1.293443    2.403869    1.109177
     23          1           0        1.519091    2.785288   -0.604446
     24          1           0        2.164404    3.872707    0.636683
     25          6           0        4.396133   -0.250779    0.012747
     26          6           0        4.192220   -1.724055   -0.342028
     27          6           0        5.499262   -2.517411   -0.346503
     28          1           0        5.096382    0.198487   -0.705032
     29          1           0        4.872743   -0.180535    1.000093
     30          1           0        3.715865   -1.790795   -1.328560
     31          1           0        3.491491   -2.170060    0.375381
     32          1           0        5.975640   -2.480584    0.638539
     33          1           0        6.201289   -2.099165   -1.075083
     34          1           0        5.330327   -3.568003   -0.602589
 ---------------------------------------------------------------------

 SCF Done:  E(RHF) =  -669.535647028     A.U. after   15 cycles
 E2 =    -0.2092677198D+01 EUMP2 =    -0.67162832422564D+03

 The electronic state is 1-A.
 Alpha  occ. eigenvalues --  -20.61053 -20.61045 -15.86068 -11.31363 -11.27921
 Alpha  occ. eigenvalues --  -11.27916 -11.27651 -11.26919 -11.26909 -11.20505
 Alpha  occ. eigenvalues --  -11.20233 -11.20014 -11.19819 -11.19398 -11.18818
 Alpha  occ. eigenvalues --   -1.60099  -1.39657  -1.19526  -1.08936  -1.06892
 Alpha  occ. eigenvalues --   -1.04917  -1.02013  -0.95783  -0.94434  -0.86319
 Alpha  occ. eigenvalues --   -0.85441  -0.82621  -0.78146  -0.77675  -0.76568
 Alpha  occ. eigenvalues --   -0.72285  -0.71412  -0.70634  -0.65183  -0.64919
 Alpha  occ. eigenvalues --   -0.63548  -0.62264  -0.59431  -0.57908  -0.56038
 Alpha  occ. eigenvalues --   -0.55413  -0.53726  -0.53250  -0.53009  -0.51211
 Alpha  occ. eigenvalues --   -0.50864  -0.49169  -0.48994  -0.48341  -0.46320
 Alpha  occ. eigenvalues --   -0.45206  -0.45082  -0.44071  -0.43908  -0.42247
 Alpha  occ. eigenvalues --   -0.37502  -0.36516
 Alpha virt. eigenvalues --    0.04837   0.11140   0.16345   0.21272   0.24237
 Alpha virt. eigenvalues --    0.25894   0.27199   0.28050   0.28220   0.29058
 Alpha virt. eigenvalues --    0.29566   0.30884   0.32360   0.32894   0.32920

 Mulliken charges:
               1
     1  C   -0.170448
     2  C   -0.218571
     3  C   -0.170682
     4  C    0.158133
     5  C   -0.170466
     6  C   -0.218602
     7  H    0.226250
     8  H    0.224054
     9  H    0.275749
    10  H    0.276047
    11  H    0.224077
    12  N    0.490248
    13  O   -0.456904
    14  O   -0.460622
    15  C   -0.298166
    16  C   -0.300828
    17  C   -0.470176
    18  H    0.149492
    19  H    0.168258
    20  H    0.143047
    21  H    0.143256
    22  H    0.161517
    23  H    0.167051
    24  H    0.144979
    25  C   -0.297787
    26  C   -0.297466
    27  C   -0.474612
    28  H    0.144134
    29  H    0.144684
    30  H    0.150406
    31  H    0.151788
    32  H    0.153060
    33  H    0.153240
    34  H    0.155860
 Sum of Mulliken charges =  -0.00000

 Dipole moment (field-independent basis, Debye):
    X=             -5.4112    Y=             -1.9907    Z=              0.0623  Tot=              5.7661
 Quadrupole moment (field-independent basis, Debye-Ang):
   XX=            -71.4345   YY=            -92.8845   ZZ=            -93.4965
   XY=              4.3540   XZ=              0.6736   YZ=             -2.7685

 Normal termination of Gaussian 16 at Thu May  6 12:22:57 2021.
