 Gaussian 16, Revision A.03,
 Gaussian 16:  EM64L-G16RevA.03 25-Dec-2016

 -------------
 #p 6-31g* mp2
 -------------

 ------------------------------------------------------
 Input file generated by CHIRIPA (05-May-2021 14:51:07)
 ------------------------------------------------------
 Symbolic Z-matrix:
 Charge =  0 Multiplicity = 1

                         Standard orientation:
 ---------------------------------------------------------------------
 Center     Atomic      Atomic             Coordinates (Angstroms)
 Number     Number       Type             X           Y           Z
 ---------------------------------------------------------------------
      1          6           0        2.801569   -0.216976   -0.556350
      2          6           0        3.475927   -1.538557   -0.186686
      3          6           0        2.947294   -2.719950   -1.000720
      4          1           0        1.717327   -0.311430   -0.406540
      5          1           0        2.953411   -0.022824   -1.627164
      6          1           0        3.324039   -1.729472    0.883406
      7          1           0        4.558710   -1.440884   -0.337211
      8          1           0        3.112960   -2.555623   -2.070370
      9          1           0        1.871275   -2.845850   -0.842818
     10          1           0        3.442985   -3.654567   -0.720291
     11          6           0        3.319434    0.973434    0.248924
     12          6           0        2.645076    2.295015   -0.120740
     13          6           0        3.173709    3.476408    0.693294
     14          1           0        3.167591    0.779282    1.319738
     15          1           0        4.403676    1.067888    0.099114
     16          1           0        1.562293    2.197342    0.029785
     17          1           0        2.796963    2.485930   -1.190832
     18          1           0        4.249728    3.602309    0.535392
     19          1           0        3.008042    3.312081    1.762944
     20          1           0        2.678018    4.411026    0.412865
     21          6           0       -2.372762   -0.613265    0.388672
     22          6           0       -2.274546   -2.130046    0.555140
     23          6           0       -0.892686   -2.584857    1.025675
     24          1           0       -1.611153   -0.279506   -0.329312
     25          1           0       -2.132954   -0.130043    1.345951
     26          1           0       -2.515818   -2.610311   -0.401808
     27          1           0       -3.036604   -2.460259    1.272667
     28          1           0       -0.646609   -2.132665    1.991889
     29          1           0       -0.122863   -2.283571    0.307901
     30          1           0       -0.844715   -3.672483    1.138059
     31          6           0       -3.748240   -0.143193   -0.081246
     32          6           0       -3.846456    1.373589   -0.247714
     33          6           0       -5.228317    1.828399   -0.718250
     34          1           0       -3.988048   -0.626416   -1.038525
     35          1           0       -4.509849   -0.476953    0.636738
     36          1           0       -3.084399    1.703800   -0.965240
     37          1           0       -3.605184    1.853853    0.709234
     38          1           0       -5.998139    1.527113   -0.000474
     39          1           0       -5.474393    1.376206   -1.684463
     40          1           0       -5.276288    2.916024   -0.830633
 ---------------------------------------------------------------------

 SCF Done:  E(RHF) =  -470.733246132     A.U. after   11 cycles
 E2 =    -0.1583089123D+01 EUMP2 =    -0.47231633525454D+03

 The electronic state is 1-A.
 Alpha  occ. eigenvalues --  -11.21657 -11.21628 -11.21580 -11.21565 -11.21457
 Alpha  occ. eigenvalues --  -11.21393 -11.21385 -11.21326 -11.21136 -11.21090
 Alpha  occ. eigenvalues --  -11.21055 -11.21016  -1.08478  -1.08405  -1.03582
 Alpha  occ. eigenvalues --   -1.03497  -0.96037  -0.95945  -0.87057  -0.86960
 Alpha  occ. eigenvalues --   -0.79663  -0.79545  -0.78310  -0.78203  -0.65159
 Alpha  occ. eigenvalues --   -0.64996  -0.61100  -0.60799  -0.59397  -0.59319
 Alpha  occ. eigenvalues --   -0.57649  -0.57554  -0.55455  -0.55122  -0.52722
 Alpha  occ. eigenvalues --   -0.52644  -0.52484  -0.52347  -0.50105  -0.49774
 Alpha  occ. eigenvalues --   -0.48046  -0.47817  -0.46802  -0.46475  -0.45980
 Alpha  occ. eigenvalues --   -0.45776  -0.45724  -0.45452  -0.43829  -0.43758
 Alpha virt. eigenvalues --    0.20413   0.23127   0.23619   0.24674   0.25528
 Alpha virt. eigenvalues --    0.26801   0.27064   0.27409   0.28385   0.29313
 Alpha virt. eigenvalues --    0.30503   0.31501   0.31781   0.31911   0.31973

 Mulliken charges:
               1
     1  C   -0.302124
     2  C   -0.299162
     3  C   -0.481244
     4  H    0.152125
     5  H    0.149209
     6  H    0.152703
     7  H    0.151874
     8  H    0.154658
     9  H    0.160332
    10  H    0.160420
    11  C   -0.298004
    12  C   -0.299960
    13  C   -0.475666
    14  H    0.149783
    15  H    0.149620
    16  H    0.152469
    17  H    0.151656
    18  H    0.155100
    19  H    0.155181
    20  H    0.160189
    21  C   -0.299611
    22  C   -0.299285
    23  C   -0.484341
    24  H    0.150252
    25  H    0.149375
    26  H    0.152324
    27  H    0.152315
    28  H    0.155231
    29  H    0.162792
    30  H    0.161038
    31  C   -0.298314
    32  C   -0.299804
    33  C   -0.475743
    34  H    0.149804
    35  H    0.149866
    36  H    0.152185
    37  H    0.151869
    38  H    0.155205
    39  H    0.155297
    40  H    0.160387
 Sum of Mulliken charges =  -0.00000

 Dipole moment (field-independent basis, Debye):
    X=             -0.0280    Y=             -0.0089    Z=              0.0107  Tot=              0.0313
 Quadrupole moment (field-independent basis, Debye-Ang):
   XX=            -85.1415   YY=            -85.8804   ZZ=            -83.7005
   XY=              0.3037   XZ=             -1.2259   YZ=             -0.3771

 Normal termination of Gaussian 16 at Thu May  6 00:28:00 2021.
