 Gaussian 16, Revision A.03,
 Gaussian 16:  EM64L-G16RevA.03 25-Dec-2016

 -------------
 #p 6-31g* mp2
 -------------

 ------------------------------------------------------
 Input file generated by CHIRIPA (05-May-2021 14:51:09)
 ------------------------------------------------------
 Symbolic Z-matrix:
 Charge =  0 Multiplicity = 1

                         Standard orientation:
 ---------------------------------------------------------------------
 Center     Atomic      Atomic             Coordinates (Angstroms)
 Number     Number       Type             X           Y           Z
 ---------------------------------------------------------------------
      1          6           0       -2.729744    1.306355    0.362914
      2          6           0       -2.207704    2.414062   -0.552752
      3          6           0       -2.109511    3.766989    0.152755
      4          1           0       -3.717793    1.593127    0.748227
      5          1           0       -2.067409    1.218793    1.235291
      6          1           0       -2.870048    2.498572   -1.423829
      7          1           0       -1.220867    2.124533   -0.936082
      8          1           0       -1.432865    3.705580    1.011230
      9          1           0       -3.091416    4.081743    0.520712
     10          1           0       -1.734208    4.544333   -0.520107
     11          6           0       -2.833507   -0.052154   -0.328039
     12          6           0       -3.355547   -1.159861    0.587628
     13          6           0       -3.453740   -2.512788   -0.117879
     14          1           0       -3.495842    0.035408   -1.200415
     15          1           0       -1.845458   -0.338926   -0.713352
     16          1           0       -4.342384   -0.870333    0.970958
     17          1           0       -2.693203   -1.244371    1.458704
     18          1           0       -2.471835   -2.827543   -0.485837
     19          1           0       -4.130386   -2.451379   -0.976354
     20          1           0       -3.829043   -3.290133    0.554983
     21          6           0        3.391783   -0.260821    0.260014
     22          6           0        3.586752    1.132505   -0.338829
     23          6           0        4.811461    1.852693    0.226157
     24          1           0        3.296961   -0.174046    1.351080
     25          1           0        4.291604   -0.862585    0.071345
     26          1           0        2.686279    1.731020   -0.150293
     27          1           0        3.680928    1.042422   -1.428615
     28          1           0        5.722251    1.279394    0.025182
     29          1           0        4.721950    1.971904    1.310767
     30          1           0        4.931901    2.846772   -0.215613
     31          6           0        2.171469   -0.993379   -0.294890
     32          6           0        1.976499   -2.386706    0.303954
     33          6           0        0.751789   -3.106895   -0.261033
     34          1           0        1.271647   -0.391615   -0.106221
     35          1           0        2.266290   -1.080154   -1.385956
     36          1           0        1.882322   -2.296623    1.393740
     37          1           0        2.876971   -2.985221    0.115418
     38          1           0        0.841301   -3.226106   -1.345643
     39          1           0       -0.159000   -2.533595   -0.060057
     40          1           0        0.631349   -4.100973    0.180737
 ---------------------------------------------------------------------

 SCF Done:  E(RHF) =  -470.733208344     A.U. after   11 cycles
 E2 =    -0.1583364793D+01 EUMP2 =    -0.47231657313658D+03

 The electronic state is 1-A.
 Alpha  occ. eigenvalues --  -11.21668 -11.21647 -11.21618 -11.21601 -11.21475
 Alpha  occ. eigenvalues --  -11.21421 -11.21411 -11.21361 -11.21130 -11.21103
 Alpha  occ. eigenvalues --  -11.21089 -11.20991  -1.08496  -1.08439  -1.03598
 Alpha  occ. eigenvalues --   -1.03521  -0.96055  -0.95960  -0.87077  -0.86973
 Alpha  occ. eigenvalues --   -0.79684  -0.79563  -0.78332  -0.78228  -0.65228
 Alpha  occ. eigenvalues --   -0.64988  -0.61145  -0.60799  -0.59409  -0.59340
 Alpha  occ. eigenvalues --   -0.57678  -0.57559  -0.55485  -0.55123  -0.52737
 Alpha  occ. eigenvalues --   -0.52664  -0.52521  -0.52332  -0.50087  -0.49809
 Alpha  occ. eigenvalues --   -0.48076  -0.47818  -0.46789  -0.46521  -0.46026
 Alpha  occ. eigenvalues --   -0.45804  -0.45757  -0.45461  -0.43842  -0.43786
 Alpha virt. eigenvalues --    0.19701   0.22777   0.23641   0.24839   0.25405
 Alpha virt. eigenvalues --    0.26808   0.27071   0.27283   0.28514   0.29672
 Alpha virt. eigenvalues --    0.30602   0.31468   0.31624   0.31733   0.32171

 Mulliken charges:
               1
     1  C   -0.297941
     2  C   -0.300208
     3  C   -0.475664
     4  H    0.149887
     5  H    0.148790
     6  H    0.152215
     7  H    0.152260
     8  H    0.154840
     9  H    0.155295
    10  H    0.160435
    11  C   -0.302452
    12  C   -0.299774
    13  C   -0.481283
    14  H    0.150031
    15  H    0.152361
    16  H    0.152208
    17  H    0.151200
    18  H    0.161856
    19  H    0.154970
    20  H    0.160057
    21  C   -0.298325
    22  C   -0.299743
    23  C   -0.475740
    24  H    0.149710
    25  H    0.149929
    26  H    0.151725
    27  H    0.152134
    28  H    0.155297
    29  H    0.155237
    30  H    0.160503
    31  C   -0.299961
    32  C   -0.299702
    33  C   -0.482656
    34  H    0.149827
    35  H    0.150032
    36  H    0.152000
    37  H    0.152384
    38  H    0.155552
    39  H    0.161575
    40  H    0.161138
 Sum of Mulliken charges =  -0.00000

 Dipole moment (field-independent basis, Debye):
    X=              0.0240    Y=             -0.0153    Z=             -0.0155  Tot=              0.0324
 Quadrupole moment (field-independent basis, Debye-Ang):
   XX=            -84.2230   YY=            -86.0189   ZZ=            -84.3831
   XY=             -1.1657   XZ=             -0.4440   YZ=             -0.3453

 Normal termination of Gaussian 16 at Wed May  5 22:58:01 2021.
