 Gaussian 16, Revision A.03,
 Gaussian 16:  EM64L-G16RevA.03 25-Dec-2016

 -------------
 #p 6-31g* mp2
 -------------

 ------------------------------------------------------
 Input file generated by CHIRIPA (05-May-2021 14:51:07)
 ------------------------------------------------------
 Symbolic Z-matrix:
 Charge =  0 Multiplicity = 1

                         Standard orientation:
 ---------------------------------------------------------------------
 Center     Atomic      Atomic             Coordinates (Angstroms)
 Number     Number       Type             X           Y           Z
 ---------------------------------------------------------------------
      1          6           0       -3.688782    1.156928    0.098223
      2          6           0       -2.334493    1.780444   -0.241059
      3          6           0       -2.199464    3.215062    0.270245
      4          1           0       -4.488320    1.777019   -0.329763
      5          1           0       -3.829626    1.173607    1.187847
      6          1           0       -2.195644    1.761335   -1.329623
      7          1           0       -1.538080    1.158692    0.187621
      8          1           0       -2.311889    3.248269    1.358757
      9          1           0       -2.973189    3.854337   -0.167108
     10          1           0       -1.223855    3.641445    0.016780
     11          6           0       -3.838914   -0.277164   -0.406327
     12          6           0       -5.193204   -0.900679   -0.067044
     13          6           0       -5.328233   -2.335297   -0.578349
     14          1           0       -3.698071   -0.293843   -1.495950
     15          1           0       -3.039377   -0.897255    0.021659
     16          1           0       -5.989617   -0.278927   -0.495725
     17          1           0       -5.332053   -0.881571    1.021520
     18          1           0       -4.554508   -2.974573   -0.140996
     19          1           0       -5.215807   -2.368505   -1.666861
     20          1           0       -6.303842   -2.761680   -0.324884
     21          6           0        3.065583   -0.238367    0.389104
     22          6           0        2.139656   -1.430847    0.631255
     23          6           0        0.746362   -1.011585    1.101089
     24          1           0        3.149930    0.346268    1.315404
     25          1           0        2.609623    0.425052   -0.358807
     26          1           0        2.597874   -2.092525    1.377469
     27          1           0        2.057656   -2.012818   -0.295676
     28          1           0        0.265550   -0.369535    0.355976
     29          1           0        0.808837   -0.449695    2.038627
     30          1           0        0.100940   -1.879564    1.268130
     31          6           0        4.462114   -0.641397   -0.081001
     32          6           0        5.388040    0.551082   -0.323151
     33          6           0        6.781335    0.131821   -0.792986
     34          1           0        4.918074   -1.304815    0.666910
     35          1           0        4.377767   -1.226033   -1.007301
     36          1           0        5.470040    1.133053    0.603780
     37          1           0        4.929823    1.212760   -1.069365
     38          1           0        6.718860   -0.430069   -1.730523
     39          1           0        7.262147   -0.510229   -0.047873
     40          1           0        7.426757    0.999800   -0.960027
 ---------------------------------------------------------------------

 SCF Done:  E(RHF) =  -470.733321384     A.U. after   11 cycles
 E2 =    -0.1582591469D+01 EUMP2 =    -0.47231591285253D+03

 The electronic state is 1-A.
 Alpha  occ. eigenvalues --  -11.21635 -11.21612 -11.21569 -11.21531 -11.21423
 Alpha  occ. eigenvalues --  -11.21363 -11.21357 -11.21298 -11.21116 -11.21079
 Alpha  occ. eigenvalues --  -11.21048 -11.21032  -1.08452  -1.08385  -1.03559
 Alpha  occ. eigenvalues --   -1.03487  -0.96009  -0.95939  -0.87035  -0.86951
 Alpha  occ. eigenvalues --   -0.79661  -0.79523  -0.78279  -0.78182  -0.65103
 Alpha  occ. eigenvalues --   -0.64999  -0.61010  -0.60843  -0.59380  -0.59308
 Alpha  occ. eigenvalues --   -0.57640  -0.57530  -0.55308  -0.55220  -0.52711
 Alpha  occ. eigenvalues --   -0.52638  -0.52467  -0.52343  -0.50018  -0.49843
 Alpha  occ. eigenvalues --   -0.48068  -0.47776  -0.46759  -0.46486  -0.45881
 Alpha  occ. eigenvalues --   -0.45755  -0.45702  -0.45473  -0.43808  -0.43742
 Alpha virt. eigenvalues --    0.21885   0.22980   0.23839   0.24466   0.25572
 Alpha virt. eigenvalues --    0.26713   0.27073   0.27516   0.28022   0.29281
 Alpha virt. eigenvalues --    0.30269   0.31574   0.31654   0.31835   0.32048

 Mulliken charges:
               1
     1  C   -0.297369
     2  C   -0.308933
     3  C   -0.474994
     4  H    0.149348
     5  H    0.149516
     6  H    0.150841
     7  H    0.161566
     8  H    0.155173
     9  H    0.154929
    10  H    0.159906
    11  C   -0.299588
    12  C   -0.299612
    13  C   -0.475638
    14  H    0.149017
    15  H    0.151272
    16  H    0.151834
    17  H    0.151944
    18  H    0.155104
    19  H    0.155048
    20  H    0.160129
    21  C   -0.298468
    22  C   -0.299379
    23  C   -0.482570
    24  H    0.149666
    25  H    0.149759
    26  H    0.152005
    27  H    0.152259
    28  H    0.161816
    29  H    0.155107
    30  H    0.160090
    31  C   -0.298330
    32  C   -0.299686
    33  C   -0.475723
    34  H    0.149558
    35  H    0.149742
    36  H    0.151965
    37  H    0.151991
    38  H    0.155212
    39  H    0.155192
    40  H    0.160302
 Sum of Mulliken charges =  -0.00000

 Dipole moment (field-independent basis, Debye):
    X=              0.0287    Y=             -0.0093    Z=              0.0080  Tot=              0.0313
 Quadrupole moment (field-independent basis, Debye-Ang):
   XX=            -85.7907   YY=            -85.8465   ZZ=            -83.2614
   XY=             -0.2370   XZ=              0.8986   YZ=             -0.7085

 Normal termination of Gaussian 16 at Wed May  5 18:04:52 2021.
