 Gaussian 16, Revision A.03,
 Gaussian 16:  EM64L-G16RevA.03 25-Dec-2016

 -------------
 #p 6-31g* mp2
 -------------

 ------------------------------------------------------
 Input file generated by CHIRIPA (05-May-2021 14:53:13)
 ------------------------------------------------------
 Symbolic Z-matrix:
 Charge =  0 Multiplicity = 1

                         Standard orientation:
 ---------------------------------------------------------------------
 Center     Atomic      Atomic             Coordinates (Angstroms)
 Number     Number       Type             X           Y           Z
 ---------------------------------------------------------------------
      1          6           0        3.042082   -0.259426   -0.295539
      2          6           0        4.144775   -1.263975    0.040518
      3          6           0        3.726198   -2.710979   -0.221717
      4          1           0        2.146574   -0.496366    0.295113
      5          1           0        2.759814   -0.374879   -1.351186
      6          1           0        4.425846   -1.145718    1.094857
      7          1           0        5.037825   -1.024500   -0.550861
      8          1           0        3.465124   -2.851527   -1.275609
      9          1           0        2.849668   -2.973435    0.379460
     10          1           0        4.529336   -3.412277    0.025283
     11          6           0        3.445481    1.191440   -0.038664
     12          6           0        2.342788    2.195989   -0.374720
     13          6           0        2.761365    3.642993   -0.112485
     14          1           0        3.727749    1.306894    1.016983
     15          1           0        4.340990    1.428380   -0.629315
     16          1           0        1.449738    1.956514    0.216659
     17          1           0        2.061718    2.077733   -1.429059
     18          1           0        3.637895    3.905449   -0.713662
     19          1           0        3.022439    3.783541    0.941406
     20          1           0        1.958227    4.344292   -0.359486
     21          6           0       -4.362906    1.325971   -0.276318
     22          6           0       -4.337752    0.132599   -1.005530
     23          6           0       -3.329273   -0.811005   -0.788436
     24          6           0       -2.357412   -0.527455    0.169882
     25          6           0       -2.355320    0.652332    0.912439
     26          6           0       -3.373354    1.581578    0.678656
     27          1           0       -5.150028    2.053409   -0.451443
     28          1           0       -5.104951   -0.068580   -1.747809
     29          1           0       -3.285839   -1.742992   -1.338830
     30          1           0       -1.576842    0.824728    1.645698
     31          1           0       -3.390379    2.507516    1.246454
     32          7           0       -1.284723   -1.518807    0.408543
     33          8           0       -0.440075   -1.245233    1.258463
     34          8           0       -1.308909   -2.550630   -0.258833
 ---------------------------------------------------------------------

 SCF Done:  E(RHF) =  -669.536618428     A.U. after   15 cycles
 E2 =    -0.2091561500D+01 EUMP2 =    -0.67162817992818D+03

 The electronic state is 1-A.
 Alpha  occ. eigenvalues --  -20.61017 -20.61012 -15.86030 -11.31318 -11.27879
 Alpha  occ. eigenvalues --  -11.27871 -11.27607 -11.26877 -11.26868 -11.21173
 Alpha  occ. eigenvalues --  -11.20818 -11.20661 -11.20535 -11.20182 -11.19799
 Alpha  occ. eigenvalues --   -1.60061  -1.39621  -1.19481  -1.08892  -1.07593
 Alpha  occ. eigenvalues --   -1.04873  -1.02738  -0.95740  -0.95170  -0.86276
 Alpha  occ. eigenvalues --   -0.86188  -0.82578  -0.78853  -0.77641  -0.77327
 Alpha  occ. eigenvalues --   -0.72257  -0.71363  -0.70592  -0.65140  -0.64877
 Alpha  occ. eigenvalues --   -0.64218  -0.62223  -0.60135  -0.58605  -0.56772
 Alpha  occ. eigenvalues --   -0.55380  -0.54444  -0.53203  -0.52966  -0.51927
 Alpha  occ. eigenvalues --   -0.51581  -0.49122  -0.49020  -0.49001  -0.47149
 Alpha  occ. eigenvalues --   -0.45897  -0.45335  -0.44880  -0.44402  -0.42963
 Alpha  occ. eigenvalues --   -0.37454  -0.36470
 Alpha virt. eigenvalues --    0.04846   0.11159   0.16328   0.21172   0.23551
 Alpha virt. eigenvalues --    0.25117   0.26579   0.27479   0.27820   0.28788
 Alpha virt. eigenvalues --    0.28955   0.31010   0.31880   0.32311   0.32380

 Mulliken charges:
               1
     1  C   -0.310942
     2  C   -0.297948
     3  C   -0.478330
     4  H    0.174809
     5  H    0.144610
     6  H    0.149929
     7  H    0.145926
     8  H    0.152648
     9  H    0.170737
    10  H    0.154387
    11  C   -0.296820
    12  C   -0.298492
    13  C   -0.475084
    14  H    0.148308
    15  H    0.146378
    16  H    0.149032
    17  H    0.150202
    18  H    0.155306
    19  H    0.154342
    20  H    0.155315
    21  C   -0.170486
    22  C   -0.218504
    23  C   -0.170662
    24  C    0.158750
    25  C   -0.170810
    26  C   -0.218369
    27  H    0.226134
    28  H    0.223927
    29  H    0.275915
    30  H    0.275663
    31  H    0.224051
    32  N    0.489051
    33  O   -0.461148
    34  O   -0.457823
 Sum of Mulliken charges =  -0.00000

 Dipole moment (field-independent basis, Debye):
    X=             -4.0709    Y=              3.3224    Z=             -0.7702  Tot=              5.3107
 Quadrupole moment (field-independent basis, Debye-Ang):
   XX=            -77.4625   YY=            -98.6259   ZZ=            -92.2594
   XY=             -5.3634   XZ=              2.9806   YZ=              3.2233

 Normal termination of Gaussian 16 at Thu May  6 18:41:49 2021.
