 Gaussian 16, Revision A.03,
 Gaussian 16:  EM64L-G16RevA.03 25-Dec-2016

 -------------
 #p 6-31g* mp2
 -------------

 ------------------------------------------------------
 Input file generated by CHIRIPA (05-May-2021 14:57:26)
 ------------------------------------------------------
 Symbolic Z-matrix:
 Charge =  0 Multiplicity = 1

                         Standard orientation:
 ---------------------------------------------------------------------
 Center     Atomic      Atomic             Coordinates (Angstroms)
 Number     Number       Type             X           Y           Z
 ---------------------------------------------------------------------
      1          6           0       -2.185698   -1.620412    1.704206
      2          6           0       -3.386200   -0.987468    2.042878
      3          6           0       -4.076954   -0.222939    1.097943
      4          6           0       -3.536031   -0.112141   -0.182063
      5          6           0       -2.342146   -0.730678   -0.549953
      6          6           0       -1.668415   -1.490226    0.411151
      7          1           0       -1.655715   -2.212382    2.444534
      8          1           0       -3.790291   -1.086824    3.046314
      9          1           0       -5.008288    0.277724    1.333253
     10          1           0       -1.964219   -0.613206   -1.558313
     11          1           0       -0.736293   -1.980660    0.145316
     12          7           0       -4.258291    0.694595   -1.190982
     13          8           0       -3.760723    0.776648   -2.311843
     14          8           0       -5.308290    1.229586   -0.841807
     15          6           0        2.334274    2.269932    1.061583
     16          6           0        3.681171    2.311602    0.686544
     17          6           0        4.291460    1.195652    0.106240
     18          6           0        3.521667    0.049348   -0.085322
     19          6           0        2.177703   -0.023179    0.277708
     20          6           0        1.588155    1.104729    0.856329
     21          1           0        1.868243    3.141473    1.511724
     22          1           0        4.263060    3.215162    0.844751
     23          1           0        5.332403    1.200548   -0.193481
     24          1           0        1.623391   -0.938136    0.107393
     25          1           0        0.541949    1.069500    1.146606
     26          7           0        4.156775   -1.138388   -0.698775
     27          8           0        3.456852   -2.136257   -0.856898
     28          8           0        5.342468   -1.048976   -1.009859
 ---------------------------------------------------------------------

 SCF Done:  E(RHF) =  -868.337983759     A.U. after   16 cycles
 E2 =    -0.2600073059D+01 EUMP2 =    -0.87093805681784D+03

 The electronic state is 1-A.
 Alpha  occ. eigenvalues --  -20.61258 -20.61251 -20.61232 -20.61205 -15.86317
 Alpha  occ. eigenvalues --  -15.86272 -11.31808 -11.31616 -11.28423 -11.28400
 Alpha  occ. eigenvalues --  -11.28241 -11.28177 -11.28118 -11.27835 -11.27481
 Alpha  occ. eigenvalues --  -11.27400 -11.27135 -11.27123  -1.60333  -1.60293
 Alpha  occ. eigenvalues --   -1.39881  -1.39851  -1.20018  -1.19760  -1.09379
 Alpha  occ. eigenvalues --   -1.09147  -1.05441  -1.05157  -0.96182  -0.96000
 Alpha  occ. eigenvalues --   -0.86818  -0.86555  -0.83017  -0.82827  -0.78065
 Alpha  occ. eigenvalues --   -0.77876  -0.72527  -0.72491  -0.71664  -0.71613
 Alpha  occ. eigenvalues --   -0.71081  -0.70877  -0.65654  -0.65493  -0.65384
 Alpha  occ. eigenvalues --   -0.65119  -0.62849  -0.62428  -0.55903  -0.55634
 Alpha  occ. eigenvalues --   -0.53782  -0.53546  -0.53482  -0.53174  -0.49300
 Alpha  occ. eigenvalues --   -0.49276  -0.49259  -0.49234  -0.45262  -0.45257
 Alpha  occ. eigenvalues --   -0.38008  -0.37712  -0.37069  -0.36751
 Alpha virt. eigenvalues --    0.04474   0.04659   0.10501   0.10895   0.15857
 Alpha virt. eigenvalues --    0.16183   0.19226   0.21772   0.24691   0.27333
 Alpha virt. eigenvalues --    0.27811   0.28805   0.29663   0.31181   0.31714

 Mulliken charges:
               1
     1  C   -0.173286
     2  C   -0.219533
     3  C   -0.170381
     4  C    0.157772
     5  C   -0.172809
     6  C   -0.231119
     7  H    0.229592
     8  H    0.225839
     9  H    0.277598
    10  H    0.280009
    11  H    0.230046
    12  N    0.487899
    13  O   -0.458092
    14  O   -0.459265
    15  C   -0.170298
    16  C   -0.217880
    17  C   -0.170320
    18  C    0.160411
    19  C   -0.175984
    20  C   -0.221477
    21  H    0.227938
    22  H    0.225384
    23  H    0.276857
    24  H    0.267753
    25  H    0.227240
    26  N    0.487987
    27  O   -0.464372
    28  O   -0.457508
 Sum of Mulliken charges =  -0.00000

 Dipole moment (field-independent basis, Debye):
    X=              0.2077    Y=              1.4481    Z=              5.7311  Tot=              5.9149
 Quadrupole moment (field-independent basis, Debye-Ang):
   XX=           -131.8173   YY=           -103.2327   ZZ=           -105.1547
   XY=             26.6151   XZ=             -8.4234   YZ=              0.4693

 Normal termination of Gaussian 16 at Wed May  5 21:11:57 2021.
