 Gaussian 16, Revision A.03,
 Gaussian 16:  EM64L-G16RevA.03 25-Dec-2016

 -------------
 #p 6-31g* mp2
 -------------

 ------------------------------------------------------
 Input file generated by CHIRIPA (05-May-2021 14:55:22)
 ------------------------------------------------------
 Symbolic Z-matrix:
 Charge =  0 Multiplicity = 1

                         Standard orientation:
 ---------------------------------------------------------------------
 Center     Atomic      Atomic             Coordinates (Angstroms)
 Number     Number       Type             X           Y           Z
 ---------------------------------------------------------------------
      1          6           0        1.965771    2.441779    0.514286
      2          6           0        1.642851    1.266136    1.199929
      3          6           0        2.317929    0.073845    0.921970
      4          6           0        3.314949    0.093336   -0.052125
      5          6           0        3.659566    1.248431   -0.752328
      6          6           0        2.971324    2.429197   -0.457940
      7          1           0        1.436241    3.363503    0.736593
      8          1           0        0.862373    1.272945    1.955477
      9          1           0        2.088128   -0.850617    1.437701
     10          1           0        4.442300    1.210431   -1.500192
     11          1           0        3.224224    3.340716   -0.992000
     12          7           0        4.036591   -1.162788   -0.355085
     13          8           0        4.910986   -1.119265   -1.217740
     14          8           0        3.714154   -2.167077    0.275848
     15          6           0       -3.487446   -0.408397    0.470468
     16          6           0       -2.323915   -1.231926   -0.082686
     17          6           0       -1.124082   -1.270376    0.864265
     18          1           0       -3.142034    0.615484    0.668719
     19          1           0       -3.796309   -0.826988    1.438342
     20          1           0       -2.018245   -0.812747   -1.049882
     21          1           0       -2.672187   -2.253915   -0.279822
     22          1           0       -1.406954   -1.708439    1.826910
     23          1           0       -0.749296   -0.259082    1.052474
     24          1           0       -0.303887   -1.864359    0.449142
     25          6           0       -4.694349   -0.360526   -0.464852
     26          6           0       -5.857880    0.463004    0.088302
     27          6           0       -7.057713    0.501453   -0.858649
     28          1           0       -4.385485    0.058065   -1.432726
     29          1           0       -5.039761   -1.384407   -0.663102
     30          1           0       -5.509607    1.484992    0.285438
     31          1           0       -6.163550    0.043823    1.055499
     32          1           0       -7.432498   -0.509841   -1.046858
     33          1           0       -6.774840    0.939516   -1.821294
     34          1           0       -7.877908    1.095435   -0.443526
 ---------------------------------------------------------------------

 SCF Done:  E(RHF) =  -669.534340981     A.U. after   15 cycles
 E2 =    -0.2092398610D+01 EUMP2 =    -0.67162673959076D+03

 The electronic state is 1-A.
 Alpha  occ. eigenvalues --  -20.60760 -20.60754 -15.85812 -11.31160 -11.27742
 Alpha  occ. eigenvalues --  -11.27711 -11.27492 -11.26754 -11.26721 -11.21954
 Alpha  occ. eigenvalues --  -11.21905 -11.21783 -11.21678 -11.21522 -11.21320
 Alpha  occ. eigenvalues --   -1.59835  -1.39388  -1.19347  -1.08781  -1.08743
 Alpha  occ. eigenvalues --   -1.04760  -1.03873  -0.96352  -0.95576  -0.87383
 Alpha  occ. eigenvalues --   -0.86151  -0.82419  -0.79959  -0.78594  -0.77450
 Alpha  occ. eigenvalues --   -0.72030  -0.71158  -0.70456  -0.65424  -0.64998
 Alpha  occ. eigenvalues --   -0.64776  -0.62159  -0.61239  -0.59695  -0.57946
 Alpha  occ. eigenvalues --   -0.55686  -0.55247  -0.53242  -0.53062  -0.52801
 Alpha  occ. eigenvalues --   -0.52611  -0.50263  -0.48789  -0.48785  -0.48258
 Alpha  occ. eigenvalues --   -0.46969  -0.46138  -0.46052  -0.44797  -0.44129
 Alpha  occ. eigenvalues --   -0.37335  -0.36273
 Alpha virt. eigenvalues --    0.05068   0.11195   0.16458   0.20931   0.22611
 Alpha virt. eigenvalues --    0.24093   0.25919   0.26423   0.27059   0.27997
 Alpha virt. eigenvalues --    0.28864   0.29494   0.31358   0.31538   0.32140

 Mulliken charges:
               1
     1  C   -0.172271
     2  C   -0.219895
     3  C   -0.166012
     4  C    0.156856
     5  C   -0.170947
     6  C   -0.218824
     7  H    0.225338
     8  H    0.224239
     9  H    0.278146
    10  H    0.275475
    11  H    0.223228
    12  N    0.488318
    13  O   -0.460452
    14  O   -0.460855
    15  C   -0.298107
    16  C   -0.299266
    17  C   -0.483543
    18  H    0.145170
    19  H    0.149924
    20  H    0.153939
    21  H    0.155506
    22  H    0.154990
    23  H    0.149132
    24  H    0.167552
    25  C   -0.298583
    26  C   -0.299629
    27  C   -0.475868
    28  H    0.149991
    29  H    0.151548
    30  H    0.150322
    31  H    0.152302
    32  H    0.156298
    33  H    0.155373
    34  H    0.160603
 Sum of Mulliken charges =  -0.00000

 Dipole moment (field-independent basis, Debye):
    X=             -2.5990    Y=              4.3671    Z=              1.0168  Tot=              5.1827
 Quadrupole moment (field-independent basis, Debye-Ang):
   XX=           -111.2646   YY=            -92.4982   ZZ=            -93.1869
   XY=             16.6175   XZ=              0.9480   YZ=             -2.3130

 Normal termination of Gaussian 16 at Wed May  5 19:01:17 2021.
