 Gaussian 16, Revision A.03,
 Gaussian 16:  EM64L-G16RevA.03 25-Dec-2016

 -------------
 #p 6-31g* mp2
 -------------

 ------------------------------------------------------
 Input file generated by CHIRIPA (05-May-2021 14:57:26)
 ------------------------------------------------------
 Symbolic Z-matrix:
 Charge =  0 Multiplicity = 1

                         Standard orientation:
 ---------------------------------------------------------------------
 Center     Atomic      Atomic             Coordinates (Angstroms)
 Number     Number       Type             X           Y           Z
 ---------------------------------------------------------------------
      1          6           0       -5.485302    1.092597   -0.497333
      2          6           0       -4.315613    1.838758   -0.319589
      3          6           0       -3.103560    1.202220   -0.036228
      4          6           0       -3.097431   -0.188264    0.062804
      5          6           0       -4.245972   -0.959380   -0.109022
      6          6           0       -5.446816   -0.301632   -0.391669
      7          1           0       -6.422501    1.595313   -0.717178
      8          1           0       -4.342522    2.921662   -0.401072
      9          1           0       -2.183159    1.755433    0.106022
     10          1           0       -4.187751   -2.037529   -0.021711
     11          1           0       -6.353654   -0.883672   -0.529221
     12          7           0       -1.820217   -0.873365    0.362408
     13          8           0       -1.841325   -2.099518    0.444517
     14          8           0       -0.822214   -0.171223    0.509455
     15          6           0        3.560955    2.574990    0.218322
     16          6           0        2.813452    1.857008    1.157610
     17          6           0        2.666543    0.471753    1.039146
     18          6           0        3.283469   -0.166305   -0.035831
     19          6           0        4.034576    0.521208   -0.987909
     20          6           0        4.168061    1.905978   -0.849557
     21          1           0        3.669864    3.650902    0.318073
     22          1           0        2.340851    2.373936    1.987958
     23          1           0        2.093454   -0.108642    1.751977
     24          1           0        4.493943   -0.021862   -1.804901
     25          1           0        4.749170    2.460998   -1.580522
     26          7           0        3.135050   -1.632556   -0.171770
     27          8           0        3.688478   -2.171239   -1.127895
     28          8           0        2.468099   -2.215356    0.680378
 ---------------------------------------------------------------------

 SCF Done:  E(RHF) =  -868.337148315     A.U. after   16 cycles
 E2 =    -0.2599960079D+01 EUMP2 =    -0.87093710839439D+03

 The electronic state is 1-A.
 Alpha  occ. eigenvalues --  -20.60748 -20.60678 -20.59470 -20.59370 -15.85774
 Alpha  occ. eigenvalues --  -15.84479 -11.31217 -11.29975 -11.27826 -11.27764
 Alpha  occ. eigenvalues --  -11.27548 -11.26846 -11.26801 -11.26697 -11.26514
 Alpha  occ. eigenvalues --  -11.26505 -11.25754 -11.25660  -1.59775  -1.58492
 Alpha  occ. eigenvalues --   -1.39334  -1.38038  -1.19394  -1.18214  -1.08772
 Alpha  occ. eigenvalues --   -1.07606  -1.04812  -1.03646  -0.95595  -0.94402
 Alpha  occ. eigenvalues --   -0.86205  -0.85047  -0.82432  -0.81238  -0.77466
 Alpha  occ. eigenvalues --   -0.76228  -0.71999  -0.71108  -0.70710  -0.70503
 Alpha  occ. eigenvalues --   -0.69804  -0.69363  -0.65050  -0.64815  -0.63883
 Alpha  occ. eigenvalues --   -0.63688  -0.62160  -0.60981  -0.55306  -0.54221
 Alpha  occ. eigenvalues --   -0.53134  -0.52907  -0.51969  -0.51762  -0.48746
 Alpha  occ. eigenvalues --   -0.48702  -0.47495  -0.47431  -0.44729  -0.43406
 Alpha  occ. eigenvalues --   -0.37377  -0.36419  -0.36252  -0.35229
 Alpha virt. eigenvalues --    0.05071   0.06324   0.11235   0.12410   0.16545
 Alpha virt. eigenvalues --    0.17734   0.21354   0.22374   0.27252   0.28148
 Alpha virt. eigenvalues --    0.28365   0.29338   0.30909   0.31857   0.32481

 Mulliken charges:
               1
     1  C   -0.170973
     2  C   -0.218379
     3  C   -0.171312
     4  C    0.158670
     5  C   -0.170495
     6  C   -0.218449
     7  H    0.225451
     8  H    0.222027
     9  H    0.272378
    10  H    0.277590
    11  H    0.224117
    12  N    0.490113
    13  O   -0.450323
    14  O   -0.469072
    15  C   -0.172217
    16  C   -0.222020
    17  C   -0.154147
    18  C    0.156432
    19  C   -0.171917
    20  C   -0.220346
    21  H    0.219460
    22  H    0.218710
    23  H    0.284424
    24  H    0.272304
    25  H    0.218038
    26  N    0.488283
    27  O   -0.468666
    28  O   -0.449679
 Sum of Mulliken charges =  -0.00000

 Dipole moment (field-independent basis, Debye):
    X=             -4.3349    Y=              7.2312    Z=             -0.4239  Tot=              8.4416
 Quadrupole moment (field-independent basis, Debye-Ang):
   XX=            -73.2199   YY=           -104.6832   ZZ=           -102.8083
   XY=             12.4266   XZ=              2.5151   YZ=             -0.0701

 Normal termination of Gaussian 16 at Fri May  7 06:37:18 2021.
