 Gaussian 16, Revision A.03,
 Gaussian 16:  EM64L-G16RevA.03 25-Dec-2016

 -------------
 #p 6-31g* mp2
 -------------

 ------------------------------------------------------
 Input file generated by CHIRIPA (05-May-2021 14:55:20)
 ------------------------------------------------------
 Symbolic Z-matrix:
 Charge =  0 Multiplicity = 1

                         Standard orientation:
 ---------------------------------------------------------------------
 Center     Atomic      Atomic             Coordinates (Angstroms)
 Number     Number       Type             X           Y           Z
 ---------------------------------------------------------------------
      1          6           0        1.583674    2.630508    0.691224
      2          6           0        2.462782    1.783857    1.374504
      3          6           0        2.832301    0.552037    0.826213
      4          6           0        2.301365    0.196951   -0.412864
      5          6           0        1.423385    1.018626   -1.118052
      6          6           0        1.067690    2.245868   -0.550684
      7          1           0        1.301992    3.585637    1.124559
      8          1           0        2.865060    2.079970    2.339146
      9          1           0        3.511022   -0.122704    1.333638
     10          1           0        1.038795    0.696022   -2.077966
     11          1           0        0.384769    2.901366   -1.083587
     12          7           0        2.685240   -1.104699   -1.003413
     13          8           0        2.203621   -1.394377   -2.096467
     14          8           0        3.460471   -1.810607   -0.362050
     15          6           0       -2.209385   -0.452948    0.789204
     16          6           0       -1.544117   -1.790422    1.115651
     17          6           0       -0.233999   -1.626397    1.886675
     18          1           0       -1.512583    0.162789    0.204156
     19          1           0       -2.398909    0.092244    1.724212
     20          1           0       -1.357163   -2.333530    0.180398
     21          1           0       -2.242655   -2.403122    1.699826
     22          1           0       -0.407323   -1.106761    2.834587
     23          1           0        0.483200   -1.036774    1.306526
     24          1           0        0.224598   -2.594830    2.109580
     25          6           0       -3.520144   -0.600437    0.018564
     26          6           0       -4.185412    0.737037   -0.307882
     27          6           0       -5.495531    0.573013   -1.078907
     28          1           0       -3.330620   -1.145629   -0.916445
     29          1           0       -4.216945   -1.216173    0.603613
     30          1           0       -3.486875    1.349737   -0.892058
     31          1           0       -4.372366    1.280146    0.627370
     32          1           0       -6.212729   -0.016611   -0.498758
     33          1           0       -5.322206    0.053376   -2.026818
     34          1           0       -5.954127    1.541446   -1.301812
 ---------------------------------------------------------------------

 SCF Done:  E(RHF) =  -669.534562313     A.U. after   15 cycles
 E2 =    -0.2094325432D+01 EUMP2 =    -0.67162888774440D+03

 The electronic state is 1-A.
 Alpha  occ. eigenvalues --  -20.60841 -20.60830 -15.85888 -11.31249 -11.27876
 Alpha  occ. eigenvalues --  -11.27829 -11.27604 -11.26901 -11.26860 -11.21814
 Alpha  occ. eigenvalues --  -11.21443 -11.21425 -11.21334 -11.21234 -11.20811
 Alpha  occ. eigenvalues --   -1.59912  -1.39464  -1.19483  -1.08857  -1.08450
 Alpha  occ. eigenvalues --   -1.04877  -1.03534  -0.95982  -0.95682  -0.87006
 Alpha  occ. eigenvalues --   -0.86264  -0.82512  -0.79617  -0.78262  -0.77554
 Alpha  occ. eigenvalues --   -0.72108  -0.71258  -0.70562  -0.65130  -0.65083
 Alpha  occ. eigenvalues --   -0.64865  -0.62214  -0.60964  -0.59352  -0.57605
 Alpha  occ. eigenvalues --   -0.55391  -0.55323  -0.53332  -0.52955  -0.52663
 Alpha  occ. eigenvalues --   -0.52324  -0.49932  -0.48870  -0.48862  -0.47895
 Alpha  occ. eigenvalues --   -0.46645  -0.45770  -0.45695  -0.44855  -0.43781
 Alpha  occ. eigenvalues --   -0.37388  -0.36439
 Alpha virt. eigenvalues --    0.04947   0.11145   0.16405   0.21213   0.22803
 Alpha virt. eigenvalues --    0.24228   0.26247   0.27105   0.27659   0.28137
 Alpha virt. eigenvalues --    0.28313   0.30591   0.31553   0.31815   0.31985

 Mulliken charges:
               1
     1  C   -0.170709
     2  C   -0.214121
     3  C   -0.173529
     4  C    0.156476
     5  C   -0.172538
     6  C   -0.216451
     7  H    0.226476
     8  H    0.224291
     9  H    0.276328
    10  H    0.276018
    11  H    0.224440
    12  N    0.490838
    13  O   -0.461049
    14  O   -0.459700
    15  C   -0.300401
    16  C   -0.300685
    17  C   -0.481678
    18  H    0.148214
    19  H    0.146421
    20  H    0.157260
    21  H    0.151409
    22  H    0.150328
    23  H    0.159190
    24  H    0.164868
    25  C   -0.298732
    26  C   -0.298049
    27  C   -0.475688
    28  H    0.151738
    29  H    0.150470
    30  H    0.146039
    31  H    0.150702
    32  H    0.156422
    33  H    0.156406
    34  H    0.158995
 Sum of Mulliken charges =  -0.00000

 Dipole moment (field-independent basis, Debye):
    X=             -1.2292    Y=              4.5799    Z=              2.0683  Tot=              5.1734
 Quadrupole moment (field-independent basis, Debye-Ang):
   XX=           -100.5342   YY=            -93.1774   ZZ=            -93.2386
   XY=             10.0135   XZ=              7.2241   YZ=             -2.2302

 Normal termination of Gaussian 16 at Thu May  6 09:16:40 2021.
