 Gaussian 16, Revision A.03,
 Gaussian 16:  EM64L-G16RevA.03 25-Dec-2016

 -------------
 #p 6-31g* mp2
 -------------

 ------------------------------------------------------
 Input file generated by CHIRIPA (05-May-2021 14:57:23)
 ------------------------------------------------------
 Symbolic Z-matrix:
 Charge =  0 Multiplicity = 1

                         Standard orientation:
 ---------------------------------------------------------------------
 Center     Atomic      Atomic             Coordinates (Angstroms)
 Number     Number       Type             X           Y           Z
 ---------------------------------------------------------------------
      1          6           0       -4.029683    2.268421   -0.610255
      2          6           0       -3.360946    1.466170   -1.540688
      3          6           0       -2.895303    0.198212   -1.180124
      4          6           0       -3.116643   -0.237895    0.125291
      5          6           0       -3.779489    0.537942    1.075029
      6          6           0       -4.236456    1.802568    0.692338
      7          1           0       -4.388036    3.252107   -0.898944
      8          1           0       -3.198946    1.825365   -2.553002
      9          1           0       -2.374560   -0.443568   -1.880383
     10          1           0       -3.926041    0.152558    2.076737
     11          1           0       -4.755488    2.423435    1.417026
     12          7           0       -2.628280   -1.578462    0.518717
     13          8           0       -2.835892   -1.939606    1.675051
     14          8           0       -2.047138   -2.242669   -0.336700
     15          6           0        5.404611    0.948241    0.730536
     16          6           0        5.304842    0.364597   -0.536716
     17          6           0        4.086791   -0.154638   -0.985372
     18          6           0        2.983720   -0.073080   -0.136920
     19          6           0        3.051286    0.502345    1.130997
     20          6           0        4.279498    1.015134    1.558887
     21          1           0        6.354769    1.349091    1.070997
     22          1           0        6.176965    0.311268   -1.182165
     23          1           0        3.981462   -0.611835   -1.961741
     24          1           0        2.164460    0.540973    1.751855
     25          1           0        4.354035    1.467837    2.543544
     26          7           0        1.688845   -0.619359   -0.600901
     27          8           0        0.731772   -0.535237    0.165632
     28          8           0        1.655513   -1.121311   -1.722315
 ---------------------------------------------------------------------

 SCF Done:  E(RHF) =  -868.337249619     A.U. after   16 cycles
 E2 =    -0.2600544980D+01 EUMP2 =    -0.87093779459818D+03

 The electronic state is 1-A.
 Alpha  occ. eigenvalues --  -20.60510 -20.60487 -20.59298 -20.59158 -15.85560
 Alpha  occ. eigenvalues --  -15.84285 -11.31009 -11.29934 -11.27593 -11.27580
 Alpha  occ. eigenvalues --  -11.27356 -11.26631 -11.26628 -11.26619 -11.26482
 Alpha  occ. eigenvalues --  -11.26450 -11.25733 -11.25653  -1.59557  -1.58275
 Alpha  occ. eigenvalues --   -1.39116  -1.37827  -1.19190  -1.18160  -1.08569
 Alpha  occ. eigenvalues --   -1.07514  -1.04608  -1.03625  -0.95390  -0.94301
 Alpha  occ. eigenvalues --   -0.86002  -0.85009  -0.82228  -0.81147  -0.77255
 Alpha  occ. eigenvalues --   -0.76117  -0.71825  -0.70888  -0.70540  -0.70302
 Alpha  occ. eigenvalues --   -0.69517  -0.69308  -0.64844  -0.64612  -0.63829
 Alpha  occ. eigenvalues --   -0.63662  -0.61953  -0.60967  -0.55109  -0.54167
 Alpha  occ. eigenvalues --   -0.52932  -0.52703  -0.51928  -0.51738  -0.48555
 Alpha  occ. eigenvalues --   -0.48511  -0.47327  -0.47243  -0.44505  -0.43122
 Alpha  occ. eigenvalues --   -0.37180  -0.36217  -0.36167  -0.35238
 Alpha virt. eigenvalues --    0.05284   0.06466   0.11438   0.12416   0.16760
 Alpha virt. eigenvalues --    0.17863   0.21558   0.22401   0.27460   0.28282
 Alpha virt. eigenvalues --    0.28462   0.29363   0.31102   0.31892   0.32701

 Mulliken charges:
               1
     1  C   -0.172513
     2  C   -0.220928
     3  C   -0.164412
     4  C    0.164429
     5  C   -0.172723
     6  C   -0.219850
     7  H    0.220110
     8  H    0.219745
     9  H    0.282574
    10  H    0.271777
    11  H    0.217823
    12  N    0.492138
    13  O   -0.471300
    14  O   -0.447652
    15  C   -0.171125
    16  C   -0.218625
    17  C   -0.171169
    18  C    0.158692
    19  C   -0.170729
    20  C   -0.218635
    21  H    0.224851
    22  H    0.222757
    23  H    0.275297
    24  H    0.276313
    25  H    0.222921
    26  N    0.489193
    27  O   -0.459291
    28  O   -0.459665
 Sum of Mulliken charges =  -0.00000

 Dipole moment (field-independent basis, Debye):
    X=              3.1251    Y=              6.3779    Z=              0.1167  Tot=              7.1033
 Quadrupole moment (field-independent basis, Debye-Ang):
   XX=            -68.2872   YY=           -108.7365   ZZ=            -98.1465
   XY=             -9.3443   XZ=              4.8173   YZ=              2.9339

 Normal termination of Gaussian 16 at Fri May  7 03:21:26 2021.
