 Gaussian 16, Revision A.03,
 Gaussian 16:  EM64L-G16RevA.03 25-Dec-2016

 -------------
 #p 6-31g* mp2
 -------------

 ------------------------------------------------------
 Input file generated by CHIRIPA (05-May-2021 14:57:21)
 ------------------------------------------------------
 Symbolic Z-matrix:
 Charge =  0 Multiplicity = 1

                         Standard orientation:
 ---------------------------------------------------------------------
 Center     Atomic      Atomic             Coordinates (Angstroms)
 Number     Number       Type             X           Y           Z
 ---------------------------------------------------------------------
      1          6           0        5.655134    1.791957   -0.301849
      2          6           0        5.995106    0.579472    0.307099
      3          6           0        5.037234   -0.425462    0.471834
      4          6           0        3.743105   -0.183083    0.013825
      5          6           0        3.373549    1.014339   -0.596829
      6          6           0        4.347745    2.005145   -0.751078
      7          1           0        6.405572    2.567127   -0.425746
      8          1           0        7.009660    0.411135    0.656941
      9          1           0        5.273224   -1.373487    0.939781
     10          1           0        2.353952    1.152934   -0.935403
     11          1           0        4.080866    2.945797   -1.224360
     12          7           0        2.720408   -1.239483    0.182672
     13          8           0        1.587234   -1.001284   -0.229416
     14          8           0        3.071356   -2.285685    0.723905
     15          6           0       -6.190568    1.070055    0.229869
     16          6           0       -5.915516    0.214341   -0.841869
     17          6           0       -4.656344   -0.379150   -0.971503
     18          6           0       -3.691341   -0.093606   -0.006866
     19          6           0       -3.934855    0.754634    1.072245
     20          6           0       -5.201105    1.336999    1.181827
     21          1           0       -7.171472    1.526773    0.322783
     22          1           0       -6.682019    0.005218   -1.582668
     23          1           0       -4.416469   -1.045435   -1.791224
     24          1           0       -3.150471    0.944016    1.794944
     25          1           0       -5.411891    2.001158    2.015197
     26          7           0       -2.354566   -0.716020   -0.133490
     27          8           0       -1.521531   -0.448345    0.729666
     28          8           0       -2.165148   -1.459757   -1.093497
 ---------------------------------------------------------------------

 SCF Done:  E(RHF) =  -868.334341883     A.U. after   16 cycles
 E2 =    -0.2600662769D+01 EUMP2 =    -0.87093500465196D+03

 The electronic state is 1-A.
 Alpha  occ. eigenvalues --  -20.59738 -20.59714 -20.59456 -20.59299 -15.84812
 Alpha  occ. eigenvalues --  -15.84430 -11.30582 -11.30266 -11.27202 -11.27192
 Alpha  occ. eigenvalues --  -11.27014 -11.26909 -11.26873 -11.26741 -11.26307
 Alpha  occ. eigenvalues --  -11.26293 -11.26027 -11.26014  -1.58791  -1.58456
 Alpha  occ. eigenvalues --   -1.38344  -1.37993  -1.18791  -1.18490  -1.08107
 Alpha  occ. eigenvalues --   -1.07802  -1.04254  -1.03961  -0.94873  -0.94549
 Alpha  occ. eigenvalues --   -0.85633  -0.85338  -0.81710  -0.81377  -0.76687
 Alpha  occ. eigenvalues --   -0.76349  -0.71038  -0.70596  -0.70154  -0.69896
 Alpha  occ. eigenvalues --   -0.69804  -0.69597  -0.64433  -0.64261  -0.64122
 Alpha  occ. eigenvalues --   -0.63974  -0.61598  -0.61302  -0.54739  -0.54460
 Alpha  occ. eigenvalues --   -0.52564  -0.52352  -0.52268  -0.52062  -0.47855
 Alpha  occ. eigenvalues --   -0.47731  -0.47400  -0.47282  -0.43683  -0.43259
 Alpha  occ. eigenvalues --   -0.36797  -0.36502  -0.35879  -0.35587
 Alpha virt. eigenvalues --    0.05847   0.06199   0.11769   0.12061   0.17270
 Alpha virt. eigenvalues --    0.17603   0.21861   0.22125   0.27742   0.28001
 Alpha virt. eigenvalues --    0.28785   0.29070   0.31382   0.31639   0.33036

 Mulliken charges:
               1
     1  C   -0.172423
     2  C   -0.218668
     3  C   -0.171897
     4  C    0.159387
     5  C   -0.171246
     6  C   -0.218835
     7  H    0.221965
     8  H    0.220317
     9  H    0.274357
    10  H    0.278016
    11  H    0.220078
    12  N    0.485945
    13  O   -0.440134
    14  O   -0.467481
    15  C   -0.172224
    16  C   -0.218505
    17  C   -0.171817
    18  C    0.159071
    19  C   -0.172154
    20  C   -0.218537
    21  H    0.223182
    22  H    0.221520
    23  H    0.275481
    24  H    0.274802
    25  H    0.221103
    26  N    0.486235
    27  O   -0.450814
    28  O   -0.456722
 Sum of Mulliken charges =  -0.00000

 Dipole moment (field-independent basis, Debye):
    X=             -1.2405    Y=              5.7586    Z=             -0.1777  Tot=              5.8934
 Quadrupole moment (field-independent basis, Debye-Ang):
   XX=            -44.5366   YY=           -105.2723   ZZ=           -101.4831
   XY=              4.1847   XZ=             -0.6615   YZ=              0.9559

 Normal termination of Gaussian 16 at Thu May  6 17:49:45 2021.
