 Gaussian 16, Revision A.03,
 Gaussian 16:  EM64L-G16RevA.03 25-Dec-2016

 -------------
 #p 6-31g* mp2
 -------------

 ------------------------------------------------------
 Input file generated by CHIRIPA (05-May-2021 14:53:13)
 ------------------------------------------------------
 Symbolic Z-matrix:
 Charge =  0 Multiplicity = 1

                         Standard orientation:
 ---------------------------------------------------------------------
 Center     Atomic      Atomic             Coordinates (Angstroms)
 Number     Number       Type             X           Y           Z
 ---------------------------------------------------------------------
      1          6           0        4.261478   -0.809588   -0.332259
      2          6           0        2.766045   -0.622124   -0.074341
      3          6           0        1.949574   -1.874938   -0.393132
      4          1           0        4.413410   -1.090344   -1.383466
      5          1           0        4.628053   -1.650892    0.272081
      6          1           0        2.402691    0.219456   -0.677941
      7          1           0        2.617671   -0.341595    0.976328
      8          1           0        2.284232   -2.718886    0.218713
      9          1           0        2.068031   -2.154648   -1.444955
     10          1           0        0.883368   -1.718779   -0.201612
     11          6           0        5.090989    0.434204   -0.018221
     12          6           0        6.586422    0.246741   -0.276139
     13          6           0        7.402893    1.499554    0.042652
     14          1           0        4.724414    1.275508   -0.622560
     15          1           0        4.939058    0.714960    1.032987
     16          1           0        6.734796   -0.033789   -1.326808
     17          1           0        6.949776   -0.594839    0.327461
     18          1           0        7.284436    1.779264    1.094475
     19          1           0        7.068235    2.343503   -0.569193
     20          1           0        8.469099    1.343395   -0.148868
     21          6           0       -5.984828    0.633589   -0.695447
     22          6           0       -5.572910   -0.688940   -0.501121
     23          6           0       -4.283377   -0.970521   -0.040289
     24          6           0       -3.427904    0.099557    0.217375
     25          6           0       -3.808848    1.427870    0.033639
     26          6           0       -5.103037    1.685917   -0.427919
     27          1           0       -6.988377    0.843187   -1.053713
     28          1           0       -6.255585   -1.508191   -0.708065
     29          1           0       -3.938488   -1.984986    0.118865
     30          1           0       -3.105833    2.223472    0.248586
     31          1           0       -5.420214    2.713994   -0.577922
     32          7           0       -2.060270   -0.186083    0.705621
     33          8           0       -1.325585    0.774444    0.925316
     34          8           0       -1.748898   -1.365085    0.859368
 ---------------------------------------------------------------------

 SCF Done:  E(RHF) =  -669.536570215     A.U. after   15 cycles
 E2 =    -0.2091060379D+01 EUMP2 =    -0.67162763059474D+03

 The electronic state is 1-A.
 Alpha  occ. eigenvalues --  -20.61032 -20.61020 -15.86039 -11.31336 -11.27893
 Alpha  occ. eigenvalues --  -11.27889 -11.27627 -11.26892 -11.26883 -11.20900
 Alpha  occ. eigenvalues --  -11.20496 -11.20488 -11.20286 -11.20121 -11.19345
 Alpha  occ. eigenvalues --   -1.60076  -1.39631  -1.19499  -1.08909  -1.07413
 Alpha  occ. eigenvalues --   -1.04890  -1.02429  -0.95755  -0.94884  -0.86292
 Alpha  occ. eigenvalues --   -0.85912  -0.82587  -0.78539  -0.77646  -0.77168
 Alpha  occ. eigenvalues --   -0.72250  -0.71386  -0.70607  -0.65153  -0.64892
 Alpha  occ. eigenvalues --   -0.64060  -0.62236  -0.59846  -0.58298  -0.56452
 Alpha  occ. eigenvalues --   -0.55393  -0.54209  -0.53224  -0.52981  -0.51559
 Alpha  occ. eigenvalues --   -0.51325  -0.49015  -0.48971  -0.48878  -0.46822
 Alpha  occ. eigenvalues --   -0.45608  -0.45051  -0.44707  -0.44628  -0.42644
 Alpha  occ. eigenvalues --   -0.37476  -0.36489
 Alpha virt. eigenvalues --    0.04849   0.11167   0.16349   0.21306   0.23796
 Alpha virt. eigenvalues --    0.25474   0.27227   0.27612   0.28173   0.28484
 Alpha virt. eigenvalues --    0.29159   0.30862   0.32404   0.32418   0.32690

 Mulliken charges:
               1
     1  C   -0.297628
     2  C   -0.296362
     3  C   -0.486296
     4  H    0.145555
     5  H    0.147057
     6  H    0.150031
     7  H    0.157241
     8  H    0.149688
     9  H    0.144224
    10  H    0.185703
    11  C   -0.297250
    12  C   -0.298759
    13  C   -0.475087
    14  H    0.148031
    15  H    0.149819
    16  H    0.150178
    17  H    0.150882
    18  H    0.154771
    19  H    0.154045
    20  H    0.157867
    21  C   -0.170443
    22  C   -0.218597
    23  C   -0.170635
    24  C    0.158597
    25  C   -0.170714
    26  C   -0.218627
    27  H    0.226161
    28  H    0.224022
    29  H    0.276120
    30  H    0.275994
    31  H    0.223973
    32  N    0.488114
    33  O   -0.458421
    34  O   -0.459253
 Sum of Mulliken charges =  -0.00000

 Dipole moment (field-independent basis, Debye):
    X=             -5.2501    Y=              1.0624    Z=             -1.6174  Tot=              5.5954
 Quadrupole moment (field-independent basis, Debye-Ang):
   XX=            -63.9097   YY=            -90.5461   ZZ=            -95.6167
   XY=             -3.4036   XZ=              5.3741   YZ=             -0.4054

 Normal termination of Gaussian 16 at Thu May  6 10:28:29 2021.
