 Gaussian 16, Revision A.03,
 Gaussian 16:  EM64L-G16RevA.03 25-Dec-2016

 -------------
 #p 6-31g* mp2
 -------------

 ------------------------------------------------------
 Input file generated by CHIRIPA (05-May-2021 14:51:09)
 ------------------------------------------------------
 Symbolic Z-matrix:
 Charge =  0 Multiplicity = 1

                         Standard orientation:
 ---------------------------------------------------------------------
 Center     Atomic      Atomic             Coordinates (Angstroms)
 Number     Number       Type             X           Y           Z
 ---------------------------------------------------------------------
      1          6           0       -3.504216    0.646705    0.034103
      2          6           0       -3.123388    1.682014   -1.024712
      3          6           0       -2.181143    2.759098   -0.486328
      4          1           0       -3.976726    1.157688    0.884148
      5          1           0       -2.590308    0.175404    0.421454
      6          1           0       -4.037832    2.150240   -1.410942
      7          1           0       -2.651904    1.168485   -1.872419
      8          1           0       -1.252888    2.310052   -0.118493
      9          1           0       -2.646691    3.297385    0.345606
     10          1           0       -1.921815    3.488749   -1.259774
     11          6           0       -4.445780   -0.436617   -0.488964
     12          6           0       -4.826609   -1.471926    0.569851
     13          6           0       -5.768854   -2.549010    0.031466
     14          1           0       -5.359689    0.034684   -0.876316
     15          1           0       -3.973271   -0.947600   -1.339009
     16          1           0       -5.298093   -0.958397    1.417557
     17          1           0       -3.912165   -1.940152    0.956080
     18          1           0       -5.303306   -3.087297   -0.800467
     19          1           0       -6.697109   -2.099964   -0.336368
     20          1           0       -6.028182   -3.278661    0.804912
     21          6           0        3.214372   -0.156313    0.274881
     22          6           0        2.585276    0.939721    1.135655
     23          6           0        1.063086    0.823732    1.220954
     24          1           0        2.784683   -0.112314   -0.735256
     25          1           0        2.943059   -1.137916    0.687481
     26          1           0        2.858840    1.918989    0.722359
     27          1           0        3.016653    0.893230    2.143807
     28          1           0        0.773773   -0.139316    1.653894
     29          1           0        0.615063    0.892271    0.224371
     30          1           0        0.634128    1.617038    1.841051
     31          6           0        4.735624   -0.053775    0.179980
     32          6           0        5.364720   -1.149809   -0.680794
     33          6           0        6.886911   -1.033820   -0.766092
     34          1           0        5.006938    0.927829   -0.232619
     35          1           0        5.165313   -0.097774    1.190117
     36          1           0        4.933344   -1.103318   -1.688945
     37          1           0        5.091158   -2.129077   -0.267498
     38          1           0        7.334934   -1.102358    0.230491
     39          1           0        7.176223   -0.070772   -1.199032
     40          1           0        7.315869   -1.827126   -1.386190
 ---------------------------------------------------------------------

 SCF Done:  E(RHF) =  -470.733079311     A.U. after   11 cycles
 E2 =    -0.1582625658D+01 EUMP2 =    -0.47231570496872D+03

 The electronic state is 1-A.
 Alpha  occ. eigenvalues --  -11.21654 -11.21628 -11.21559 -11.21526 -11.21445
 Alpha  occ. eigenvalues --  -11.21384 -11.21340 -11.21274 -11.21148 -11.21091
 Alpha  occ. eigenvalues --  -11.21040 -11.20916  -1.08472  -1.08364  -1.03582
 Alpha  occ. eigenvalues --   -1.03459  -0.96046  -0.95898  -0.87077  -0.86904
 Alpha  occ. eigenvalues --   -0.79677  -0.79496  -0.78287  -0.78169  -0.65117
 Alpha  occ. eigenvalues --   -0.64988  -0.61074  -0.60791  -0.59404  -0.59272
 Alpha  occ. eigenvalues --   -0.57636  -0.57528  -0.55492  -0.55055  -0.52764
 Alpha  occ. eigenvalues --   -0.52605  -0.52462  -0.52296  -0.50143  -0.49679
 Alpha  occ. eigenvalues --   -0.47990  -0.47814  -0.46752  -0.46454  -0.45860
 Alpha  occ. eigenvalues --   -0.45752  -0.45701  -0.45569  -0.43813  -0.43717
 Alpha virt. eigenvalues --    0.21786   0.22974   0.23673   0.24776   0.26079
 Alpha virt. eigenvalues --    0.26614   0.27202   0.27502   0.27933   0.29098
 Alpha virt. eigenvalues --    0.30776   0.31353   0.31565   0.31821   0.32261

 Mulliken charges:
               1
     1  C   -0.299765
     2  C   -0.298951
     3  C   -0.484270
     4  H    0.149380
     5  H    0.151709
     6  H    0.151521
     7  H    0.150893
     8  H    0.165149
     9  H    0.154401
    10  H    0.159010
    11  C   -0.298196
    12  C   -0.299577
    13  C   -0.475661
    14  H    0.149339
    15  H    0.149406
    16  H    0.151852
    17  H    0.151921
    18  H    0.155085
    19  H    0.155104
    20  H    0.160075
    21  C   -0.298749
    22  C   -0.299826
    23  C   -0.480188
    24  H    0.149810
    25  H    0.149500
    26  H    0.152609
    27  H    0.152315
    28  H    0.155387
    29  H    0.157827
    30  H    0.162458
    31  C   -0.298354
    32  C   -0.299686
    33  C   -0.475736
    34  H    0.149714
    35  H    0.149780
    36  H    0.151956
    37  H    0.151929
    38  H    0.155234
    39  H    0.155263
    40  H    0.160329
 Sum of Mulliken charges =  -0.00000

 Dipole moment (field-independent basis, Debye):
    X=              0.0629    Y=             -0.0100    Z=              0.0302  Tot=              0.0705
 Quadrupole moment (field-independent basis, Debye-Ang):
   XX=            -85.9219   YY=            -84.9308   ZZ=            -84.1124
   XY=             -0.9621   XZ=             -0.1759   YZ=             -0.4981

 Normal termination of Gaussian 16 at Wed May  5 21:19:43 2021.
