 Gaussian 16, Revision A.03,
 Gaussian 16:  EM64L-G16RevA.03 25-Dec-2016

 -------------
 #p 6-31g* mp2
 -------------

 ------------------------------------------------------
 Input file generated by CHIRIPA (05-May-2021 14:53:12)
 ------------------------------------------------------
 Symbolic Z-matrix:
 Charge =  0 Multiplicity = 1

                         Standard orientation:
 ---------------------------------------------------------------------
 Center     Atomic      Atomic             Coordinates (Angstroms)
 Number     Number       Type             X           Y           Z
 ---------------------------------------------------------------------
      1          6           0        5.190129    0.057963    0.303168
      2          6           0        5.860724   -0.707951   -0.837737
      3          6           0        7.387139   -0.645944   -0.774442
      4          1           0        5.517433    1.106298    0.274693
      5          1           0        5.535170   -0.351257    1.262793
      6          1           0        5.513462   -0.298320   -1.794935
      7          1           0        5.531637   -1.754542   -0.806660
      8          1           0        7.751403   -1.073145    0.165458
      9          1           0        7.733124    0.391351   -0.828432
     10          1           0        7.845990   -1.199993   -1.599272
     11          6           0        3.664191    0.005251    0.253560
     12          6           0        2.993596    0.771165    1.394465
     13          6           0        1.467181    0.709157    1.331170
     14          1           0        3.319151    0.414471   -0.706065
     15          1           0        3.336887   -1.043084    0.282035
     16          1           0        3.322683    1.817755    1.363388
     17          1           0        3.340858    0.361534    2.351663
     18          1           0        1.121196   -0.328137    1.385160
     19          1           0        1.102917    1.136358    0.391270
     20          1           0        1.008330    1.263207    2.156000
     21          6           0       -2.614276    2.311017   -0.661654
     22          6           0       -1.759757    1.215354   -0.822408
     23          6           0       -2.216862   -0.083263   -0.579108
     24          6           0       -3.540357   -0.250501   -0.174530
     25          6           0       -4.416039    0.820900   -0.005504
     26          6           0       -3.937358    2.110647   -0.254433
     27          1           0       -2.250806    3.316370   -0.852841
     28          1           0       -0.731748    1.367969   -1.138555
     29          1           0       -1.576768   -0.949344   -0.695738
     30          1           0       -5.435668    0.637193    0.310764
     31          1           0       -4.603235    2.959681   -0.128769
     32          7           0       -4.035694   -1.620594    0.086020
     33          8           0       -5.206036   -1.741274    0.441510
     34          8           0       -3.244218   -2.547849   -0.070183
 ---------------------------------------------------------------------

 SCF Done:  E(RHF) =  -669.535223394     A.U. after   15 cycles
 E2 =    -0.2091231111D+01 EUMP2 =    -0.67162645450461D+03

 The electronic state is 1-A.
 Alpha  occ. eigenvalues --  -20.60727 -20.60722 -15.85780 -11.31135 -11.27706
 Alpha  occ. eigenvalues --  -11.27694 -11.27447 -11.26726 -11.26698 -11.22105
 Alpha  occ. eigenvalues --  -11.21892 -11.21855 -11.21738 -11.21723 -11.21304
 Alpha  occ. eigenvalues --   -1.59803  -1.39356  -1.19308  -1.08848  -1.08707
 Alpha  occ. eigenvalues --   -1.04712  -1.03951  -0.96414  -0.95542  -0.87437
 Alpha  occ. eigenvalues --   -0.86110  -0.82378  -0.80020  -0.78652  -0.77421
 Alpha  occ. eigenvalues --   -0.71999  -0.71125  -0.70418  -0.65489  -0.64962
 Alpha  occ. eigenvalues --   -0.64736  -0.62099  -0.61330  -0.59774  -0.58014
 Alpha  occ. eigenvalues --   -0.55733  -0.55211  -0.53203  -0.53017  -0.52920
 Alpha  occ. eigenvalues --   -0.52644  -0.50341  -0.48759  -0.48754  -0.48326
 Alpha  occ. eigenvalues --   -0.47043  -0.46194  -0.46110  -0.44764  -0.44196
 Alpha  occ. eigenvalues --   -0.37288  -0.36286
 Alpha virt. eigenvalues --    0.05103   0.11300   0.16542   0.20389   0.22620
 Alpha virt. eigenvalues --    0.23900   0.25562   0.26345   0.27303   0.28062
 Alpha virt. eigenvalues --    0.29175   0.29574   0.31397   0.31605   0.32291

 Mulliken charges:
               1
     1  C   -0.298479
     2  C   -0.300019
     3  C   -0.475954
     4  H    0.149452
     5  H    0.151332
     6  H    0.151081
     7  H    0.153436
     8  H    0.156124
     9  H    0.155010
    10  H    0.161294
    11  C   -0.298485
    12  C   -0.300175
    13  C   -0.476469
    14  H    0.145052
    15  H    0.152006
    16  H    0.151537
    17  H    0.155501
    18  H    0.159029
    19  H    0.143677
    20  H    0.164050
    21  C   -0.171966
    22  C   -0.216005
    23  C   -0.171088
    24  C    0.158278
    25  C   -0.171034
    26  C   -0.218579
    27  H    0.225274
    28  H    0.224882
    29  H    0.275826
    30  H    0.275380
    31  H    0.223149
    32  N    0.488142
    33  O   -0.460639
    34  O   -0.460620
 Sum of Mulliken charges =  -0.00000

 Dipole moment (field-independent basis, Debye):
    X=              1.8509    Y=              4.7989    Z=             -0.8468  Tot=              5.2127
 Quadrupole moment (field-independent basis, Debye-Ang):
   XX=           -104.0555   YY=            -96.3700   ZZ=            -94.5654
   XY=            -19.7257   XZ=              1.9855   YZ=             -0.6259

 Normal termination of Gaussian 16 at Thu May  6 02:32:26 2021.
