 Gaussian 16, Revision A.03,
 Gaussian 16:  EM64L-G16RevA.03 25-Dec-2016

 -------------
 #p 6-31g* mp2
 -------------

 ------------------------------------------------------
 Input file generated by CHIRIPA (05-May-2021 14:51:12)
 ------------------------------------------------------
 Symbolic Z-matrix:
 Charge =  0 Multiplicity = 1

                         Standard orientation:
 ---------------------------------------------------------------------
 Center     Atomic      Atomic             Coordinates (Angstroms)
 Number     Number       Type             X           Y           Z
 ---------------------------------------------------------------------
      1          6           0       -3.613857   -0.107550    0.287709
      2          6           0       -4.092878    0.378127   -1.080736
      3          6           0       -5.474280    1.031210   -1.025923
      4          1           0       -4.343342   -0.822714    0.691860
      5          1           0       -3.591170    0.742641    0.983450
      6          1           0       -4.113333   -0.472463   -1.774058
      7          1           0       -3.362073    1.092073   -1.481762
      8          1           0       -5.464754    1.897036   -0.355956
      9          1           0       -6.220283    0.323611   -0.649913
     10          1           0       -5.797215    1.371045   -2.014905
     11          6           0       -2.234382   -0.762754    0.249199
     12          6           0       -1.755361   -1.248431    1.617644
     13          6           0       -0.373959   -1.901514    1.562830
     14          1           0       -2.257069   -1.612944   -0.446543
     15          1           0       -1.504897   -0.047590   -0.154953
     16          1           0       -2.486166   -1.962377    2.018669
     17          1           0       -1.734906   -0.397841    2.310965
     18          1           0        0.372044   -1.193915    1.186820
     19          1           0       -0.383485   -2.767340    0.892863
     20          1           0       -0.051024   -2.241349    2.551813
     21          6           0        2.500430    1.070227   -0.292927
     22          6           0        3.083462    2.220168    0.529079
     23          6           0        2.224583    3.483757    0.470200
     24          1           0        2.391534    1.392940   -1.337409
     25          1           0        1.488726    0.844337    0.071526
     26          1           0        4.094298    2.442902    0.164092
     27          1           0        3.191161    1.894618    1.571688
     28          1           0        1.218742    3.284088    0.853628
     29          1           0        2.127010    3.835488   -0.561966
     30          1           0        2.659816    4.293080    1.064698
     31          6           0        3.347809   -0.199923   -0.243981
     32          6           0        2.764777   -1.349864   -1.065987
     33          6           0        3.623656   -2.613453   -1.007106
     34          1           0        4.359513    0.025967   -0.608433
     35          1           0        3.456705   -0.522636    0.800501
     36          1           0        2.657077   -1.024313   -2.108596
     37          1           0        1.753941   -1.572598   -0.700999
     38          1           0        3.721228   -2.965184    0.025059
     39          1           0        4.629497   -2.413784   -1.390535
     40          1           0        3.188423   -3.422776   -1.601606
 ---------------------------------------------------------------------

 SCF Done:  E(RHF) =  -470.732862479     A.U. after   11 cycles
 E2 =    -0.1583742179D+01 EUMP2 =    -0.47231660465770D+03

 The electronic state is 1-A.
 Alpha  occ. eigenvalues --  -11.21665 -11.21627 -11.21613 -11.21479 -11.21445
 Alpha  occ. eigenvalues --  -11.21422 -11.21383 -11.21336 -11.21139 -11.21106
 Alpha  occ. eigenvalues --  -11.21079 -11.20999  -1.08481  -1.08416  -1.03584
 Alpha  occ. eigenvalues --   -1.03498  -0.96029  -0.95966  -0.87060  -0.86970
 Alpha  occ. eigenvalues --   -0.79679  -0.79543  -0.78340  -0.78178  -0.65231
 Alpha  occ. eigenvalues --   -0.64968  -0.61003  -0.60889  -0.59405  -0.59322
 Alpha  occ. eigenvalues --   -0.57635  -0.57571  -0.55385  -0.55190  -0.52718
 Alpha  occ. eigenvalues --   -0.52668  -0.52477  -0.52371  -0.50002  -0.49884
 Alpha  occ. eigenvalues --   -0.48096  -0.47822  -0.46737  -0.46587  -0.46053
 Alpha  occ. eigenvalues --   -0.45760  -0.45743  -0.45278  -0.43826  -0.43767
 Alpha virt. eigenvalues --    0.20170   0.23031   0.24082   0.24252   0.25684
 Alpha virt. eigenvalues --    0.26836   0.27059   0.27702   0.27884   0.29524
 Alpha virt. eigenvalues --    0.31106   0.31565   0.31726   0.31859   0.32297

 Mulliken charges:
               1
     1  C   -0.298216
     2  C   -0.299769
     3  C   -0.475749
     4  H    0.149822
     5  H    0.149526
     6  H    0.152008
     7  H    0.152344
     8  H    0.155240
     9  H    0.155151
    10  H    0.160370
    11  C   -0.300568
    12  C   -0.299274
    13  C   -0.484212
    14  H    0.149831
    15  H    0.151110
    16  H    0.152347
    17  H    0.151663
    18  H    0.163250
    19  H    0.156058
    20  H    0.160554
    21  C   -0.303655
    22  C   -0.299415
    23  C   -0.475673
    24  H    0.150146
    25  H    0.152043
    26  H    0.152337
    27  H    0.152107
    28  H    0.154532
    29  H    0.155270
    30  H    0.160476
    31  C   -0.298542
    32  C   -0.306017
    33  C   -0.475331
    34  H    0.149771
    35  H    0.149941
    36  H    0.151163
    37  H    0.159497
    38  H    0.155409
    39  H    0.154652
    40  H    0.159804
 Sum of Mulliken charges =  -0.00000

 Dipole moment (field-independent basis, Debye):
    X=             -0.0257    Y=             -0.0081    Z=              0.0092  Tot=              0.0284
 Quadrupole moment (field-independent basis, Debye-Ang):
   XX=            -85.5939   YY=            -85.0578   ZZ=            -84.1284
   XY=              1.6229   XZ=             -0.3911   YZ=             -0.1343

 Normal termination of Gaussian 16 at Thu May  6 03:53:16 2021.
