 Gaussian 16, Revision A.03,
 Gaussian 16:  EM64L-G16RevA.03 25-Dec-2016

 -------------
 #p 6-31g* mp2
 -------------

 ------------------------------------------------------
 Input file generated by CHIRIPA (05-May-2021 14:55:23)
 ------------------------------------------------------
 Symbolic Z-matrix:
 Charge =  0 Multiplicity = 1

                         Standard orientation:
 ---------------------------------------------------------------------
 Center     Atomic      Atomic             Coordinates (Angstroms)
 Number     Number       Type             X           Y           Z
 ---------------------------------------------------------------------
      1          6           0       -1.148648    1.324358    0.902652
      2          6           0       -1.081361    0.660072   -0.326461
      3          6           0       -2.156444   -0.112490   -0.775785
      4          6           0       -3.288450   -0.199271    0.033116
      5          6           0       -3.385742    0.450708    1.262486
      6          6           0       -2.298597    1.217744    1.691811
      7          1           0       -0.308813    1.922356    1.243930
      8          1           0       -0.189564    0.741072   -0.941427
      9          1           0       -2.131045   -0.637227   -1.723109
     10          1           0       -4.288096    0.351016    1.853449
     11          1           0       -2.353652    1.732539    2.646798
     12          7           0       -4.432977   -1.014223   -0.431977
     13          8           0       -5.418991   -1.074681    0.299295
     14          8           0       -4.322372   -1.577092   -1.518983
     15          6           0        3.753897    0.614099   -0.646252
     16          6           0        2.743457    1.614693   -0.084283
     17          6           0        2.325255    2.670652   -1.107928
     18          1           0        4.641511    1.157461   -0.998165
     19          1           0        3.319882    0.120730   -1.526939
     20          1           0        3.178720    2.105030    0.795905
     21          1           0        1.858225    1.068866    0.266509
     22          1           0        1.866878    2.198654   -1.982976
     23          1           0        3.194875    3.240704   -1.450571
     24          1           0        1.602621    3.375588   -0.685169
     25          6           0        4.181637   -0.447809    0.365243
     26          6           0        5.192078   -1.448402   -0.196725
     27          6           0        5.610279   -2.504362    0.826920
     28          1           0        4.615653    0.045561    1.245931
     29          1           0        3.294023   -0.991171    0.717157
     30          1           0        6.077310   -0.902576   -0.547517
     31          1           0        4.756815   -1.938738   -1.076913
     32          1           0        4.740660   -3.074413    1.169563
     33          1           0        6.068658   -2.032363    1.701967
     34          1           0        6.332914   -3.209297    0.404160
 ---------------------------------------------------------------------

 SCF Done:  E(RHF) =  -669.534896408     A.U. after   15 cycles
 E2 =    -0.2092495069D+01 EUMP2 =    -0.67162739147795D+03

 The electronic state is 1-A.
 Alpha  occ. eigenvalues --  -20.60742 -20.60737 -15.85795 -11.31156 -11.27723
 Alpha  occ. eigenvalues --  -11.27715 -11.27430 -11.26731 -11.26687 -11.22864
 Alpha  occ. eigenvalues --  -11.22356 -11.22347 -11.22187 -11.22108 -11.21529
 Alpha  occ. eigenvalues --   -1.59817  -1.39371  -1.19324  -1.09343  -1.08716
 Alpha  occ. eigenvalues --   -1.04737  -1.04434  -0.96868  -0.95554  -0.87875
 Alpha  occ. eigenvalues --   -0.86132  -0.82389  -0.80542  -0.79091  -0.77442
 Alpha  occ. eigenvalues --   -0.72014  -0.71140  -0.70447  -0.66095  -0.64972
 Alpha  occ. eigenvalues --   -0.64717  -0.62268  -0.61588  -0.60267  -0.58462
 Alpha  occ. eigenvalues --   -0.56139  -0.55211  -0.53566  -0.53287  -0.53053
 Alpha  occ. eigenvalues --   -0.52791  -0.50811  -0.48838  -0.48769  -0.48754
 Alpha  occ. eigenvalues --   -0.47583  -0.46628  -0.46522  -0.44778  -0.44663
 Alpha  occ. eigenvalues --   -0.37289  -0.36326
 Alpha virt. eigenvalues --    0.05085   0.11230   0.16573   0.19173   0.22448
 Alpha virt. eigenvalues --    0.23928   0.25107   0.25772   0.26777   0.27601
 Alpha virt. eigenvalues --    0.29180   0.30046   0.30970   0.31382   0.32271

 Mulliken charges:
               1
     1  C   -0.174821
     2  C   -0.223043
     3  C   -0.172196
     4  C    0.158536
     5  C   -0.171025
     6  C   -0.218857
     7  H    0.229776
     8  H    0.230798
     9  H    0.275492
    10  H    0.275448
    11  H    0.223384
    12  N    0.488076
    13  O   -0.460498
    14  O   -0.460542
    15  C   -0.297729
    16  C   -0.311039
    17  C   -0.480163
    18  H    0.153739
    19  H    0.149165
    20  H    0.155960
    21  H    0.147182
    22  H    0.153753
    23  H    0.163704
    24  H    0.159093
    25  C   -0.299405
    26  C   -0.300383
    27  C   -0.476331
    28  H    0.150568
    29  H    0.150631
    30  H    0.153097
    31  H    0.153111
    32  H    0.156424
    33  H    0.155633
    34  H    0.162462
 Sum of Mulliken charges =  -0.00000

 Dipole moment (field-independent basis, Debye):
    X=              4.2724    Y=              2.8656    Z=              1.6299  Tot=              5.3965
 Quadrupole moment (field-independent basis, Debye-Ang):
   XX=           -119.1843   YY=            -96.4734   ZZ=            -91.6569
   XY=            -10.1496   XZ=             -7.8354   YZ=              1.5577

 Normal termination of Gaussian 16 at Thu May  6 06:19:14 2021.
