 Gaussian 16, Revision A.03,
 Gaussian 16:  EM64L-G16RevA.03 25-Dec-2016

 -------------
 #p 6-31g* mp2
 -------------

 ------------------------------------------------------
 Input file generated by CHIRIPA (05-May-2021 14:53:15)
 ------------------------------------------------------
 Symbolic Z-matrix:
 Charge =  0 Multiplicity = 1

                         Standard orientation:
 ---------------------------------------------------------------------
 Center     Atomic      Atomic             Coordinates (Angstroms)
 Number     Number       Type             X           Y           Z
 ---------------------------------------------------------------------
      1          6           0        3.972978    0.885562    0.085499
      2          6           0        2.751785    1.731723   -0.276004
      3          6           0        3.018138    3.233016   -0.162123
      4          1           0        4.288061    1.126831    1.109929
      5          1           0        4.809139    1.161449   -0.571857
      6          1           0        1.917774    1.453349    0.380920
      7          1           0        2.439455    1.488273   -1.299625
      8          1           0        3.832763    3.531484   -0.829884
      9          1           0        3.308117    3.496362    0.860209
     10          1           0        2.131966    3.819051   -0.425034
     11          6           0        3.722358   -0.617445   -0.023534
     12          6           0        4.943551   -1.463606    0.337969
     13          6           0        4.677198   -2.964899    0.224088
     14          1           0        2.886197   -0.893331    0.633821
     15          1           0        3.407275   -0.858714   -1.047964
     16          1           0        5.255880   -1.220156    1.361589
     17          1           0        5.777562   -1.185231   -0.318955
     18          1           0        4.387219   -3.228245   -0.798244
     19          1           0        3.862573   -3.263367    0.891849
     20          1           0        5.563370   -3.550934    0.486998
     21          6           0       -5.478174   -0.567970    0.174894
     22          6           0       -4.607887   -1.579806   -0.243803
     23          6           0       -3.236259   -1.334434   -0.357721
     24          6           0       -2.766989   -0.059949   -0.043453
     25          6           0       -3.608730    0.968879    0.376398
     26          6           0       -4.976703    0.700906    0.483115
     27          1           0       -6.542269   -0.767359    0.260591
     28          1           0       -4.994528   -2.566182   -0.483835
     29          1           0       -2.540144   -2.099490   -0.679485
     30          1           0       -3.193719    1.942136    0.608676
     31          1           0       -5.650236    1.488627    0.808529
     32          7           0       -1.316842    0.211778   -0.160242
     33          8           0       -0.928394    1.343052    0.122538
     34          8           0       -0.596125   -0.711661   -0.532348
 ---------------------------------------------------------------------

 SCF Done:  E(RHF) =  -669.536283056     A.U. after   15 cycles
 E2 =    -0.2091543249D+01 EUMP2 =    -0.67162782630431D+03

 The electronic state is 1-A.
 Alpha  occ. eigenvalues --  -20.61029 -20.61023 -15.86042 -11.31348 -11.27905
 Alpha  occ. eigenvalues --  -11.27902 -11.27638 -11.26907 -11.26897 -11.20492
 Alpha  occ. eigenvalues --  -11.20146 -11.19901 -11.19837 -11.19571 -11.19512
 Alpha  occ. eigenvalues --   -1.60074  -1.39631  -1.19511  -1.08919  -1.06950
 Alpha  occ. eigenvalues --   -1.04904  -1.02099  -0.95762  -0.94616  -0.86305
 Alpha  occ. eigenvalues --   -0.85646  -0.82597  -0.78161  -0.77653  -0.76661
 Alpha  occ. eigenvalues --   -0.72249  -0.71387  -0.70619  -0.65166  -0.64906
 Alpha  occ. eigenvalues --   -0.63602  -0.62250  -0.59515  -0.57998  -0.56177
 Alpha  occ. eigenvalues --   -0.55407  -0.53937  -0.53237  -0.52994  -0.51352
 Alpha  occ. eigenvalues --   -0.51028  -0.49115  -0.49010  -0.48579  -0.46439
 Alpha  occ. eigenvalues --   -0.45205  -0.45019  -0.44232  -0.44037  -0.42345
 Alpha  occ. eigenvalues --   -0.37490  -0.36503
 Alpha virt. eigenvalues --    0.04867   0.11152   0.16371   0.21292   0.24222
 Alpha virt. eigenvalues --    0.25644   0.27212   0.28085   0.28198   0.29015
 Alpha virt. eigenvalues --    0.29303   0.30873   0.32393   0.32719   0.33111

 Mulliken charges:
               1
     1  C   -0.299007
     2  C   -0.301170
     3  C   -0.475473
     4  H    0.143472
     5  H    0.142327
     6  H    0.175982
     7  H    0.151396
     8  H    0.147320
     9  H    0.148862
    10  H    0.160746
    11  C   -0.296218
    12  C   -0.298796
    13  C   -0.474220
    14  H    0.156234
    15  H    0.151370
    16  H    0.148405
    17  H    0.148357
    18  H    0.154363
    19  H    0.154530
    20  H    0.155436
    21  C   -0.170502
    22  C   -0.218593
    23  C   -0.170800
    24  C    0.158228
    25  C   -0.170781
    26  C   -0.218559
    27  H    0.226183
    28  H    0.224029
    29  H    0.276031
    30  H    0.275874
    31  H    0.224003
    32  N    0.488417
    33  O   -0.458819
    34  O   -0.458629
 Sum of Mulliken charges =  -0.00000

 Dipole moment (field-independent basis, Debye):
    X=             -5.6136    Y=             -1.0154    Z=              0.3997  Tot=              5.7187
 Quadrupole moment (field-independent basis, Debye-Ang):
   XX=            -68.8511   YY=            -92.3141   ZZ=            -94.3129
   XY=              1.9498   XZ=             -1.6020   YZ=              1.7388

 Normal termination of Gaussian 16 at Thu May  6 01:07:18 2021.
