 Gaussian 16, Revision A.03,
 Gaussian 16:  EM64L-G16RevA.03 25-Dec-2016

 -------------
 #p 6-31g* mp2
 -------------

 ------------------------------------------------------
 Input file generated by CHIRIPA (05-May-2021 14:51:08)
 ------------------------------------------------------
 Symbolic Z-matrix:
 Charge =  0 Multiplicity = 1

                         Standard orientation:
 ---------------------------------------------------------------------
 Center     Atomic      Atomic             Coordinates (Angstroms)
 Number     Number       Type             X           Y           Z
 ---------------------------------------------------------------------
      1          6           0       -2.907737   -0.748047   -0.353775
      2          6           0       -4.123002   -1.062548    0.519269
      3          6           0       -4.341389   -2.563813    0.709812
      4          1           0       -3.033729   -1.228949   -1.333470
      5          1           0       -2.012796   -1.194892    0.100984
      6          1           0       -5.015168   -0.614067    0.063723
      7          1           0       -3.994192   -0.580682    1.496934
      8          1           0       -3.468677   -3.022726    1.185599
      9          1           0       -4.495454   -3.056301   -0.255756
     10          1           0       -5.215232   -2.765968    1.337020
     11          6           0       -2.676328    0.748714   -0.553489
     12          6           0       -1.461063    1.063215   -1.426533
     13          6           0       -1.242677    2.564479   -1.617075
     14          1           0       -3.571269    1.195559   -1.008247
     15          1           0       -2.550337    1.229616    0.426207
     16          1           0       -1.589874    0.581349   -2.404198
     17          1           0       -0.568898    0.614734   -0.970987
     18          1           0       -1.088612    3.056968   -0.651508
     19          1           0       -2.115389    3.023393   -2.092862
     20          1           0       -0.368833    2.766635   -2.244284
     21          6           0        3.008701   -0.718044    0.307421
     22          6           0        4.207654   -0.808994   -0.637156
     23          6           0        4.629268   -2.251212   -0.920072
     24          1           0        3.255317   -1.221522    1.252215
     25          1           0        2.164172   -1.268988   -0.129187
     26          1           0        5.049249   -0.256878   -0.199543
     27          1           0        3.958225   -0.305074   -1.579741
     28          1           0        3.807306   -2.809819   -1.379352
     29          1           0        4.904527   -2.761348    0.008687
     30          1           0        5.487959   -2.292934   -1.597396
     31          6           0        2.575364    0.717378    0.599843
     32          6           0        1.376412    0.808327    1.544419
     33          6           0        0.954799    2.250546    1.827335
     34          1           0        3.419893    1.268321    1.036451
     35          1           0        2.328749    1.220856   -0.344952
     36          1           0        1.625841    0.304408    2.487004
     37          1           0        0.534818    0.256212    1.106807
     38          1           0        0.679538    2.760682    0.898576
     39          1           0        1.776761    2.809152    2.286615
     40          1           0        0.096107    2.292268    2.504660
 ---------------------------------------------------------------------

 SCF Done:  E(RHF) =  -470.732563217     A.U. after   11 cycles
 E2 =    -0.1584512543D+01 EUMP2 =    -0.47231707576024D+03

 The electronic state is 1-A.
 Alpha  occ. eigenvalues --  -11.21641 -11.21626 -11.21621 -11.21618 -11.21438
 Alpha  occ. eigenvalues --  -11.21437 -11.21379 -11.21377 -11.21097 -11.21088
 Alpha  occ. eigenvalues --  -11.21083 -11.21080  -1.08509  -1.08422  -1.03631
 Alpha  occ. eigenvalues --   -1.03494  -0.96051  -0.95972  -0.87083  -0.86976
 Alpha  occ. eigenvalues --   -0.79712  -0.79550  -0.78322  -0.78230  -0.65450
 Alpha  occ. eigenvalues --   -0.64827  -0.61384  -0.60522  -0.59392  -0.59361
 Alpha  occ. eigenvalues --   -0.57658  -0.57596  -0.55539  -0.55056  -0.52710
 Alpha  occ. eigenvalues --   -0.52701  -0.52503  -0.52357  -0.50270  -0.49680
 Alpha  occ. eigenvalues --   -0.48047  -0.47835  -0.46968  -0.46402  -0.46001
 Alpha  occ. eigenvalues --   -0.45805  -0.45733  -0.45409  -0.43816  -0.43814
 Alpha virt. eigenvalues --    0.19241   0.22981   0.23423   0.24942   0.25585
 Alpha virt. eigenvalues --    0.26256   0.26412   0.28260   0.29185   0.29235
 Alpha virt. eigenvalues --    0.30491   0.31441   0.31717   0.31987   0.32324

 Mulliken charges:
               1
     1  C   -0.299828
     2  C   -0.299595
     3  C   -0.475800
     4  H    0.149784
     5  H    0.149824
     6  H    0.152059
     7  H    0.152141
     8  H    0.155373
     9  H    0.155151
    10  H    0.160356
    11  C   -0.298953
    12  C   -0.305679
    13  C   -0.479888
    14  H    0.149916
    15  H    0.150967
    16  H    0.152123
    17  H    0.157509
    18  H    0.159480
    19  H    0.155800
    20  H    0.159417
    21  C   -0.298673
    22  C   -0.299654
    23  C   -0.475781
    24  H    0.149788
    25  H    0.149353
    26  H    0.151988
    27  H    0.152145
    28  H    0.155380
    29  H    0.155157
    30  H    0.160332
    31  C   -0.299929
    32  C   -0.304271
    33  C   -0.481675
    34  H    0.150076
    35  H    0.150971
    36  H    0.152581
    37  H    0.155105
    38  H    0.161990
    39  H    0.155644
    40  H    0.159313
 Sum of Mulliken charges =  -0.00000

 Dipole moment (field-independent basis, Debye):
    X=              0.0006    Y=              0.0121    Z=             -0.0008  Tot=              0.0121
 Quadrupole moment (field-independent basis, Debye-Ang):
   XX=            -84.2069   YY=            -86.8168   ZZ=            -83.6516
   XY=              0.1463   XZ=              1.1882   YZ=             -0.0063

 Normal termination of Gaussian 16 at Thu May  6 00:32:01 2021.
