 Gaussian 16, Revision A.03,
 Gaussian 16:  EM64L-G16RevA.03 25-Dec-2016

 -------------
 #p 6-31g* mp2
 -------------

 ------------------------------------------------------
 Input file generated by CHIRIPA (05-May-2021 14:51:10)
 ------------------------------------------------------
 Symbolic Z-matrix:
 Charge =  0 Multiplicity = 1

                         Standard orientation:
 ---------------------------------------------------------------------
 Center     Atomic      Atomic             Coordinates (Angstroms)
 Number     Number       Type             X           Y           Z
 ---------------------------------------------------------------------
      1          6           0        4.439274   -0.324234    0.065439
      2          6           0        5.760670   -0.599074   -0.653145
      3          6           0        6.425312   -1.896713   -0.192518
      4          1           0        4.620131   -0.280965    1.148196
      5          1           0        3.755571   -1.167622   -0.103801
      6          1           0        6.441184    0.245213   -0.483745
      7          1           0        5.576679   -0.641504   -1.734330
      8          1           0        5.768050   -2.752672   -0.376752
      9          1           0        6.637468   -1.860917    0.880938
     10          1           0        7.368376   -2.073612   -0.719012
     11          6           0        3.762801    0.969547   -0.384273
     12          6           0        2.441405    1.244387    0.334310
     13          6           0        1.776763    2.542026   -0.126316
     14          1           0        4.446504    1.812935   -0.215034
     15          1           0        3.581944    0.926278   -1.467031
     16          1           0        2.625396    1.286817    1.415496
     17          1           0        1.760891    0.400100    0.164911
     18          1           0        1.564607    2.506230   -1.199773
     19          1           0        2.434025    3.397985    0.057918
     20          1           0        0.833699    2.718925    0.400178
     21          6           0       -4.608006   -0.420704   -0.403434
     22          6           0       -6.040485   -0.073725    0.003500
     23          6           0       -7.043134   -0.274975   -1.133155
     24          1           0       -4.318014    0.197753   -1.263876
     25          1           0       -4.573566   -1.465044   -0.743376
     26          1           0       -6.071941    0.969235    0.343882
     27          1           0       -6.327033   -0.692944    0.863195
     28          1           0       -7.041199   -1.317141   -1.468547
     29          1           0       -6.784657    0.354484   -1.990810
     30          1           0       -8.060792   -0.021101   -0.820459
     31          6           0       -3.594068   -0.224609    0.722269
     32          6           0       -2.161590   -0.571588    0.315334
     33          6           0       -1.158941   -0.370338    1.451989
     34          1           0       -3.628509    0.819731    1.062211
     35          1           0       -3.884060   -0.843066    1.582711
     36          1           0       -1.875042    0.047631   -0.544360
     37          1           0       -2.130134   -1.614549   -0.025047
     38          1           0       -1.417418   -0.999796    2.309646
     39          1           0       -1.160876    0.671828    1.787381
     40          1           0       -0.141282   -0.624212    1.139293
 ---------------------------------------------------------------------

 SCF Done:  E(RHF) =  -470.733151119     A.U. after   11 cycles
 E2 =    -0.1582613980D+01 EUMP2 =    -0.47231576509821D+03

 The electronic state is 1-A.
 Alpha  occ. eigenvalues --  -11.21601 -11.21600 -11.21596 -11.21560 -11.21404
 Alpha  occ. eigenvalues --  -11.21394 -11.21344 -11.21333 -11.21071 -11.21066
 Alpha  occ. eigenvalues --  -11.21061 -11.21034  -1.08435  -1.08412  -1.03553
 Alpha  occ. eigenvalues --   -1.03491  -0.96004  -0.95939  -0.87002  -0.86975
 Alpha  occ. eigenvalues --   -0.79645  -0.79529  -0.78249  -0.78225  -0.65078
 Alpha  occ. eigenvalues --   -0.65037  -0.60989  -0.60883  -0.59484  -0.59208
 Alpha  occ. eigenvalues --   -0.57663  -0.57499  -0.55289  -0.55218  -0.52724
 Alpha  occ. eigenvalues --   -0.52626  -0.52441  -0.52355  -0.49923  -0.49894
 Alpha  occ. eigenvalues --   -0.48021  -0.47791  -0.46633  -0.46587  -0.45791
 Alpha  occ. eigenvalues --   -0.45766  -0.45708  -0.45691  -0.43808  -0.43697
 Alpha virt. eigenvalues --    0.21292   0.23086   0.23479   0.25121   0.26098
 Alpha virt. eigenvalues --    0.26553   0.26972   0.27297   0.27719   0.29082
 Alpha virt. eigenvalues --    0.30033   0.31087   0.31612   0.31871   0.32643

 Mulliken charges:
               1
     1  C   -0.298252
     2  C   -0.299608
     3  C   -0.475712
     4  H    0.149783
     5  H    0.148980
     6  H    0.151973
     7  H    0.151915
     8  H    0.155152
     9  H    0.155209
    10  H    0.160235
    11  C   -0.297830
    12  C   -0.304046
    13  C   -0.476404
    14  H    0.149409
    15  H    0.149394
    16  H    0.152131
    17  H    0.156980
    18  H    0.154695
    19  H    0.155125
    20  H    0.160948
    21  C   -0.298284
    22  C   -0.299658
    23  C   -0.475706
    24  H    0.149674
    25  H    0.149448
    26  H    0.151962
    27  H    0.151935
    28  H    0.155150
    29  H    0.155189
    30  H    0.160260
    31  C   -0.298264
    32  C   -0.300253
    33  C   -0.480303
    34  H    0.149501
    35  H    0.149710
    36  H    0.152214
    37  H    0.151597
    38  H    0.154932
    39  H    0.155272
    40  H    0.165547
 Sum of Mulliken charges =  -0.00000

 Dipole moment (field-independent basis, Debye):
    X=              0.0026    Y=             -0.0014    Z=              0.0080  Tot=              0.0085
 Quadrupole moment (field-independent basis, Debye-Ang):
   XX=            -85.6686   YY=            -84.4275   ZZ=            -84.7434
   XY=              0.8675   XZ=             -0.3889   YZ=              0.2304

 Normal termination of Gaussian 16 at Wed May  5 21:24:45 2021.
