 Gaussian 16, Revision A.03,
 Gaussian 16:  EM64L-G16RevA.03 25-Dec-2016

 -------------
 #p 6-31g* mp2
 -------------

 ------------------------------------------------------
 Input file generated by CHIRIPA (05-May-2021 14:55:23)
 ------------------------------------------------------
 Symbolic Z-matrix:
 Charge =  0 Multiplicity = 1

                         Standard orientation:
 ---------------------------------------------------------------------
 Center     Atomic      Atomic             Coordinates (Angstroms)
 Number     Number       Type             X           Y           Z
 ---------------------------------------------------------------------
      1          6           0        4.118722    2.028765   -0.886891
      2          6           0        4.182053    0.744566   -1.437657
      3          6           0        3.534592   -0.327314   -0.816033
      4          6           0        2.829592   -0.078026    0.360454
      5          6           0        2.747959    1.190014    0.933779
      6          6           0        3.403138    2.247005    0.294985
      7          1           0        4.624683    2.855643   -1.376453
      8          1           0        4.737048    0.572131   -2.355422
      9          1           0        3.567266   -1.331592   -1.220726
     10          1           0        2.186961    1.330866    1.849672
     11          1           0        3.352240    3.243273    0.724991
     12          7           0        2.140069   -1.204896    1.027628
     13          8           0        1.525508   -0.959067    2.063254
     14          8           0        2.227238   -2.312627    0.502301
     15          6           0       -4.524776   -0.039256   -0.319391
     16          6           0       -4.966741    1.254370    0.365580
     17          6           0       -6.484718    1.437429    0.360028
     18          1           0       -4.892131   -0.042443   -1.354757
     19          1           0       -4.999827   -0.892995    0.183451
     20          1           0       -4.489909    2.105325   -0.137532
     21          1           0       -4.598127    1.254564    1.399379
     22          1           0       -6.974709    0.607690    0.879682
     23          1           0       -6.865876    1.463285   -0.665960
     24          1           0       -6.778629    2.368438    0.854695
     25          6           0       -3.009904   -0.236446   -0.321878
     26          6           0       -2.567939   -1.530072   -1.006849
     27          6           0       -1.049962   -1.713131   -1.001296
     28          1           0       -2.534852    0.617294   -0.824720
     29          1           0       -2.642548   -0.233259    0.713488
     30          1           0       -2.936552   -1.530266   -2.040648
     31          1           0       -3.044771   -2.381028   -0.503737
     32          1           0       -0.668804   -1.738988    0.024691
     33          1           0       -0.559970   -0.883392   -1.520952
     34          1           0       -0.756050   -2.644141   -1.495964
 ---------------------------------------------------------------------

 SCF Done:  E(RHF) =  -669.536206287     A.U. after   15 cycles
 E2 =    -0.2091535663D+01 EUMP2 =    -0.67162774194998D+03

 The electronic state is 1-A.
 Alpha  occ. eigenvalues --  -20.60859 -20.60841 -15.85867 -11.31216 -11.27782
 Alpha  occ. eigenvalues --  -11.27778 -11.27528 -11.26795 -11.26785 -11.21275
 Alpha  occ. eigenvalues --  -11.20956 -11.20920 -11.20806 -11.20805 -11.20151
 Alpha  occ. eigenvalues --   -1.59907  -1.39461  -1.19386  -1.08787  -1.07929
 Alpha  occ. eigenvalues --   -1.04786  -1.02996  -0.95628  -0.95434  -0.86453
 Alpha  occ. eigenvalues --   -0.86185  -0.82463  -0.79083  -0.77740  -0.77512
 Alpha  occ. eigenvalues --   -0.72097  -0.71224  -0.70497  -0.65042  -0.64791
 Alpha  occ. eigenvalues --   -0.64558  -0.62133  -0.60388  -0.58822  -0.57048
 Alpha  occ. eigenvalues --   -0.55295  -0.54718  -0.53113  -0.52879  -0.52114
 Alpha  occ. eigenvalues --   -0.51868  -0.49405  -0.48861  -0.48830  -0.47383
 Alpha  occ. eigenvalues --   -0.46108  -0.45283  -0.45186  -0.44865  -0.43236
 Alpha  occ. eigenvalues --   -0.37362  -0.36387
 Alpha virt. eigenvalues --    0.04994   0.11263   0.16479   0.21394   0.23358
 Alpha virt. eigenvalues --    0.24873   0.27141   0.27309   0.27925   0.28191
 Alpha virt. eigenvalues --    0.28576   0.30946   0.31924   0.32245   0.32462

 Mulliken charges:
               1
     1  C   -0.170675
     2  C   -0.218792
     3  C   -0.170602
     4  C    0.159727
     5  C   -0.170797
     6  C   -0.218715
     7  H    0.225674
     8  H    0.223550
     9  H    0.276038
    10  H    0.275654
    11  H    0.223542
    12  N    0.488508
    13  O   -0.461523
    14  O   -0.458060
    15  C   -0.297799
    16  C   -0.299284
    17  C   -0.475386
    18  H    0.147829
    19  H    0.150250
    20  H    0.149570
    21  H    0.152717
    22  H    0.155610
    23  H    0.154241
    24  H    0.158751
    25  C   -0.299123
    26  C   -0.299393
    27  C   -0.482032
    28  H    0.145125
    29  H    0.154706
    30  H    0.147554
    31  H    0.153325
    32  H    0.172599
    33  H    0.144526
    34  H    0.162686
 Sum of Mulliken charges =  -0.00000

 Dipole moment (field-independent basis, Debye):
    X=              2.5902    Y=              3.8784    Z=             -2.2552  Tot=              5.1805
 Quadrupole moment (field-independent basis, Debye-Ang):
   XX=            -82.7890   YY=            -93.5133   ZZ=            -93.6671
   XY=             10.5935   XZ=             -7.5058   YZ=              3.6253

 Normal termination of Gaussian 16 at Thu May  6 15:58:03 2021.
