 Gaussian 16, Revision A.03,
 Gaussian 16:  EM64L-G16RevA.03 25-Dec-2016

 -------------
 #p 6-31g* mp2
 -------------

 ------------------------------------------------------
 Input file generated by CHIRIPA (05-May-2021 14:55:21)
 ------------------------------------------------------
 Symbolic Z-matrix:
 Charge =  0 Multiplicity = 1

                         Standard orientation:
 ---------------------------------------------------------------------
 Center     Atomic      Atomic             Coordinates (Angstroms)
 Number     Number       Type             X           Y           Z
 ---------------------------------------------------------------------
      1          6           0        1.566804    2.111583    1.246453
      2          6           0        1.228536    0.760648    1.377107
      3          6           0        1.956035   -0.222203    0.699392
      4          6           0        3.020557    0.183197   -0.104183
      5          6           0        3.382108    1.521080   -0.254650
      6          6           0        2.640617    2.486826    0.432426
      7          1           0        0.996231    2.868442    1.776554
      8          1           0        0.395093    0.466313    2.008601
      9          1           0        1.715801   -1.275187    0.782635
     10          1           0        4.218134    1.783754   -0.891424
     11          1           0        2.905588    3.535232    0.329081
     12          7           0        3.798134   -0.848249   -0.826605
     13          8           0        4.731582   -0.465143   -1.528418
     14          8           0        3.459427   -2.020271   -0.677346
     15          6           0       -3.422293   -0.959909    0.478100
     16          6           0       -1.939655   -1.265443    0.262645
     17          6           0       -1.394054   -2.283064    1.264924
     18          1           0       -3.567983   -0.584383    1.500206
     19          1           0       -3.996572   -1.893726    0.403368
     20          1           0       -1.368501   -0.331119    0.336390
     21          1           0       -1.797449   -1.640104   -0.759128
     22          1           0       -1.938238   -3.229887    1.187522
     23          1           0       -1.506853   -1.913464    2.289265
     24          1           0       -0.332590   -2.486774    1.092714
     25          6           0       -3.982259    0.055738   -0.516196
     26          6           0       -5.464898    0.361271   -0.300740
     27          6           0       -6.010498    1.378892   -1.303019
     28          1           0       -3.407981    0.989555   -0.441462
     29          1           0       -3.836570   -0.319788   -1.538301
     30          1           0       -5.607103    0.735933    0.721034
     31          1           0       -6.036051   -0.573052   -0.374485
     32          1           0       -5.897700    1.009292   -2.327359
     33          1           0       -5.466314    2.325714   -1.225616
     34          1           0       -7.071962    1.582602   -1.130810
 ---------------------------------------------------------------------

 SCF Done:  E(RHF) =  -669.534840650     A.U. after   15 cycles
 E2 =    -0.2092728673D+01 EUMP2 =    -0.67162756932318D+03

 The electronic state is 1-A.
 Alpha  occ. eigenvalues --  -20.60767 -20.60762 -15.85819 -11.31181 -11.27760
 Alpha  occ. eigenvalues --  -11.27739 -11.27507 -11.26777 -11.26746 -11.22160
 Alpha  occ. eigenvalues --  -11.21981 -11.21909 -11.21851 -11.21803 -11.21398
 Alpha  occ. eigenvalues --   -1.59841  -1.39395  -1.19364  -1.08932  -1.08757
 Alpha  occ. eigenvalues --   -1.04780  -1.04043  -0.96515  -0.95591  -0.87525
 Alpha  occ. eigenvalues --   -0.86166  -0.82427  -0.80101  -0.78721  -0.77473
 Alpha  occ. eigenvalues --   -0.72039  -0.71163  -0.70485  -0.65616  -0.65015
 Alpha  occ. eigenvalues --   -0.64762  -0.62279  -0.61366  -0.59836  -0.58095
 Alpha  occ. eigenvalues --   -0.55806  -0.55260  -0.53270  -0.53095  -0.53010
 Alpha  occ. eigenvalues --   -0.52697  -0.50445  -0.48798  -0.48793  -0.48406
 Alpha  occ. eigenvalues --   -0.47133  -0.46260  -0.46185  -0.44800  -0.44294
 Alpha  occ. eigenvalues --   -0.37344  -0.36325
 Alpha virt. eigenvalues --    0.05047   0.11214   0.16429   0.19643   0.22715
 Alpha virt. eigenvalues --    0.23800   0.25619   0.26190   0.27080   0.27480
 Alpha virt. eigenvalues --    0.28821   0.30420   0.31322   0.31581   0.32026

 Mulliken charges:
               1
     1  C   -0.172397
     2  C   -0.221029
     3  C   -0.175663
     4  C    0.159553
     5  C   -0.170314
     6  C   -0.218666
     7  H    0.225514
     8  H    0.227160
     9  H    0.282229
    10  H    0.275664
    11  H    0.223448
    12  N    0.487734
    13  O   -0.460383
    14  O   -0.460425
    15  C   -0.298158
    16  C   -0.306511
    17  C   -0.482873
    18  H    0.146572
    19  H    0.152353
    20  H    0.150689
    21  H    0.158903
    22  H    0.163469
    23  H    0.150552
    24  H    0.159969
    25  C   -0.298181
    26  C   -0.299939
    27  C   -0.475831
    28  H    0.147454
    29  H    0.152535
    30  H    0.150909
    31  H    0.153458
    32  H    0.156692
    33  H    0.154262
    34  H    0.161254
 Sum of Mulliken charges =  -0.00000

 Dipole moment (field-independent basis, Debye):
    X=             -2.8357    Y=              3.5874    Z=              2.4666  Tot=              5.1956
 Quadrupole moment (field-independent basis, Debye-Ang):
   XX=           -110.0077   YY=            -90.8782   ZZ=            -95.3059
   XY=             13.7688   XZ=              6.6978   YZ=             -0.4380

 Normal termination of Gaussian 16 at Thu May  6 01:24:52 2021.
