 Gaussian 16, Revision A.03,
 Gaussian 16:  EM64L-G16RevA.03 25-Dec-2016

 -------------
 #p 6-31g* mp2
 -------------

 ------------------------------------------------------
 Input file generated by CHIRIPA (05-May-2021 14:57:27)
 ------------------------------------------------------
 Symbolic Z-matrix:
 Charge =  0 Multiplicity = 1

                         Standard orientation:
 ---------------------------------------------------------------------
 Center     Atomic      Atomic             Coordinates (Angstroms)
 Number     Number       Type             X           Y           Z
 ---------------------------------------------------------------------
      1          6           0       -1.937699    1.742621   -0.395740
      2          6           0       -2.463560    1.495371    0.876603
      3          6           0       -3.461450    0.533105    1.057733
      4          6           0       -3.912261   -0.166574   -0.060528
      5          6           0       -3.408261    0.056951   -1.340884
      6          6           0       -2.410893    1.023889   -1.498479
      7          1           0       -1.162717    2.491948   -0.527305
      8          1           0       -2.097981    2.052030    1.734815
      9          1           0       -3.886138    0.321559    2.031543
     10          1           0       -3.792807   -0.513949   -2.177314
     11          1           0       -2.004345    1.213797   -2.487771
     12          7           0       -4.968406   -1.187755    0.118768
     13          8           0       -5.348586   -1.790669   -0.882529
     14          8           0       -5.396034   -1.365907    1.257203
     15          6           0        1.934961    1.726894    0.445225
     16          6           0        2.395223    0.963807    1.523361
     17          6           0        3.393972    0.003194    1.338239
     18          6           0        3.912526   -0.168846    0.055745
     19          6           0        3.474816    0.575811   -1.038416
     20          6           0        2.475274    1.530806   -0.829974
     21          1           0        1.158801    2.470940    0.598089
     22          1           0        1.977439    1.113934    2.514806
     23          1           0        3.768699   -0.601350    2.155262
     24          1           0        3.910556    0.403423   -2.015058
     25          1           0        2.119758    2.121985   -1.669117
     26          7           0        4.970277   -1.182831   -0.152579
     27          8           0        5.410854   -1.315204   -1.292318
     28          8           0        5.338735   -1.826019    0.827821
 ---------------------------------------------------------------------

 SCF Done:  E(RHF) =  -868.335885486     A.U. after   16 cycles
 E2 =    -0.2600377812D+01 EUMP2 =    -0.87093626329845D+03

 The electronic state is 1-A.
 Alpha  occ. eigenvalues --  -20.61238 -20.61237 -20.61231 -20.61230 -15.86297
 Alpha  occ. eigenvalues --  -15.86296 -11.31820 -11.31819 -11.28423 -11.28421
 Alpha  occ. eigenvalues --  -11.28387 -11.28386 -11.28323 -11.28321 -11.27551
 Alpha  occ. eigenvalues --  -11.27548 -11.27481 -11.27481  -1.60309  -1.60307
 Alpha  occ. eigenvalues --   -1.39858  -1.39857  -1.20033  -1.20017  -1.09452
 Alpha  occ. eigenvalues --   -1.09389  -1.05452  -1.05446  -0.96276  -0.96172
 Alpha  occ. eigenvalues --   -0.86872  -0.86850  -0.83093  -0.83001  -0.78044
 Alpha  occ. eigenvalues --   -0.78031  -0.72516  -0.72513  -0.71632  -0.71631
 Alpha  occ. eigenvalues --   -0.71522  -0.70935  -0.65702  -0.65688  -0.65530
 Alpha  occ. eigenvalues --   -0.65432  -0.62803  -0.62780  -0.56375  -0.55749
 Alpha  occ. eigenvalues --   -0.53850  -0.53671  -0.53569  -0.53557  -0.49290
 Alpha  occ. eigenvalues --   -0.49283  -0.49257  -0.49255  -0.45228  -0.45226
 Alpha  occ. eigenvalues --   -0.38287  -0.37795  -0.37068  -0.37003
 Alpha virt. eigenvalues --    0.04304   0.04670   0.10456   0.10716   0.15624
 Alpha virt. eigenvalues --    0.16181   0.17979   0.22122   0.25187   0.25549
 Alpha virt. eigenvalues --    0.27349   0.29626   0.29701   0.30852   0.32568

 Mulliken charges:
               1
     1  C   -0.168671
     2  C   -0.218406
     3  C   -0.169723
     4  C    0.159546
     5  C   -0.169465
     6  C   -0.217152
     7  H    0.215152
     8  H    0.218797
     9  H    0.277255
    10  H    0.278251
    11  H    0.223572
    12  N    0.487979
    13  O   -0.458125
    14  O   -0.459007
    15  C   -0.168688
    16  C   -0.217116
    17  C   -0.169471
    18  C    0.159548
    19  C   -0.169728
    20  C   -0.218426
    21  H    0.215096
    22  H    0.223473
    23  H    0.278249
    24  H    0.277267
    25  H    0.218948
    26  N    0.487978
    27  O   -0.459005
    28  O   -0.458129
 Sum of Mulliken charges =  -0.00000

 Dipole moment (field-independent basis, Debye):
    X=             -0.0061    Y=              6.9067    Z=              0.0962  Tot=              6.9074
 Quadrupole moment (field-independent basis, Debye-Ang):
   XX=           -163.2386   YY=           -108.6862   ZZ=            -94.9360
   XY=             -0.0717   XZ=              4.7907   YZ=             -0.2652

 Normal termination of Gaussian 16 at Thu May  6 02:03:42 2021.
