 Gaussian 16, Revision A.03,
 Gaussian 16:  EM64L-G16RevA.03 25-Dec-2016

 -------------
 #p 6-31g* mp2
 -------------

 ------------------------------------------------------
 Input file generated by CHIRIPA (05-May-2021 14:53:13)
 ------------------------------------------------------
 Symbolic Z-matrix:
 Charge =  0 Multiplicity = 1

                         Standard orientation:
 ---------------------------------------------------------------------
 Center     Atomic      Atomic             Coordinates (Angstroms)
 Number     Number       Type             X           Y           Z
 ---------------------------------------------------------------------
      1          6           0        3.310880   -0.222150    0.247973
      2          6           0        2.922741   -1.070374    1.459521
      3          6           0        1.447382   -1.471687    1.451970
      4          1           0        2.684179    0.679856    0.223951
      5          1           0        3.087121   -0.782764   -0.670199
      6          1           0        3.148450   -0.508877    2.375159
      7          1           0        3.550569   -1.970372    1.480769
      8          1           0        1.211061   -2.053755    0.555337
      9          1           0        0.806657   -0.583957    1.454809
     10          1           0        1.191627   -2.077475    2.326881
     11          6           0        4.782738    0.186896    0.241314
     12          6           0        5.170877    1.035120   -0.970235
     13          6           0        6.646236    1.436433   -0.962683
     14          1           0        5.006497    0.747510    1.159485
     15          1           0        5.409438   -0.715110    0.265335
     16          1           0        4.543048    1.935118   -0.991483
     17          1           0        4.945168    0.473623   -1.885873
     18          1           0        7.286960    0.548703   -0.965523
     19          1           0        6.882556    2.018501   -0.066051
     20          1           0        6.901991    2.042221   -1.837595
     21          6           0       -4.371993    2.006603    0.772936
     22          6           0       -4.583874    1.636049   -0.559099
     23          6           0       -3.918623    0.533657   -1.103822
     24          6           0       -3.044550   -0.178889   -0.284330
     25          6           0       -2.812370    0.165374    1.046409
     26          6           0       -3.488476    1.271379    1.570034
     27          1           0       -4.892992    2.864370    1.187895
     28          1           0       -5.269451    2.205185   -1.180477
     29          1           0       -4.064055    0.224788   -2.131861
     30          1           0       -2.122913   -0.421438    1.641151
     31          1           0       -3.321978    1.556851    2.604843
     32          7           0       -2.334533   -1.347854   -0.849835
     33          8           0       -1.569573   -1.959171   -0.107026
     34          8           0       -2.556427   -1.630638   -2.025180
 ---------------------------------------------------------------------

 SCF Done:  E(RHF) =  -669.535608249     A.U. after   15 cycles
 E2 =    -0.2091398405D+01 EUMP2 =    -0.67162700665429D+03

 The electronic state is 1-A.
 Alpha  occ. eigenvalues --  -20.60831 -20.60810 -15.85855 -11.31216 -11.27785
 Alpha  occ. eigenvalues --  -11.27770 -11.27530 -11.26803 -11.26792 -11.21263
 Alpha  occ. eigenvalues --  -11.20975 -11.20942 -11.20824 -11.20802 -11.20092
 Alpha  occ. eigenvalues --   -1.59890  -1.39443  -1.19389  -1.08788  -1.07939
 Alpha  occ. eigenvalues --   -1.04790  -1.02994  -0.95640  -0.95408  -0.86434
 Alpha  occ. eigenvalues --   -0.86188  -0.82456  -0.79071  -0.77762  -0.77471
 Alpha  occ. eigenvalues --   -0.72083  -0.71206  -0.70497  -0.65044  -0.64797
 Alpha  occ. eigenvalues --   -0.64575  -0.62138  -0.60394  -0.58829  -0.57035
 Alpha  occ. eigenvalues --   -0.55296  -0.54709  -0.53121  -0.52883  -0.52120
 Alpha  occ. eigenvalues --   -0.51831  -0.49385  -0.48839  -0.48818  -0.47375
 Alpha  occ. eigenvalues --   -0.46107  -0.45335  -0.45211  -0.44720  -0.43262
 Alpha  occ. eigenvalues --   -0.37371  -0.36393
 Alpha virt. eigenvalues --    0.05004   0.11225   0.16490   0.21198   0.23320
 Alpha virt. eigenvalues --    0.24679   0.26352   0.27285   0.27691   0.28017
 Alpha virt. eigenvalues --    0.29160   0.30647   0.31557   0.32186   0.32614

 Mulliken charges:
               1
     1  C   -0.297671
     2  C   -0.301431
     3  C   -0.472725
     4  H    0.146222
     5  H    0.153501
     6  H    0.145895
     7  H    0.151128
     8  H    0.177008
     9  H    0.143821
    10  H    0.154796
    11  C   -0.297705
    12  C   -0.299295
    13  C   -0.475398
    14  H    0.147262
    15  H    0.149634
    16  H    0.150311
    17  H    0.153133
    18  H    0.155240
    19  H    0.153926
    20  H    0.159222
    21  C   -0.170664
    22  C   -0.218586
    23  C   -0.170790
    24  C    0.157774
    25  C   -0.173016
    26  C   -0.218998
    27  H    0.225666
    28  H    0.223523
    29  H    0.275625
    30  H    0.279479
    31  H    0.223692
    32  N    0.490041
    33  O   -0.460161
    34  O   -0.460461
 Sum of Mulliken charges =  -0.00000

 Dipole moment (field-independent basis, Debye):
    X=             -2.6657    Y=              3.9921    Z=              1.8904  Tot=              5.1591
 Quadrupole moment (field-independent basis, Debye-Ang):
   XX=            -80.7832   YY=            -96.0481   ZZ=            -92.2431
   XY=            -13.6064   XZ=             -3.3786   YZ=             -1.6649

 Normal termination of Gaussian 16 at Thu May  6 10:27:59 2021.
