 Gaussian 16, Revision A.03,
 Gaussian 16:  EM64L-G16RevA.03 25-Dec-2016

 -------------
 #p 6-31g* mp2
 -------------

 ------------------------------------------------------
 Input file generated by CHIRIPA (05-May-2021 14:53:12)
 ------------------------------------------------------
 Symbolic Z-matrix:
 Charge =  0 Multiplicity = 1

                         Standard orientation:
 ---------------------------------------------------------------------
 Center     Atomic      Atomic             Coordinates (Angstroms)
 Number     Number       Type             X           Y           Z
 ---------------------------------------------------------------------
      1          6           0        3.402335    0.609693    0.348621
      2          6           0        3.731221    2.058928   -0.011294
      3          6           0        2.614854    3.031042    0.371476
      4          1           0        2.470421    0.316245   -0.153742
      5          1           0        3.210095    0.541939    1.428366
      6          1           0        3.924139    2.123675   -1.089815
      7          1           0        4.662562    2.348898    0.491832
      8          1           0        2.426224    2.995929    1.449338
      9          1           0        1.683606    2.769425   -0.141295
     10          1           0        2.870859    4.061306    0.105247
     11          6           0        4.508771   -0.374072   -0.027854
     12          6           0        4.179885   -1.823306    0.332061
     13          6           0        5.296251   -2.795421   -0.050709
     14          1           0        4.701010   -0.306318   -1.107599
     15          1           0        5.440685   -0.080624    0.474510
     16          1           0        3.248543   -2.113277   -0.171065
     17          1           0        3.986966   -1.888053    1.410582
     18          1           0        6.227500   -2.533804    0.462062
     19          1           0        5.484881   -2.760307   -1.128571
     20          1           0        5.040246   -3.825684    0.215520
     21          6           0       -0.788912    0.736759   -0.743963
     22          6           0       -1.801829    1.650090   -0.433561
     23          6           0       -3.080690    1.202194   -0.089393
     24          6           0       -3.312763   -0.172165   -0.065490
     25          6           0       -2.324412   -1.107007   -0.369665
     26          6           0       -1.052972   -0.636454   -0.711082
     27          1           0        0.201655    1.093497   -1.010251
     28          1           0       -1.599626    2.717118   -0.458277
     29          1           0       -3.883246    1.887320    0.155396
     30          1           0       -2.556205   -2.164639   -0.336396
     31          1           0       -0.268256   -1.348057   -0.951674
     32          7           0       -4.662708   -0.658325    0.297409
     33          8           0       -4.841645   -1.874232    0.311183
     34          8           0       -5.516297    0.185733    0.561203
 ---------------------------------------------------------------------

 SCF Done:  E(RHF) =  -669.535038067     A.U. after   15 cycles
 E2 =    -0.2091982773D+01 EUMP2 =    -0.67162702084008D+03

 The electronic state is 1-A.
 Alpha  occ. eigenvalues --  -20.60731 -20.60726 -15.85785 -11.31147 -11.27717
 Alpha  occ. eigenvalues --  -11.27712 -11.27429 -11.26732 -11.26717 -11.22642
 Alpha  occ. eigenvalues --  -11.22473 -11.22419 -11.22249 -11.22248 -11.21719
 Alpha  occ. eigenvalues --   -1.59807  -1.39360  -1.19318  -1.09400  -1.08713
 Alpha  occ. eigenvalues --   -1.04721  -1.04464  -0.96916  -0.95553  -0.87930
 Alpha  occ. eigenvalues --   -0.86119  -0.82390  -0.80528  -0.79204  -0.77429
 Alpha  occ. eigenvalues --   -0.72003  -0.71130  -0.70475  -0.66040  -0.64972
 Alpha  occ. eigenvalues --   -0.64721  -0.62074  -0.61867  -0.60286  -0.58517
 Alpha  occ. eigenvalues --   -0.56243  -0.55237  -0.53583  -0.53335  -0.53048
 Alpha  occ. eigenvalues --   -0.52812  -0.50872  -0.48835  -0.48758  -0.48753
 Alpha  occ. eigenvalues --   -0.47555  -0.46738  -0.46641  -0.44767  -0.44717
 Alpha  occ. eigenvalues --   -0.37282  -0.36325
 Alpha virt. eigenvalues --    0.05088   0.11294   0.16508   0.18689   0.22369
 Alpha virt. eigenvalues --    0.23097   0.24833   0.25859   0.26429   0.27985
 Alpha virt. eigenvalues --    0.29401   0.30220   0.30870   0.31163   0.31422

 Mulliken charges:
               1
     1  C   -0.299738
     2  C   -0.301502
     3  C   -0.476913
     4  H    0.139222
     5  H    0.154680
     6  H    0.152507
     7  H    0.157329
     8  H    0.160861
     9  H    0.143007
    10  H    0.164966
    11  C   -0.299003
    12  C   -0.298938
    13  C   -0.476325
    14  H    0.150082
    15  H    0.153425
    16  H    0.146011
    17  H    0.154822
    18  H    0.157406
    19  H    0.155817
    20  H    0.162515
    21  C   -0.173923
    22  C   -0.220202
    23  C   -0.170898
    24  C    0.158284
    25  C   -0.170862
    26  C   -0.220001
    27  H    0.232421
    28  H    0.223727
    29  H    0.275528
    30  H    0.275465
    31  H    0.223244
    32  N    0.488043
    33  O   -0.460543
    34  O   -0.460512
 Sum of Mulliken charges =  -0.00000

 Dipole moment (field-independent basis, Debye):
    X=              5.0152    Y=              1.7296    Z=             -1.1751  Tot=              5.4336
 Quadrupole moment (field-independent basis, Debye-Ang):
   XX=           -125.5907   YY=            -91.2933   ZZ=            -94.5287
   XY=             -7.5080   XZ=              4.5994   YZ=              0.7835

 Normal termination of Gaussian 16 at Wed May  5 16:58:40 2021.
