 Gaussian 16, Revision A.03,
 Gaussian 16:  EM64L-G16RevA.03 25-Dec-2016

 -------------
 #p 6-31g* mp2
 -------------

 ------------------------------------------------------
 Input file generated by CHIRIPA (05-May-2021 14:51:08)
 ------------------------------------------------------
 Symbolic Z-matrix:
 Charge =  0 Multiplicity = 1

                         Standard orientation:
 ---------------------------------------------------------------------
 Center     Atomic      Atomic             Coordinates (Angstroms)
 Number     Number       Type             X           Y           Z
 ---------------------------------------------------------------------
      1          6           0        3.861241   -0.652509    0.532427
      2          6           0        2.431990   -0.442902    0.031136
      3          6           0        1.383774   -1.055776    0.960342
      4          1           0        4.050560   -1.729169    0.641545
      5          1           0        3.958420   -0.214808    1.535606
      6          1           0        2.337915   -0.879649   -0.971369
      7          1           0        2.246114    0.633377   -0.076984
      8          1           0        1.448700   -0.613011    1.959514
      9          1           0        1.541022   -2.134634    1.060047
     10          1           0        0.369203   -0.894256    0.582962
     11          6           0        4.920459   -0.045426   -0.385852
     12          6           0        6.349710   -0.255033    0.115438
     13          6           0        7.397925    0.357841   -0.813767
     14          1           0        4.823279   -0.483127   -1.389032
     15          1           0        4.731139    1.031234   -0.494970
     16          1           0        6.535585   -1.331312    0.223559
     17          1           0        6.443785    0.181715    1.117944
     18          1           0        7.240677    1.436699   -0.913472
     19          1           0        7.332999   -0.084924   -1.812939
     20          1           0        8.412497    0.196321   -0.436387
     21          6           0       -3.643656    0.438193   -0.204334
     22          6           0       -3.067809    1.713164    0.412782
     23          6           0       -1.572006    1.877600    0.141995
     24          1           0       -3.100261   -0.430830    0.191223
     25          1           0       -3.465615    0.451159   -1.288552
     26          1           0       -3.248109    1.698442    1.495321
     27          1           0       -3.612766    2.579239    0.015855
     28          1           0       -1.377578    1.918064   -0.934649
     29          1           0       -1.010849    1.032263    0.553224
     30          1           0       -1.181056    2.795450    0.592074
     31          6           0       -5.138042    0.259742    0.057760
     32          6           0       -5.713891   -1.015229   -0.559357
     33          6           0       -7.209694   -1.179665   -0.288570
     34          1           0       -5.316085    0.246777    1.141977
     35          1           0       -5.681439    1.128764   -0.337798
     36          1           0       -5.168934   -1.881305   -0.162429
     37          1           0       -5.533591   -1.000507   -1.641896
     38          1           0       -7.770850   -0.334327   -0.699799
     39          1           0       -7.404122   -1.220129    0.788074
     40          1           0       -7.600643   -2.097515   -0.738649
 ---------------------------------------------------------------------

 SCF Done:  E(RHF) =  -470.733256932     A.U. after   11 cycles
 E2 =    -0.1582370481D+01 EUMP2 =    -0.47231562741309D+03

 The electronic state is 1-A.
 Alpha  occ. eigenvalues --  -11.21595 -11.21588 -11.21588 -11.21573 -11.21403
 Alpha  occ. eigenvalues --  -11.21387 -11.21343 -11.21328 -11.21066 -11.21065
 Alpha  occ. eigenvalues --  -11.21060 -11.21024  -1.08426  -1.08410  -1.03540
 Alpha  occ. eigenvalues --   -1.03496  -0.96012  -0.95930  -0.87038  -0.86939
 Alpha  occ. eigenvalues --   -0.79604  -0.79555  -0.78238  -0.78222  -0.65066
 Alpha  occ. eigenvalues --   -0.65032  -0.60981  -0.60872  -0.59419  -0.59285
 Alpha  occ. eigenvalues --   -0.57714  -0.57457  -0.55336  -0.55178  -0.52766
 Alpha  occ. eigenvalues --   -0.52659  -0.52460  -0.52240  -0.49963  -0.49835
 Alpha  occ. eigenvalues --   -0.47972  -0.47812  -0.46623  -0.46584  -0.45776
 Alpha  occ. eigenvalues --   -0.45767  -0.45701  -0.45688  -0.43784  -0.43742
 Alpha virt. eigenvalues --    0.21657   0.22998   0.23472   0.24882   0.26267
 Alpha virt. eigenvalues --    0.26604   0.27092   0.27494   0.27773   0.28972
 Alpha virt. eigenvalues --    0.30622   0.31364   0.31708   0.31856   0.32084

 Mulliken charges:
               1
     1  C   -0.298364
     2  C   -0.300240
     3  C   -0.479836
     4  H    0.149540
     5  H    0.149485
     6  H    0.151924
     7  H    0.153787
     8  H    0.154927
     9  H    0.155179
    10  H    0.163610
    11  C   -0.298289
    12  C   -0.299644
    13  C   -0.475700
    14  H    0.149507
    15  H    0.149802
    16  H    0.151884
    17  H    0.151904
    18  H    0.155199
    19  H    0.155163
    20  H    0.160197
    21  C   -0.298665
    22  C   -0.299263
    23  C   -0.483090
    24  H    0.149387
    25  H    0.149513
    26  H    0.151915
    27  H    0.151844
    28  H    0.154971
    29  H    0.163260
    30  H    0.159888
    31  C   -0.298272
    32  C   -0.299694
    33  C   -0.475712
    34  H    0.149620
    35  H    0.149716
    36  H    0.152052
    37  H    0.151888
    38  H    0.155153
    39  H    0.155212
    40  H    0.160245
 Sum of Mulliken charges =  -0.00000

 Dipole moment (field-independent basis, Debye):
    X=              0.0063    Y=              0.0002    Z=              0.0002  Tot=              0.0063
 Quadrupole moment (field-independent basis, Debye-Ang):
   XX=            -86.7272   YY=            -83.9978   ZZ=            -84.1128
   XY=             -0.7402   XZ=              0.7549   YZ=              0.2812

 Normal termination of Gaussian 16 at Thu May  6 03:40:18 2021.
