 Gaussian 16, Revision A.03,
 Gaussian 16:  EM64L-G16RevA.03 25-Dec-2016

 -------------
 #p 6-31g* mp2
 -------------

 ------------------------------------------------------
 Input file generated by CHIRIPA (05-May-2021 14:55:24)
 ------------------------------------------------------
 Symbolic Z-matrix:
 Charge =  0 Multiplicity = 1

                         Standard orientation:
 ---------------------------------------------------------------------
 Center     Atomic      Atomic             Coordinates (Angstroms)
 Number     Number       Type             X           Y           Z
 ---------------------------------------------------------------------
      1          6           0        3.707230   -2.122645   -0.317616
      2          6           0        4.401380   -1.057814    0.266172
      3          6           0        3.852137    0.227796    0.275476
      4          6           0        2.601034    0.413606   -0.310618
      5          6           0        1.884838   -0.627005   -0.900095
      6          6           0        2.453385   -1.904227   -0.897864
      7          1           0        4.141392   -3.118081   -0.320363
      8          1           0        5.375305   -1.224498    0.717538
      9          1           0        4.367823    1.070072    0.720513
     10          1           0        0.915801   -0.429848   -1.342264
     11          1           0        1.912023   -2.729311   -1.351967
     12          7           0        2.009357    1.770184   -0.306874
     13          8           0        0.905598    1.907713   -0.829788
     14          8           0        2.660563    2.670254    0.218902
     15          6           0       -2.981119   -0.112791    0.983756
     16          6           0       -1.567827   -0.648538    0.752316
     17          6           0       -0.633213   -0.379924    1.932206
     18          1           0       -2.930070    0.967970    1.174271
     19          1           0       -3.395244   -0.571151    1.892493
     20          1           0       -1.157014   -0.190348   -0.156480
     21          1           0       -1.622264   -1.728114    0.562140
     22          1           0       -1.017117   -0.851139    2.842796
     23          1           0       -0.549223    0.695364    2.120092
     24          1           0        0.371721   -0.771215    1.745505
     25          6           0       -3.927167   -0.373674   -0.186996
     26          6           0       -5.340460    0.162072    0.044445
     27          6           0       -6.275073   -0.106541   -1.135444
     28          1           0       -3.513042    0.084686   -1.095732
     29          1           0       -3.978216   -1.454434   -0.377510
     30          1           0       -5.286022    1.241649    0.234620
     31          1           0       -5.751273   -0.296118    0.953241
     32          1           0       -6.359062   -1.181830   -1.323331
     33          1           0       -5.891169    0.364674   -2.046036
     34          1           0       -7.280008    0.284749   -0.948744
 ---------------------------------------------------------------------

 SCF Done:  E(RHF) =  -669.535363852     A.U. after   15 cycles
 E2 =    -0.2093544350D+01 EUMP2 =    -0.67162890820260D+03

 The electronic state is 1-A.
 Alpha  occ. eigenvalues --  -20.60883 -20.60874 -15.85912 -11.31221 -11.27804
 Alpha  occ. eigenvalues --  -11.27774 -11.27546 -11.26807 -11.26796 -11.21372
 Alpha  occ. eigenvalues --  -11.21340 -11.21125 -11.21041 -11.20857 -11.20761
 Alpha  occ. eigenvalues --   -1.59939  -1.39497  -1.19413  -1.08811  -1.08155
 Alpha  occ. eigenvalues --   -1.04811  -1.03278  -0.95748  -0.95629  -0.86742
 Alpha  occ. eigenvalues --   -0.86208  -0.82486  -0.79376  -0.78015  -0.77513
 Alpha  occ. eigenvalues --   -0.72140  -0.71256  -0.70526  -0.65072  -0.64888
 Alpha  occ. eigenvalues --   -0.64687  -0.62188  -0.60633  -0.59129  -0.57382
 Alpha  occ. eigenvalues --   -0.55315  -0.54982  -0.53255  -0.52899  -0.52349
 Alpha  occ. eigenvalues --   -0.52079  -0.49646  -0.48911  -0.48888  -0.47672
 Alpha  occ. eigenvalues --   -0.46362  -0.45534  -0.45434  -0.44852  -0.43530
 Alpha  occ. eigenvalues --   -0.37372  -0.36378
 Alpha virt. eigenvalues --    0.04965   0.11201   0.16459   0.21096   0.23217
 Alpha virt. eigenvalues --    0.24475   0.26029   0.27100   0.27796   0.28132
 Alpha virt. eigenvalues --    0.28943   0.30419   0.31604   0.31900   0.31959

 Mulliken charges:
               1
     1  C   -0.170563
     2  C   -0.218735
     3  C   -0.170855
     4  C    0.159238
     5  C   -0.169625
     6  C   -0.220177
     7  H    0.225901
     8  H    0.223653
     9  H    0.275760
    10  H    0.279070
    11  H    0.224345
    12  N    0.489208
    13  O   -0.462437
    14  O   -0.459466
    15  C   -0.297499
    16  C   -0.306914
    17  C   -0.482099
    18  H    0.156784
    19  H    0.147446
    20  H    0.160630
    21  H    0.143516
    22  H    0.153177
    23  H    0.163884
    24  H    0.157957
    25  C   -0.299048
    26  C   -0.299741
    27  C   -0.475730
    28  H    0.152109
    29  H    0.145621
    30  H    0.154557
    31  H    0.150787
    32  H    0.153298
    33  H    0.155987
    34  H    0.159963
 Sum of Mulliken charges =  -0.00000

 Dipole moment (field-independent basis, Debye):
    X=              2.1681    Y=             -4.6310    Z=             -0.0370  Tot=              5.1135
 Quadrupole moment (field-independent basis, Debye-Ang):
   XX=            -81.5133   YY=            -97.9573   ZZ=            -94.7698
   XY=            -10.3751   XZ=              0.8458   YZ=              2.1795

 Normal termination of Gaussian 16 at Thu May  6 14:19:12 2021.
