 Gaussian 16, Revision A.03,
 Gaussian 16:  EM64L-G16RevA.03 25-Dec-2016

 -------------
 #p 6-31g* mp2
 -------------

 ------------------------------------------------------
 Input file generated by CHIRIPA (05-May-2021 14:57:24)
 ------------------------------------------------------
 Symbolic Z-matrix:
 Charge =  0 Multiplicity = 1

                         Standard orientation:
 ---------------------------------------------------------------------
 Center     Atomic      Atomic             Coordinates (Angstroms)
 Number     Number       Type             X           Y           Z
 ---------------------------------------------------------------------
      1          6           0       -1.463472   -0.711617    1.726393
      2          6           0       -1.951671    0.595821    1.632644
      3          6           0       -3.010516    0.898286    0.771302
      4          6           0       -3.560025   -0.135746    0.014924
      5          6           0       -3.095733   -1.448244    0.086138
      6          6           0       -2.036051   -1.727685    0.954202
      7          1           0       -0.640610   -0.937636    2.398115
      8          1           0       -1.508937    1.386920    2.231138
      9          1           0       -3.407975    1.901755    0.679144
     10          1           0       -3.557504   -2.215705   -0.523115
     11          1           0       -1.658954   -2.743971    1.024957
     12          7           0       -4.681420    0.172273   -0.900498
     13          8           0       -5.148287   -0.756564   -1.556192
     14          8           0       -5.072268    1.336702   -0.944978
     15          6           0        2.373861    2.487123    0.099573
     16          6           0        1.605910    1.352621    0.381849
     17          6           0        2.150378    0.072970    0.238338
     18          6           0        3.472012   -0.035903   -0.191452
     19          6           0        4.262629    1.075249   -0.480516
     20          6           0        3.697436    2.345065   -0.329950
     21          1           0        1.942855    3.477366    0.213796
     22          1           0        0.577734    1.459923    0.715595
     23          1           0        1.578347   -0.822247    0.449963
     24          1           0        5.284715    0.936454   -0.811411
     25          1           0        4.296193    3.224361   -0.549894
     26          7           0        4.059386   -1.385407   -0.347114
     27          8           0        5.226153   -1.454450   -0.727278
     28          8           0        3.341881   -2.348552   -0.086011
 ---------------------------------------------------------------------

 SCF Done:  E(RHF) =  -868.337214544     A.U. after   16 cycles
 E2 =    -0.2601694075D+01 EUMP2 =    -0.87093890861981D+03

 The electronic state is 1-A.
 Alpha  occ. eigenvalues --  -20.61346 -20.61332 -20.61240 -20.61217 -15.86401
 Alpha  occ. eigenvalues --  -15.86284 -11.31960 -11.31641 -11.28610 -11.28489
 Alpha  occ. eigenvalues --  -11.28357 -11.28226 -11.28173 -11.27922 -11.27702
 Alpha  occ. eigenvalues --  -11.27515 -11.27186 -11.27150  -1.60412  -1.60304
 Alpha  occ. eigenvalues --   -1.39960  -1.39860  -1.20170  -1.19800  -1.09542
 Alpha  occ. eigenvalues --   -1.09195  -1.05597  -1.05199  -0.96329  -0.96037
 Alpha  occ. eigenvalues --   -0.87013  -0.86584  -0.83147  -0.82872  -0.78172
 Alpha  occ. eigenvalues --   -0.77916  -0.72616  -0.72504  -0.71737  -0.71625
 Alpha  occ. eigenvalues --   -0.71287  -0.70894  -0.65840  -0.65684  -0.65452
 Alpha  occ. eigenvalues --   -0.65132  -0.62937  -0.62535  -0.56092  -0.55721
 Alpha  occ. eigenvalues --   -0.53958  -0.53687  -0.53529  -0.53180  -0.49391
 Alpha  occ. eigenvalues --   -0.49358  -0.49265  -0.49250  -0.45323  -0.45268
 Alpha  occ. eigenvalues --   -0.38168  -0.37778  -0.37176  -0.36806
 Alpha virt. eigenvalues --    0.04338   0.04607   0.10247   0.10830   0.15677
 Alpha virt. eigenvalues --    0.16089   0.19554   0.22006   0.25628   0.26228
 Alpha virt. eigenvalues --    0.28031   0.29366   0.29777   0.31139   0.31790

 Mulliken charges:
               1
     1  C   -0.177281
     2  C   -0.229218
     3  C   -0.171048
     4  C    0.159845
     5  C   -0.168080
     6  C   -0.218736
     7  H    0.230324
     8  H    0.221914
     9  H    0.276971
    10  H    0.280306
    11  H    0.232285
    12  N    0.488023
    13  O   -0.456741
    14  O   -0.459527
    15  C   -0.172366
    16  C   -0.223161
    17  C   -0.176776
    18  C    0.160084
    19  C   -0.170615
    20  C   -0.217958
    21  H    0.226157
    22  H    0.226734
    23  H    0.269975
    24  H    0.276831
    25  H    0.225110
    26  N    0.488494
    27  O   -0.458144
    28  O   -0.463401
 Sum of Mulliken charges =  -0.00000

 Dipole moment (field-independent basis, Debye):
    X=              1.6522    Y=              3.5385    Z=              3.6621  Tot=              5.3536
 Quadrupole moment (field-independent basis, Debye-Ang):
   XX=           -143.2223   YY=            -99.6057   ZZ=           -105.5890
   XY=             22.8238   XZ=            -10.6269   YZ=             -0.7069

 Normal termination of Gaussian 16 at Thu May  6 03:26:56 2021.
