 Gaussian 16, Revision A.03,
 Gaussian 16:  EM64L-G16RevA.03 25-Dec-2016

 -------------
 #p 6-31g* mp2
 -------------

 ------------------------------------------------------
 Input file generated by CHIRIPA (05-May-2021 14:53:16)
 ------------------------------------------------------
 Symbolic Z-matrix:
 Charge =  0 Multiplicity = 1

                         Standard orientation:
 ---------------------------------------------------------------------
 Center     Atomic      Atomic             Coordinates (Angstroms)
 Number     Number       Type             X           Y           Z
 ---------------------------------------------------------------------
      1          6           0        3.437241   -0.367845    0.497663
      2          6           0        4.256929   -1.559578    0.001813
      3          6           0        4.238140   -2.736836    0.977264
      4          1           0        3.825812   -0.044039    1.472911
      5          1           0        2.400084   -0.689551    0.665608
      6          1           0        5.291916   -1.235387   -0.166467
      7          1           0        3.866484   -1.880464   -0.972457
      8          1           0        3.213636   -3.087943    1.137628
      9          1           0        4.647168   -2.439201    1.948197
     10          1           0        4.830300   -3.577768    0.603044
     11          6           0        3.446342    0.816934   -0.466673
     12          6           0        2.626654    2.008668    0.029177
     13          6           0        2.645443    3.185926   -0.946274
     14          1           0        4.483499    1.138640   -0.634618
     15          1           0        3.057771    0.493129   -1.441920
     16          1           0        3.017099    2.329553    1.003447
     17          1           0        1.591667    1.684477    0.197457
     18          1           0        2.236415    2.888291   -1.917207
     19          1           0        3.669946    3.537033   -1.106638
     20          1           0        2.053283    4.026858   -0.572054
     21          6           0       -2.819280    2.235070    0.721678
     22          6           0       -1.606487    1.706078    0.268004
     23          6           0       -1.522585    0.371843   -0.141053
     24          6           0       -2.676295   -0.408464   -0.083046
     25          6           0       -3.899146    0.089526    0.364091
     26          6           0       -3.959729    1.426531    0.768192
     27          1           0       -2.875400    3.272610    1.037517
     28          1           0       -0.719186    2.331663    0.230802
     29          1           0       -0.596488   -0.063323   -0.496569
     30          1           0       -4.766643   -0.558706    0.389808
     31          1           0       -4.902943    1.834665    1.120069
     32          7           0       -2.599815   -1.822424   -0.513471
     33          8           0       -3.630595   -2.489091   -0.452768
     34          8           0       -1.510539   -2.237245   -0.903392
 ---------------------------------------------------------------------

 SCF Done:  E(RHF) =  -669.535469577     A.U. after   15 cycles
 E2 =    -0.2091764360D+01 EUMP2 =    -0.67162723393669D+03

 The electronic state is 1-A.
 Alpha  occ. eigenvalues --  -20.60784 -20.60778 -15.85836 -11.31188 -11.27752
 Alpha  occ. eigenvalues --  -11.27749 -11.27484 -11.26767 -11.26725 -11.22430
 Alpha  occ. eigenvalues --  -11.21849 -11.21841 -11.21645 -11.21585 -11.20935
 Alpha  occ. eigenvalues --   -1.59858  -1.39413  -1.19355  -1.08826  -1.08750
 Alpha  occ. eigenvalues --   -1.04760  -1.03900  -0.96326  -0.95591  -0.87344
 Alpha  occ. eigenvalues --   -0.86155  -0.82432  -0.80019  -0.78575  -0.77471
 Alpha  occ. eigenvalues --   -0.72055  -0.71180  -0.70468  -0.65500  -0.65001
 Alpha  occ. eigenvalues --   -0.64764  -0.62171  -0.61231  -0.59748  -0.57927
 Alpha  occ. eigenvalues --   -0.55598  -0.55255  -0.53088  -0.53043  -0.52847
 Alpha  occ. eigenvalues --   -0.52738  -0.50268  -0.48813  -0.48811  -0.48297
 Alpha  occ. eigenvalues --   -0.47055  -0.46111  -0.45997  -0.44821  -0.44143
 Alpha  occ. eigenvalues --   -0.37333  -0.36355
 Alpha virt. eigenvalues --    0.05049   0.11288   0.16519   0.18926   0.22727
 Alpha virt. eigenvalues --    0.23632   0.25066   0.26331   0.26878   0.28502
 Alpha virt. eigenvalues --    0.29798   0.30651   0.31068   0.31423   0.32331

 Mulliken charges:
               1
     1  C   -0.299899
     2  C   -0.300171
     3  C   -0.477020
     4  H    0.149743
     5  H    0.150601
     6  H    0.151089
     7  H    0.156000
     8  H    0.160729
     9  H    0.153462
    10  H    0.161626
    11  C   -0.299156
    12  C   -0.305126
    13  C   -0.477184
    14  H    0.152347
    15  H    0.151965
    16  H    0.155677
    17  H    0.142396
    18  H    0.157264
    19  H    0.160669
    20  H    0.155873
    21  C   -0.170962
    22  C   -0.223415
    23  C   -0.174230
    24  C    0.158801
    25  C   -0.170949
    26  C   -0.218484
    27  H    0.225901
    28  H    0.230493
    29  H    0.276182
    30  H    0.275547
    31  H    0.223431
    32  N    0.488257
    33  O   -0.460250
    34  O   -0.461205
 Sum of Mulliken charges =  -0.00000

 Dipole moment (field-independent basis, Debye):
    X=             -0.1248    Y=              4.9169    Z=              1.4973  Tot=              5.1413
 Quadrupole moment (field-independent basis, Debye-Ang):
   XX=            -87.2250   YY=            -99.9767   ZZ=            -95.7529
   XY=            -12.4165   XZ=             -5.0856   YZ=             -0.4252

 Normal termination of Gaussian 16 at Thu May  6 07:32:36 2021.
