 Gaussian 16, Revision A.03,
 Gaussian 16:  EM64L-G16RevA.03 25-Dec-2016

 -------------
 #p 6-31g* mp2
 -------------

 ------------------------------------------------------
 Input file generated by CHIRIPA (05-May-2021 14:53:17)
 ------------------------------------------------------
 Symbolic Z-matrix:
 Charge =  0 Multiplicity = 1

                         Standard orientation:
 ---------------------------------------------------------------------
 Center     Atomic      Atomic             Coordinates (Angstroms)
 Number     Number       Type             X           Y           Z
 ---------------------------------------------------------------------
      1          6           0       -3.417537    0.626646    0.352952
      2          6           0       -4.004818    1.744955   -0.508715
      3          6           0       -4.022544    3.095729    0.207448
      4          1           0       -3.999398    0.543564    1.281112
      5          1           0       -2.394973    0.899484    0.648447
      6          1           0       -5.025474    1.469464   -0.803644
      7          1           0       -3.421610    1.825257   -1.435017
      8          1           0       -3.007846    3.396576    0.487593
      9          1           0       -4.620823    3.038763    1.122554
     10          1           0       -4.446290    3.880765   -0.426601
     11          6           0       -3.393040   -0.729845   -0.349230
     12          6           0       -2.805759   -1.848155    0.512437
     13          6           0       -2.788034   -3.198928   -0.203726
     14          1           0       -4.415604   -1.002683   -0.644725
     15          1           0       -2.811180   -0.646763   -1.277390
     16          1           0       -3.388968   -1.928456    1.438739
     17          1           0       -1.785104   -1.572663    0.807366
     18          1           0       -2.189754   -3.141962   -1.118832
     19          1           0       -3.802731   -3.499776   -0.483871
     20          1           0       -2.364288   -3.983964    0.430323
     21          6           0        3.382528    2.457706   -0.026587
     22          6           0        4.341971    1.440215   -0.053083
     23          6           0        3.953333    0.097336   -0.039489
     24          6           0        2.590567   -0.193393    0.000976
     25          6           0        1.610759    0.797834    0.028114
     26          6           0        2.022383    2.133840    0.013855
     27          1           0        3.693359    3.498218   -0.037405
     28          1           0        5.398982    1.688779   -0.084508
     29          1           0        4.675020   -0.710247   -0.059352
     30          1           0        0.564503    0.518918    0.059272
     31          1           0        1.275058    2.921954    0.034502
     32          7           0        2.166967   -1.611400    0.015718
     33          8           0        0.960101   -1.841246    0.051510
     34          8           0        3.049836   -2.466138   -0.008797
 ---------------------------------------------------------------------

 SCF Done:  E(RHF) =  -669.536005718     A.U. after   15 cycles
 E2 =    -0.2091712094D+01 EUMP2 =    -0.67162771781192D+03

 The electronic state is 1-A.
 Alpha  occ. eigenvalues --  -20.60934 -20.60922 -15.85973 -11.31293 -11.27863
 Alpha  occ. eigenvalues --  -11.27852 -11.27591 -11.26864 -11.26854 -11.21679
 Alpha  occ. eigenvalues --  -11.21351 -11.21300 -11.20929 -11.20650 -11.19994
 Alpha  occ. eigenvalues --   -1.59996  -1.39553  -1.19461  -1.08864  -1.08140
 Alpha  occ. eigenvalues --   -1.04859  -1.03110  -0.95711  -0.95594  -0.86617
 Alpha  occ. eigenvalues --   -0.86259  -0.82545  -0.79266  -0.77877  -0.77572
 Alpha  occ. eigenvalues --   -0.72203  -0.71311  -0.70572  -0.65127  -0.64889
 Alpha  occ. eigenvalues --   -0.64751  -0.62206  -0.60482  -0.59045  -0.57167
 Alpha  occ. eigenvalues --   -0.55362  -0.54897  -0.53189  -0.52950  -0.52272
 Alpha  occ. eigenvalues --   -0.52016  -0.49575  -0.48958  -0.48940  -0.47548
 Alpha  occ. eigenvalues --   -0.46333  -0.45403  -0.45278  -0.44911  -0.43395
 Alpha  occ. eigenvalues --   -0.37439  -0.36460
 Alpha virt. eigenvalues --    0.04927   0.11193   0.16423   0.19368   0.22806
 Alpha virt. eigenvalues --    0.24419   0.25407   0.27434   0.27640   0.28175
 Alpha virt. eigenvalues --    0.29630   0.30938   0.31795   0.31929   0.32715

 Mulliken charges:
               1
     1  C   -0.297355
     2  C   -0.299583
     3  C   -0.474006
     4  H    0.151223
     5  H    0.139878
     6  H    0.154277
     7  H    0.149778
     8  H    0.147916
     9  H    0.156956
    10  H    0.160202
    11  C   -0.298439
    12  C   -0.307158
    13  C   -0.472433
    14  H    0.148132
    15  H    0.149239
    16  H    0.146139
    17  H    0.170841
    18  H    0.160921
    19  H    0.147219
    20  H    0.164077
    21  C   -0.170457
    22  C   -0.218699
    23  C   -0.170489
    24  C    0.157680
    25  C   -0.173753
    26  C   -0.219441
    27  H    0.226110
    28  H    0.223862
    29  H    0.275835
    30  H    0.279364
    31  H    0.223990
    32  N    0.493769
    33  O   -0.466617
    34  O   -0.458975
 Sum of Mulliken charges =  -0.00000

 Dipole moment (field-independent basis, Debye):
    X=              1.6626    Y=              4.8623    Z=             -0.0559  Tot=              5.1390
 Quadrupole moment (field-independent basis, Debye-Ang):
   XX=            -81.8005   YY=            -97.8426   ZZ=            -95.7488
   XY=             11.5686   XZ=             -0.6046   YZ=             -0.4415

 Normal termination of Gaussian 16 at Wed May  5 22:00:38 2021.
