 Gaussian 16, Revision A.03,
 Gaussian 16:  EM64L-G16RevA.03 25-Dec-2016

 -------------
 #p 6-31g* mp2
 -------------

 ------------------------------------------------------
 Input file generated by CHIRIPA (05-May-2021 14:55:19)
 ------------------------------------------------------
 Symbolic Z-matrix:
 Charge =  0 Multiplicity = 1

                         Standard orientation:
 ---------------------------------------------------------------------
 Center     Atomic      Atomic             Coordinates (Angstroms)
 Number     Number       Type             X           Y           Z
 ---------------------------------------------------------------------
      1          6           0        4.388951   -1.958071   -0.270364
      2          6           0        3.008122   -1.971621   -0.493181
      3          6           0        2.272115   -0.783414   -0.461464
      4          6           0        2.952159    0.405690   -0.202883
      5          6           0        4.326973    0.451781    0.023067
      6          6           0        5.042817   -0.748546   -0.013405
      7          1           0        4.952867   -2.885807   -0.296849
      8          1           0        2.497677   -2.909477   -0.692976
      9          1           0        1.202293   -0.765145   -0.630474
     10          1           0        4.807955    1.402253    0.219732
     11          1           0        6.115100   -0.735008    0.160003
     12          7           0        2.183655    1.670007   -0.166789
     13          8           0        2.806291    2.704462    0.063131
     14          8           0        0.973217    1.602583   -0.369103
     15          6           0       -4.463383   -0.392657   -0.271957
     16          6           0       -5.815292    0.264426    0.008345
     17          6           0       -6.850114   -0.025024   -1.079385
     18          1           0       -4.086031   -0.040988   -1.241946
     19          1           0       -4.603774   -1.478386   -0.366187
     20          1           0       -5.672179    1.348447    0.103393
     21          1           0       -6.189381   -0.088701    0.977868
     22          1           0       -7.022164   -1.102378   -1.170528
     23          1           0       -6.502025    0.342936   -2.049972
     24          1           0       -7.809064    0.454223   -0.858934
     25          6           0       -3.418391   -0.112469    0.806566
     26          6           0       -2.066482   -0.769552    0.526265
     27          6           0       -1.031660   -0.480102    1.613994
     28          1           0       -3.278001    0.973260    0.900798
     29          1           0       -3.795743   -0.464138    1.776556
     30          1           0       -1.692394   -0.416425   -0.443259
     31          1           0       -2.209596   -1.853573    0.431218
     32          1           0       -1.379750   -0.848062    2.584582
     33          1           0       -0.859611    0.597252    1.705138
     34          1           0       -0.072711   -0.959349    1.393545
 ---------------------------------------------------------------------

 SCF Done:  E(RHF) =  -669.535366206     A.U. after   15 cycles
 E2 =    -0.2092701527D+01 EUMP2 =    -0.67162806773342D+03

 The electronic state is 1-A.
 Alpha  occ. eigenvalues --  -20.60879 -20.60866 -15.85907 -11.31232 -11.27804
 Alpha  occ. eigenvalues --  -11.27768 -11.27542 -11.26813 -11.26802 -11.21267
 Alpha  occ. eigenvalues --  -11.21222 -11.21026 -11.20929 -11.20796 -11.20516
 Alpha  occ. eigenvalues --   -1.59936  -1.39492  -1.19408  -1.08808  -1.08039
 Alpha  occ. eigenvalues --   -1.04809  -1.03149  -0.95707  -0.95538  -0.86622
 Alpha  occ. eigenvalues --   -0.86194  -0.82486  -0.79228  -0.77864  -0.77538
 Alpha  occ. eigenvalues --   -0.72142  -0.71251  -0.70528  -0.65070  -0.64838
 Alpha  occ. eigenvalues --   -0.64627  -0.62211  -0.60495  -0.58981  -0.57241
 Alpha  occ. eigenvalues --   -0.55304  -0.54829  -0.53176  -0.52936  -0.52245
 Alpha  occ. eigenvalues --   -0.51978  -0.49512  -0.48888  -0.48866  -0.47547
 Alpha  occ. eigenvalues --   -0.46257  -0.45407  -0.45323  -0.44817  -0.43419
 Alpha  occ. eigenvalues --   -0.37382  -0.36385
 Alpha virt. eigenvalues --    0.04956   0.11177   0.16434   0.20840   0.23285
 Alpha virt. eigenvalues --    0.24245   0.26543   0.27221   0.27754   0.28146
 Alpha virt. eigenvalues --    0.29391   0.30643   0.31627   0.31871   0.32005

 Mulliken charges:
               1
     1  C   -0.170174
     2  C   -0.221440
     3  C   -0.171943
     4  C    0.156905
     5  C   -0.170465
     6  C   -0.218578
     7  H    0.225846
     8  H    0.224315
     9  H    0.283360
    10  H    0.275648
    11  H    0.223632
    12  N    0.488764
    13  O   -0.459655
    14  O   -0.461340
    15  C   -0.298503
    16  C   -0.299717
    17  C   -0.475575
    18  H    0.151210
    19  H    0.146395
    20  H    0.153963
    21  H    0.150872
    22  H    0.153631
    23  H    0.155521
    24  H    0.159679
    25  C   -0.298661
    26  C   -0.304177
    27  C   -0.476094
    28  H    0.156584
    29  H    0.147662
    30  H    0.157785
    31  H    0.144161
    32  H    0.150072
    33  H    0.174244
    34  H    0.146071
 Sum of Mulliken charges =  -0.00000

 Dipole moment (field-independent basis, Debye):
    X=              2.8032    Y=             -4.2551    Z=             -0.1591  Tot=              5.0979
 Quadrupole moment (field-independent basis, Debye-Ang):
   XX=            -76.1583   YY=            -97.0272   ZZ=            -95.7493
   XY=            -10.0874   XZ=             -0.7252   YZ=              1.1730

 Normal termination of Gaussian 16 at Wed May  5 23:44:09 2021.
