 Gaussian 16, Revision A.03,
 Gaussian 16:  EM64L-G16RevA.03 25-Dec-2016

 -------------
 #p 6-31g* mp2
 -------------

 ------------------------------------------------------
 Input file generated by CHIRIPA (05-May-2021 14:53:13)
 ------------------------------------------------------
 Symbolic Z-matrix:
 Charge =  0 Multiplicity = 1

                         Standard orientation:
 ---------------------------------------------------------------------
 Center     Atomic      Atomic             Coordinates (Angstroms)
 Number     Number       Type             X           Y           Z
 ---------------------------------------------------------------------
      1          6           0       -3.754094   -0.526922   -0.409039
      2          6           0       -4.985547   -1.388784   -0.128499
      3          6           0       -4.799329   -2.843911   -0.559453
      4          1           0       -3.523680   -0.566291   -1.482493
      5          1           0       -2.887761   -0.956785    0.112575
      6          1           0       -5.849589   -0.956642   -0.649365
      7          1           0       -5.213170   -1.347205    0.944383
      8          1           0       -3.954793   -3.297284   -0.030479
      9          1           0       -4.594828   -2.904502   -1.633282
     10          1           0       -5.691580   -3.442048   -0.349736
     11          6           0       -3.924895    0.930354    0.016285
     12          6           0       -2.693441    1.792215   -0.264254
     13          6           0       -2.879659    3.247342    0.166700
     14          1           0       -4.791227    1.360216   -0.505328
     15          1           0       -4.155308    0.969722    1.089740
     16          1           0       -2.465819    1.750637   -1.337136
     17          1           0       -1.829399    1.360074    0.256611
     18          1           0       -3.084160    3.307933    1.240529
     19          1           0       -3.724195    3.700715   -0.362274
     20          1           0       -1.987409    3.845479   -0.043017
     21          6           0        0.664821   -0.074171    1.106176
     22          6           0        1.207418    1.054594    0.483282
     23          6           0        2.500046    1.019788   -0.048179
     24          6           0        3.225323   -0.165655    0.061310
     25          6           0        2.712454   -1.306860    0.676051
     26          6           0        1.417743   -1.249224    1.200407
     27          1           0       -0.340133   -0.038266    1.516267
     28          1           0        0.624990    1.968516    0.408658
     29          1           0        2.944578    1.879003   -0.535577
     30          1           0        3.317292   -2.203568    0.735232
     31          1           0        0.998919   -2.127373    1.683612
     32          7           0        4.594873   -0.214588   -0.497562
     33          8           0        5.213375   -1.271066   -0.388262
     34          8           0        5.023891    0.804464   -1.034325
 ---------------------------------------------------------------------

 SCF Done:  E(RHF) =  -669.534785286     A.U. after   15 cycles
 E2 =    -0.2092394522D+01 EUMP2 =    -0.67162717980871D+03

 The electronic state is 1-A.
 Alpha  occ. eigenvalues --  -20.60744 -20.60739 -15.85797 -11.31164 -11.27730
 Alpha  occ. eigenvalues --  -11.27720 -11.27463 -11.26753 -11.26718 -11.22736
 Alpha  occ. eigenvalues --  -11.22355 -11.22331 -11.22254 -11.22113 -11.21705
 Alpha  occ. eigenvalues --   -1.59819  -1.39373  -1.19335  -1.09368  -1.08732
 Alpha  occ. eigenvalues --   -1.04740  -1.04434  -0.96863  -0.95572  -0.87875
 Alpha  occ. eigenvalues --   -0.86143  -0.82401  -0.80518  -0.79166  -0.77441
 Alpha  occ. eigenvalues --   -0.72016  -0.71142  -0.70487  -0.66032  -0.64989
 Alpha  occ. eigenvalues --   -0.64745  -0.62148  -0.61773  -0.60234  -0.58472
 Alpha  occ. eigenvalues --   -0.56142  -0.55268  -0.53554  -0.53281  -0.53065
 Alpha  occ. eigenvalues --   -0.52823  -0.50800  -0.48827  -0.48773  -0.48754
 Alpha  occ. eigenvalues --   -0.47551  -0.46686  -0.46613  -0.44778  -0.44687
 Alpha  occ. eigenvalues --   -0.37296  -0.36332
 Alpha virt. eigenvalues --    0.05066   0.11264   0.16478   0.19211   0.22310
 Alpha virt. eigenvalues --    0.23387   0.24774   0.25821   0.26343   0.28269
 Alpha virt. eigenvalues --    0.29625   0.29981   0.30911   0.31153   0.32327

 Mulliken charges:
               1
     1  C   -0.298072
     2  C   -0.300445
     3  C   -0.475732
     4  H    0.153807
     5  H    0.142425
     6  H    0.154619
     7  H    0.151758
     8  H    0.153299
     9  H    0.157436
    10  H    0.162704
    11  C   -0.299154
    12  C   -0.305540
    13  C   -0.477210
    14  H    0.154104
    15  H    0.149095
    16  H    0.157781
    17  H    0.143259
    18  H    0.156270
    19  H    0.161158
    20  H    0.158063
    21  C   -0.172769
    22  C   -0.219130
    23  C   -0.171709
    24  C    0.158479
    25  C   -0.171009
    26  C   -0.218920
    27  H    0.227246
    28  H    0.226834
    29  H    0.275574
    30  H    0.275506
    31  H    0.223097
    32  N    0.488084
    33  O   -0.460470
    34  O   -0.460437
 Sum of Mulliken charges =  -0.00000

 Dipole moment (field-independent basis, Debye):
    X=             -5.0383    Y=              0.1835    Z=              1.8704  Tot=              5.3774
 Quadrupole moment (field-independent basis, Debye-Ang):
   XX=           -125.5117   YY=            -91.2324   ZZ=            -94.0006
   XY=              0.6907   XZ=              6.8848   YZ=             -2.5152

 Normal termination of Gaussian 16 at Thu May  6 10:28:46 2021.
