 Gaussian 16, Revision A.03,
 Gaussian 16:  EM64L-G16RevA.03 25-Dec-2016

 -------------
 #p 6-31g* mp2
 -------------

 ------------------------------------------------------
 Input file generated by CHIRIPA (05-May-2021 14:55:25)
 ------------------------------------------------------
 Symbolic Z-matrix:
 Charge =  0 Multiplicity = 1

                         Standard orientation:
 ---------------------------------------------------------------------
 Center     Atomic      Atomic             Coordinates (Angstroms)
 Number     Number       Type             X           Y           Z
 ---------------------------------------------------------------------
      1          6           0       -6.216990    1.287450    0.037367
      2          6           0       -6.224193   -0.107386   -0.067043
      3          6           0       -5.023635   -0.822794   -0.104435
      4          6           0       -3.828785   -0.108093   -0.034953
      5          6           0       -3.788767    1.281431    0.069500
      6          6           0       -5.001443    1.976193    0.105185
      7          1           0       -7.154319    1.835176    0.065751
      8          1           0       -7.166702   -0.644908   -0.119889
      9          1           0       -5.000234   -1.902793   -0.184889
     10          1           0       -2.833410    1.789495    0.120315
     11          1           0       -4.992811    3.059424    0.186311
     12          7           0       -2.551394   -0.854534   -0.073635
     13          8           0       -1.512085   -0.201441   -0.010847
     14          8           0       -2.613671   -2.078555   -0.166009
     15          6           0        4.585920   -0.302382    0.438651
     16          6           0        3.291436   -0.411515   -0.367815
     17          6           0        2.131447   -0.979882    0.450217
     18          1           0        4.857157   -1.295988    0.820913
     19          1           0        4.409724    0.333227    1.317484
     20          1           0        3.470389   -1.045604   -1.245609
     21          1           0        3.023352    0.582433   -0.748363
     22          1           0        1.924368   -0.344976    1.317750
     23          1           0        2.373946   -1.982263    0.817678
     24          1           0        1.216039   -1.049242   -0.145666
     25          6           0        5.754727    0.264163   -0.365492
     26          6           0        7.049210    0.373295    0.440974
     27          6           0        8.209199    0.941662   -0.377059
     28          1           0        5.930923   -0.371447   -1.244326
     29          1           0        5.483489    1.257768   -0.747754
     30          1           0        7.317295   -0.620652    0.821521
     31          1           0        6.870257    1.007385    1.318768
     32          1           0        7.966701    1.944043   -0.744520
     33          1           0        8.416278    0.306756   -1.244591
     34          1           0        9.124608    1.011022    0.218825
 ---------------------------------------------------------------------

 SCF Done:  E(RHF) =  -669.536118538     A.U. after   15 cycles
 E2 =    -0.2090751569D+01 EUMP2 =    -0.67162687010704D+03

 The electronic state is 1-A.
 Alpha  occ. eigenvalues --  -20.60957 -20.60939 -15.85975 -11.31298 -11.27859
 Alpha  occ. eigenvalues --  -11.27856 -11.27597 -11.26866 -11.26857 -11.21020
 Alpha  occ. eigenvalues --  -11.20654 -11.20599 -11.20441 -11.20345 -11.19249
 Alpha  occ. eigenvalues --   -1.60007  -1.39563  -1.19465  -1.08870  -1.07560
 Alpha  occ. eigenvalues --   -1.04861  -1.02549  -0.95713  -0.94963  -0.86262
 Alpha  occ. eigenvalues --   -0.85974  -0.82544  -0.78654  -0.77597  -0.77337
 Alpha  occ. eigenvalues --   -0.72197  -0.71320  -0.70573  -0.65120  -0.64864
 Alpha  occ. eigenvalues --   -0.64207  -0.62208  -0.59965  -0.58396  -0.56553
 Alpha  occ. eigenvalues --   -0.55365  -0.54279  -0.53193  -0.52953  -0.51611
 Alpha  occ. eigenvalues --   -0.51403  -0.48988  -0.48950  -0.48865  -0.46929
 Alpha  occ. eigenvalues --   -0.45732  -0.44979  -0.44868  -0.44797  -0.42741
 Alpha  occ. eigenvalues --   -0.37444  -0.36462
 Alpha virt. eigenvalues --    0.04934   0.11194   0.16435   0.21330   0.23655
 Alpha virt. eigenvalues --    0.25362   0.27246   0.27452   0.28203   0.28300
 Alpha virt. eigenvalues --    0.29111   0.30896   0.32316   0.32432   0.32553

 Mulliken charges:
               1
     1  C   -0.170583
     2  C   -0.218596
     3  C   -0.170587
     4  C    0.157758
     5  C   -0.170855
     6  C   -0.218547
     7  H    0.225991
     8  H    0.223826
     9  H    0.275909
    10  H    0.275855
    11  H    0.223819
    12  N    0.489615
    13  O   -0.460037
    14  O   -0.459001
    15  C   -0.296959
    16  C   -0.299807
    17  C   -0.481703
    18  H    0.148074
    19  H    0.147199
    20  H    0.148667
    21  H    0.148782
    22  H    0.150126
    23  H    0.148303
    24  H    0.188806
    25  C   -0.297278
    26  C   -0.298879
    27  C   -0.475164
    28  H    0.148427
    29  H    0.147799
    30  H    0.151295
    31  H    0.150705
    32  H    0.154065
    33  H    0.154579
    34  H    0.158394
 Sum of Mulliken charges =  -0.00000

 Dipole moment (field-independent basis, Debye):
    X=             -4.9156    Y=              2.6009    Z=              0.1062  Tot=              5.5623
 Quadrupole moment (field-independent basis, Debye-Ang):
   XX=            -61.7192   YY=            -91.0385   ZZ=            -95.9426
   XY=             -7.9460   XZ=              0.1200   YZ=              0.7809

 Normal termination of Gaussian 16 at Wed May  5 19:11:54 2021.
