 Gaussian 16, Revision A.03,
 Gaussian 16:  EM64L-G16RevA.03 25-Dec-2016

 -------------
 #p 6-31g* mp2
 -------------

 ------------------------------------------------------
 Input file generated by CHIRIPA (05-May-2021 14:51:12)
 ------------------------------------------------------
 Symbolic Z-matrix:
 Charge =  0 Multiplicity = 1

                         Standard orientation:
 ---------------------------------------------------------------------
 Center     Atomic      Atomic             Coordinates (Angstroms)
 Number     Number       Type             X           Y           Z
 ---------------------------------------------------------------------
      1          6           0        2.584382   -0.489262   -0.107569
      2          6           0        2.721214   -1.407906   -1.322211
      3          6           0        2.195611   -2.819228   -1.058195
      4          1           0        3.125073   -0.930698    0.740801
      5          1           0        1.527230   -0.438538    0.187813
      6          1           0        3.777611   -1.455786   -1.616062
      7          1           0        2.180295   -0.964137   -2.167842
      8          1           0        1.135387   -2.790940   -0.786671
      9          1           0        2.741779   -3.285383   -0.231756
     10          1           0        2.303137   -3.459092   -1.939599
     11          6           0        3.105520    0.925113   -0.355940
     12          6           0        2.968689    1.843757    0.858702
     13          6           0        3.494291    3.255079    0.594686
     14          1           0        4.162673    0.874389   -0.651322
     15          1           0        2.564829    1.366549   -1.204310
     16          1           0        3.509608    1.399988    1.704333
     17          1           0        1.912291    1.891637    1.152553
     18          1           0        2.948123    3.721234   -0.231752
     19          1           0        4.554516    3.226791    0.323162
     20          1           0        3.386766    3.894943    1.476090
     21          6           0       -2.966030    0.412478   -0.182206
     22          6           0       -4.434828    0.834993   -0.228015
     23          6           0       -4.661041    2.097742   -1.059934
     24          1           0       -2.366741    1.236370    0.228889
     25          1           0       -2.607360    0.246366   -1.207466
     26          1           0       -4.791008    0.998919    0.797110
     27          1           0       -5.030717    0.009929   -0.638870
     28          1           0       -4.332435    1.942674   -2.092684
     29          1           0       -4.091365    2.937282   -0.648545
     30          1           0       -5.717814    2.381847   -1.079196
     31          6           0       -2.723873   -0.848330    0.645715
     32          6           0       -1.255075   -1.270845    0.691524
     33          6           0       -1.028863   -2.533592    1.523443
     34          1           0       -3.082543   -0.682217    1.670974
     35          1           0       -3.323162   -1.672221    0.234620
     36          1           0       -0.659186   -0.445780    1.102379
     37          1           0       -0.898895   -1.434770   -0.333601
     38          1           0       -1.598538   -3.373134    1.112054
     39          1           0       -1.357468   -2.378525    2.556193
     40          1           0        0.027912   -2.817698    1.542704
 ---------------------------------------------------------------------

 SCF Done:  E(RHF) =  -470.732131105     A.U. after   11 cycles
 E2 =    -0.1584613022D+01 EUMP2 =    -0.47231674412705D+03

 The electronic state is 1-A.
 Alpha  occ. eigenvalues --  -11.21691 -11.21650 -11.21589 -11.21545 -11.21471
 Alpha  occ. eigenvalues --  -11.21411 -11.21331 -11.21219 -11.21111 -11.21086
 Alpha  occ. eigenvalues --  -11.21059 -11.21003  -1.08516  -1.08363  -1.03629
 Alpha  occ. eigenvalues --   -1.03466  -0.96045  -0.95930  -0.87068  -0.86938
 Alpha  occ. eigenvalues --   -0.79728  -0.79537  -0.78434  -0.78072  -0.65142
 Alpha  occ. eigenvalues --   -0.65024  -0.61124  -0.60838  -0.59520  -0.59191
 Alpha  occ. eigenvalues --   -0.57700  -0.57491  -0.55418  -0.55135  -0.52758
 Alpha  occ. eigenvalues --   -0.52636  -0.52530  -0.52269  -0.49993  -0.49881
 Alpha  occ. eigenvalues --   -0.48052  -0.47853  -0.46735  -0.46568  -0.46140
 Alpha  occ. eigenvalues --   -0.45763  -0.45708  -0.45203  -0.43834  -0.43732
 Alpha virt. eigenvalues --    0.21091   0.23053   0.23273   0.24468   0.25693
 Alpha virt. eigenvalues --    0.26508   0.26958   0.27388   0.28536   0.29389
 Alpha virt. eigenvalues --    0.30176   0.31474   0.31551   0.31884   0.32326

 Mulliken charges:
               1
     1  C   -0.309888
     2  C   -0.298543
     3  C   -0.483549
     4  H    0.148193
     5  H    0.163693
     6  H    0.151604
     7  H    0.150950
     8  H    0.163898
     9  H    0.154495
    10  H    0.159775
    11  C   -0.297418
    12  C   -0.299740
    13  C   -0.475658
    14  H    0.149181
    15  H    0.149376
    16  H    0.151902
    17  H    0.150926
    18  H    0.155215
    19  H    0.155310
    20  H    0.159996
    21  C   -0.298529
    22  C   -0.299684
    23  C   -0.475768
    24  H    0.149220
    25  H    0.149377
    26  H    0.152136
    27  H    0.152157
    28  H    0.155189
    29  H    0.155207
    30  H    0.160490
    31  C   -0.296494
    32  C   -0.307165
    33  C   -0.479513
    34  H    0.149912
    35  H    0.149968
    36  H    0.154177
    37  H    0.153590
    38  H    0.155403
    39  H    0.155693
    40  H    0.164916
 Sum of Mulliken charges =  -0.00000

 Dipole moment (field-independent basis, Debye):
    X=             -0.0610    Y=             -0.0125    Z=              0.0213  Tot=              0.0658
 Quadrupole moment (field-independent basis, Debye-Ang):
   XX=            -84.2749   YY=            -86.3378   ZZ=            -84.3197
   XY=             -0.2095   XZ=              0.2884   YZ=              0.8846

 Normal termination of Gaussian 16 at Wed May  5 19:53:27 2021.
