 Gaussian 16, Revision A.03,
 Gaussian 16:  EM64L-G16RevA.03 25-Dec-2016

 -------------
 #p 6-31g* mp2
 -------------

 ------------------------------------------------------
 Input file generated by CHIRIPA (05-May-2021 14:57:25)
 ------------------------------------------------------
 Symbolic Z-matrix:
 Charge =  0 Multiplicity = 1

                         Standard orientation:
 ---------------------------------------------------------------------
 Center     Atomic      Atomic             Coordinates (Angstroms)
 Number     Number       Type             X           Y           Z
 ---------------------------------------------------------------------
      1          6           0       -5.106090    1.200936   -0.591274
      2          6           0       -3.882399    1.264165   -1.265889
      3          6           0       -2.846708    0.382695   -0.942004
      4          6           0       -3.070090   -0.553667    0.066271
      5          6           0       -4.277992   -0.641579    0.756587
      6          6           0       -5.299639    0.249942    0.416035
      7          1           0       -5.905184    1.889587   -0.849349
      8          1           0       -3.729261    2.001690   -2.048609
      9          1           0       -1.889406    0.409661   -1.448227
     10          1           0       -4.400880   -1.387634    1.532292
     11          1           0       -6.248928    0.198533    0.941631
     12          7           0       -1.981084   -1.492160    0.417976
     13          8           0       -2.203014   -2.307932    1.310109
     14          8           0       -0.926211   -1.394209   -0.205150
     15          6           0        1.574786    2.168253    0.647995
     16          6           0        1.332443    1.352359   -0.462009
     17          6           0        2.253411    0.368816   -0.834850
     18          6           0        3.411483    0.227946   -0.071755
     19          6           0        3.681409    1.025323    1.039379
     20          6           0        2.746430    2.002425    1.393830
     21          1           0        0.853914    2.929791    0.930483
     22          1           0        0.423386    1.478892   -1.043085
     23          1           0        2.090921   -0.276515   -1.689579
     24          1           0        4.596632    0.875458    1.599134
     25          1           0        2.937270    2.634624    2.256356
     26          7           0        4.393887   -0.809877   -0.456731
     27          8           0        5.406527   -0.913949    0.232012
     28          8           0        4.132655   -1.499599   -1.439929
 ---------------------------------------------------------------------

 SCF Done:  E(RHF) =  -868.336827372     A.U. after   16 cycles
 E2 =    -0.2600821184D+01 EUMP2 =    -0.87093764855632D+03

 The electronic state is 1-A.
 Alpha  occ. eigenvalues --  -20.61348 -20.61343 -20.60072 -20.60055 -15.86394
 Alpha  occ. eigenvalues --  -15.85121 -11.31871 -11.30467 -11.28527 -11.28376
 Alpha  occ. eigenvalues --  -11.28140 -11.27495 -11.27409 -11.27094 -11.27034
 Alpha  occ. eigenvalues --  -11.26911 -11.26172 -11.26141  -1.60408  -1.59138
 Alpha  occ. eigenvalues --   -1.39965  -1.38692  -1.20033  -1.18671  -1.09395
 Alpha  occ. eigenvalues --   -1.08096  -1.05458  -1.04083  -0.96223  -0.94920
 Alpha  occ. eigenvalues --   -0.86847  -0.85513  -0.83061  -0.81761  -0.78117
 Alpha  occ. eigenvalues --   -0.76782  -0.72616  -0.71730  -0.71352  -0.71138
 Alpha  occ. eigenvalues --   -0.70450  -0.69835  -0.65683  -0.65471  -0.64351
 Alpha  occ. eigenvalues --   -0.64173  -0.62814  -0.61436  -0.55921  -0.54670
 Alpha  occ. eigenvalues --   -0.53768  -0.53558  -0.52389  -0.52214  -0.49382
 Alpha  occ. eigenvalues --   -0.49354  -0.48111  -0.48092  -0.45342  -0.44101
 Alpha  occ. eigenvalues --   -0.37992  -0.37067  -0.36683  -0.35608
 Alpha virt. eigenvalues --    0.04412   0.05786   0.10533   0.11994   0.15910
 Alpha virt. eigenvalues --    0.17228   0.19542   0.22040   0.25164   0.27143
 Alpha virt. eigenvalues --    0.28805   0.28965   0.30395   0.31051   0.32837

 Mulliken charges:
               1
     1  C   -0.170894
     2  C   -0.219222
     3  C   -0.175839
     4  C    0.159784
     5  C   -0.170376
     6  C   -0.217880
     7  H    0.227623
     8  H    0.223323
     9  H    0.270707
    10  H    0.278025
    11  H    0.225998
    12  N    0.488944
    13  O   -0.455951
    14  O   -0.463017
    15  C   -0.173079
    16  C   -0.207989
    17  C   -0.158298
    18  C    0.157327
    19  C   -0.170568
    20  C   -0.218580
    21  H    0.220209
    22  H    0.211310
    23  H    0.277712
    24  H    0.273934
    25  H    0.220373
    26  N    0.488576
    27  O   -0.463057
    28  O   -0.459096
 Sum of Mulliken charges =  -0.00000

 Dipole moment (field-independent basis, Debye):
    X=             -7.5211    Y=              6.7287    Z=              0.1667  Tot=             10.0931
 Quadrupole moment (field-independent basis, Debye-Ang):
   XX=           -101.7167   YY=           -107.1440   ZZ=           -100.6524
   XY=              5.6627   XZ=              8.3480   YZ=              0.3584

 Normal termination of Gaussian 16 at Thu May  6 16:22:53 2021.
