 Gaussian 16, Revision A.03,
 Gaussian 16:  EM64L-G16RevA.03 25-Dec-2016

 -------------
 #p 6-31g* mp2
 -------------

 ------------------------------------------------------
 Input file generated by CHIRIPA (05-May-2021 14:51:08)
 ------------------------------------------------------
 Symbolic Z-matrix:
 Charge =  0 Multiplicity = 1

                         Standard orientation:
 ---------------------------------------------------------------------
 Center     Atomic      Atomic             Coordinates (Angstroms)
 Number     Number       Type             X           Y           Z
 ---------------------------------------------------------------------
      1          6           0        2.634489    1.512236   -0.101923
      2          6           0        1.403210    2.039200    0.635806
      3          6           0        1.335289    3.566533    0.656709
      4          1           0        3.539272    1.914446    0.374038
      5          1           0        2.627260    1.894004   -1.132261
      6          1           0        1.412034    1.655430    1.664037
      7          1           0        0.501258    1.635537    0.158151
      8          1           0        1.301732    3.964643   -0.362596
      9          1           0        2.217683    3.984649    1.151846
     10          1           0        0.447384    3.921662    1.189032
     11          6           0        2.716439   -0.012935   -0.131340
     12          6           0        3.947719   -0.539899   -0.869070
     13          6           0        4.015639   -2.067231   -0.889973
     14          1           0        2.723668   -0.394702    0.898998
     15          1           0        1.811656   -0.415144   -0.607302
     16          1           0        4.849670   -0.136235   -0.391415
     17          1           0        3.938894   -0.156128   -1.897301
     18          1           0        3.133245   -2.485348   -1.385110
     19          1           0        4.049196   -2.465342    0.129332
     20          1           0        4.903544   -2.422360   -1.422296
     21          6           0       -3.328581   -0.664863   -0.270255
     22          6           0       -3.837380    0.776876   -0.292512
     23          6           0       -5.144789    0.930427   -1.070264
     24          1           0       -3.185788   -1.012556   -1.302565
     25          1           0       -4.098416   -1.311197    0.173594
     26          1           0       -3.066262    1.420513   -0.734921
     27          1           0       -3.978796    1.121243    0.739974
     28          1           0       -5.931851    0.312115   -0.626614
     29          1           0       -5.014131    0.613085   -2.109891
     30          1           0       -5.490453    1.968871   -1.073421
     31          6           0       -2.022347   -0.834438    0.503518
     32          6           0       -1.513548   -2.276178    0.525776
     33          6           0       -0.206139   -2.429729    1.303529
     34          1           0       -1.252512   -0.188105    0.059670
     35          1           0       -2.165141   -0.486745    1.535829
     36          1           0       -1.372131   -2.620544   -0.506711
     37          1           0       -2.284666   -2.919813    0.968185
     38          1           0       -0.336797   -2.112386    2.343155
     39          1           0        0.580922   -1.811416    0.859879
     40          1           0        0.139525   -3.468173    1.306685
 ---------------------------------------------------------------------

 SCF Done:  E(RHF) =  -470.732474089     A.U. after   11 cycles
 E2 =    -0.1584430758D+01 EUMP2 =    -0.47231690484723D+03

 The electronic state is 1-A.
 Alpha  occ. eigenvalues --  -11.21647 -11.21613 -11.21599 -11.21530 -11.21461
 Alpha  occ. eigenvalues --  -11.21398 -11.21375 -11.21308 -11.21093 -11.21084
 Alpha  occ. eigenvalues --  -11.21069 -11.20857  -1.08498  -1.08385  -1.03564
 Alpha  occ. eigenvalues --   -1.03476  -0.96027  -0.95912  -0.87052  -0.86922
 Alpha  occ. eigenvalues --   -0.79641  -0.79557  -0.78442  -0.78080  -0.65200
 Alpha  occ. eigenvalues --   -0.64953  -0.60963  -0.60889  -0.59394  -0.59291
 Alpha  occ. eigenvalues --   -0.57725  -0.57454  -0.55323  -0.55206  -0.52707
 Alpha  occ. eigenvalues --   -0.52611  -0.52568  -0.52228  -0.49992  -0.49862
 Alpha  occ. eigenvalues --   -0.47958  -0.47874  -0.46823  -0.46664  -0.46131
 Alpha  occ. eigenvalues --   -0.45778  -0.45682  -0.45029  -0.43820  -0.43734
 Alpha virt. eigenvalues --    0.20739   0.23230   0.23561   0.24123   0.25376
 Alpha virt. eigenvalues --    0.26285   0.27145   0.27839   0.28165   0.29889
 Alpha virt. eigenvalues --    0.31171   0.31379   0.31703   0.31776   0.32025

 Mulliken charges:
               1
     1  C   -0.297264
     2  C   -0.305464
     3  C   -0.475420
     4  H    0.149931
     5  H    0.149169
     6  H    0.152719
     7  H    0.156986
     8  H    0.154865
     9  H    0.155210
    10  H    0.160753
    11  C   -0.304102
    12  C   -0.298934
    13  C   -0.476486
    14  H    0.152736
    15  H    0.151688
    16  H    0.152234
    17  H    0.151778
    18  H    0.155343
    19  H    0.156078
    20  H    0.160507
    21  C   -0.297864
    22  C   -0.299633
    23  C   -0.475652
    24  H    0.149131
    25  H    0.149694
    26  H    0.151268
    27  H    0.152061
    28  H    0.155285
    29  H    0.155057
    30  H    0.160232
    31  C   -0.304772
    32  C   -0.298770
    33  C   -0.485382
    34  H    0.155140
    35  H    0.149792
    36  H    0.150535
    37  H    0.151528
    38  H    0.153670
    39  H    0.167209
    40  H    0.159143
 Sum of Mulliken charges =  -0.00000

 Dipole moment (field-independent basis, Debye):
    X=              0.0640    Y=              0.0338    Z=              0.0033  Tot=              0.0724
 Quadrupole moment (field-independent basis, Debye-Ang):
   XX=            -85.0742   YY=            -86.1653   ZZ=            -83.5801
   XY=              0.4798   XZ=             -0.4424   YZ=             -0.0307

 Normal termination of Gaussian 16 at Thu May  6 10:00:56 2021.
