 Gaussian 16, Revision A.03,
 Gaussian 16:  EM64L-G16RevA.03 25-Dec-2016

 -------------
 #p 6-31g* mp2
 -------------

 ------------------------------------------------------
 Input file generated by CHIRIPA (05-May-2021 14:57:27)
 ------------------------------------------------------
 Symbolic Z-matrix:
 Charge =  0 Multiplicity = 1

                         Standard orientation:
 ---------------------------------------------------------------------
 Center     Atomic      Atomic             Coordinates (Angstroms)
 Number     Number       Type             X           Y           Z
 ---------------------------------------------------------------------
      1          6           0        3.296340    1.942857   -1.181793
      2          6           0        3.338789    1.920018    0.216133
      3          6           0        2.876742    0.805448    0.922386
      4          6           0        2.376433   -0.273713    0.195479
      5          6           0        2.320951   -0.281037   -1.197417
      6          6           0        2.788451    0.844194   -1.882870
      7          1           0        3.657387    2.812823   -1.722349
      8          1           0        3.732693    2.771824    0.763226
      9          1           0        2.897967    0.761225    2.004519
     10          1           0        1.922720   -1.145231   -1.715102
     11          1           0        2.754265    0.859149   -2.968528
     12          7           0        1.884397   -1.459301    0.932148
     13          8           0        1.448325   -2.397318    0.268369
     14          8           0        1.944129   -1.428099    2.159379
     15          6           0       -2.899991    2.282553    1.071131
     16          6           0       -2.521010    1.166245    1.823961
     17          6           0       -2.273309   -0.060092    1.200032
     18          6           0       -2.414750   -0.134785   -0.184781
     19          6           0       -2.790833    0.959442   -0.962289
     20          6           0       -3.033457    2.175777   -0.317145
     21          1           0       -3.090439    3.231316    1.564054
     22          1           0       -2.416576    1.246238    2.902265
     23          1           0       -1.978588   -0.940163    1.758631
     24          1           0       -2.886688    0.848815   -2.035599
     25          1           0       -3.327639    3.041052   -0.904341
     26          7           0       -2.155208   -1.427758   -0.856536
     27          8           0       -2.286783   -1.467486   -2.077907
     28          8           0       -1.825116   -2.376981   -0.148968
 ---------------------------------------------------------------------

 SCF Done:  E(RHF) =  -868.336618907     A.U. after   16 cycles
 E2 =    -0.2601277217D+01 EUMP2 =    -0.87093789612370D+03

 The electronic state is 1-A.
 Alpha  occ. eigenvalues --  -20.60470 -20.60317 -20.60311 -20.60148 -15.85432
 Alpha  occ. eigenvalues --  -15.85269 -11.30981 -11.30859 -11.27611 -11.27502
 Alpha  occ. eigenvalues --  -11.27499 -11.27369 -11.27360 -11.27257 -11.26660
 Alpha  occ. eigenvalues --  -11.26588 -11.26559 -11.26475  -1.59472  -1.59303
 Alpha  occ. eigenvalues --   -1.39017  -1.38842  -1.19173  -1.19056  -1.08543
 Alpha  occ. eigenvalues --   -1.08419  -1.04594  -1.04480  -0.95343  -0.95207
 Alpha  occ. eigenvalues --   -0.85987  -0.85871  -0.82167  -0.82022  -0.77183
 Alpha  occ. eigenvalues --   -0.77037  -0.71683  -0.71458  -0.70931  -0.70504
 Alpha  occ. eigenvalues --   -0.70277  -0.70158  -0.64818  -0.64696  -0.64597
 Alpha  occ. eigenvalues --   -0.64482  -0.61929  -0.61809  -0.55102  -0.54991
 Alpha  occ. eigenvalues --   -0.52954  -0.52792  -0.52683  -0.52566  -0.48439
 Alpha  occ. eigenvalues --   -0.48405  -0.48277  -0.48227  -0.44654  -0.43878
 Alpha  occ. eigenvalues --   -0.37221  -0.37031  -0.36210  -0.36092
 Alpha virt. eigenvalues --    0.05278   0.05545   0.11433   0.11540   0.16725
 Alpha virt. eigenvalues --    0.17006   0.21559   0.21694   0.27481   0.27595
 Alpha virt. eigenvalues --    0.28455   0.28645   0.31038   0.31252   0.32786

 Mulliken charges:
               1
     1  C   -0.171784
     2  C   -0.218861
     3  C   -0.172015
     4  C    0.157478
     5  C   -0.173446
     6  C   -0.218891
     7  H    0.223926
     8  H    0.221000
     9  H    0.273039
    10  H    0.283259
    11  H    0.224498
    12  N    0.485145
    13  O   -0.444696
    14  O   -0.468641
    15  C   -0.172026
    16  C   -0.219021
    17  C   -0.174172
    18  C    0.156881
    19  C   -0.172364
    20  C   -0.218858
    21  H    0.223335
    22  H    0.224543
    23  H    0.285086
    24  H    0.273012
    25  H    0.220572
    26  N    0.485741
    27  O   -0.468862
    28  O   -0.443877
 Sum of Mulliken charges =  -0.00000

 Dipole moment (field-independent basis, Debye):
    X=              0.8206    Y=              8.3615    Z=             -0.2129  Tot=              8.4044
 Quadrupole moment (field-independent basis, Debye-Ang):
   XX=            -93.9302   YY=           -107.2119   ZZ=            -99.6146
   XY=             -1.2339   XZ=             -9.9241   YZ=              0.4445

 Normal termination of Gaussian 16 at Fri May  7 00:31:52 2021.
