 Gaussian 16, Revision A.03,
 Gaussian 16:  EM64L-G16RevA.03 25-Dec-2016

 -------------
 #p 6-31g* mp2
 -------------

 ------------------------------------------------------
 Input file generated by CHIRIPA (05-May-2021 14:51:10)
 ------------------------------------------------------
 Symbolic Z-matrix:
 Charge =  0 Multiplicity = 1

                         Standard orientation:
 ---------------------------------------------------------------------
 Center     Atomic      Atomic             Coordinates (Angstroms)
 Number     Number       Type             X           Y           Z
 ---------------------------------------------------------------------
      1          6           0        2.274508    1.075018   -0.230747
      2          6           0        2.859807    2.254589    0.546441
      3          6           0        2.213995    3.588678    0.171036
      4          1           0        2.400219    1.254820   -1.307228
      5          1           0        1.192422    1.024309   -0.046588
      6          1           0        3.940694    2.302222    0.361968
      7          1           0        2.732859    2.071869    1.621203
      8          1           0        1.137977    3.565772    0.371692
      9          1           0        2.352674    3.797434   -0.894698
     10          1           0        2.647327    4.418224    0.738430
     11          6           0        2.909955   -0.265595    0.133523
     12          6           0        2.324655   -1.445166   -0.643665
     13          6           0        2.970468   -2.779255   -0.268260
     14          1           0        3.992040   -0.214886   -0.050636
     15          1           0        2.784243   -0.445397    1.210004
     16          1           0        2.451603   -1.262446   -1.718427
     17          1           0        1.243768   -1.492799   -0.459192
     18          1           0        2.831788   -2.988011    0.797474
     19          1           0        4.046485   -2.756349   -0.468916
     20          1           0        2.537135   -3.608801   -0.835654
     21          6           0       -2.889052    0.235421    0.341118
     22          6           0       -3.220547    1.288597   -0.716672
     23          6           0       -3.813545    2.563493   -0.116017
     24          1           0       -3.800914   -0.011481    0.901915
     25          1           0       -2.182648    0.663401    1.065838
     26          1           0       -3.925047    0.858310   -1.439961
     27          1           0       -2.307830    1.532881   -1.275143
     28          1           0       -3.112299    3.018634    0.590880
     29          1           0       -4.738704    2.340230    0.425125
     30          1           0       -4.043051    3.302760   -0.889755
     31          6           0       -2.295410   -1.044844   -0.243893
     32          6           0       -1.963915   -2.098020    0.813895
     33          6           0       -1.370917   -3.372916    0.213241
     34          1           0       -3.001815   -1.472824   -0.968614
     35          1           0       -1.383549   -0.797942   -0.804690
     36          1           0       -2.876632   -2.342303    1.372367
     37          1           0       -1.259415   -1.667732    1.537186
     38          1           0       -0.445758   -3.149652   -0.327901
     39          1           0       -2.072163   -3.828056   -0.493656
     40          1           0       -1.141411   -4.112182    0.986979
 ---------------------------------------------------------------------

 SCF Done:  E(RHF) =  -470.733164771     A.U. after   11 cycles
 E2 =    -0.1583885492D+01 EUMP2 =    -0.47231705026311D+03

 The electronic state is 1-A.
 Alpha  occ. eigenvalues --  -11.21657 -11.21647 -11.21633 -11.21616 -11.21472
 Alpha  occ. eigenvalues --  -11.21435 -11.21411 -11.21375 -11.21119 -11.21105
 Alpha  occ. eigenvalues --  -11.21085 -11.21047  -1.08507  -1.08444  -1.03612
 Alpha  occ. eigenvalues --   -1.03524  -0.96052  -0.95975  -0.87049  -0.87007
 Alpha  occ. eigenvalues --   -0.79679  -0.79587  -0.78356  -0.78225  -0.65328
 Alpha  occ. eigenvalues --   -0.64914  -0.61235  -0.60729  -0.59420  -0.59336
 Alpha  occ. eigenvalues --   -0.57706  -0.57552  -0.55452  -0.55136  -0.52726
 Alpha  occ. eigenvalues --   -0.52681  -0.52469  -0.52400  -0.49971  -0.49937
 Alpha  occ. eigenvalues --   -0.48060  -0.47865  -0.46835  -0.46531  -0.46084
 Alpha  occ. eigenvalues --   -0.45813  -0.45764  -0.45386  -0.43843  -0.43798
 Alpha virt. eigenvalues --    0.19378   0.22293   0.23732   0.25063   0.25603
 Alpha virt. eigenvalues --    0.26454   0.26823   0.27475   0.28897   0.30164
 Alpha virt. eigenvalues --    0.30489   0.31165   0.31558   0.31860   0.32196

 Mulliken charges:
               1
     1  C   -0.299792
     2  C   -0.299716
     3  C   -0.475664
     4  H    0.149920
     5  H    0.149634
     6  H    0.152329
     7  H    0.152009
     8  H    0.154819
     9  H    0.155373
    10  H    0.160574
    11  C   -0.297538
    12  C   -0.309305
    13  C   -0.475964
    14  H    0.149958
    15  H    0.149612
    16  H    0.152132
    17  H    0.159829
    18  H    0.155712
    19  H    0.155489
    20  H    0.161063
    21  C   -0.298149
    22  C   -0.300181
    23  C   -0.475593
    24  H    0.149889
    25  H    0.148807
    26  H    0.152106
    27  H    0.152632
    28  H    0.154839
    29  H    0.155210
    30  H    0.160542
    31  C   -0.302848
    32  C   -0.299561
    33  C   -0.481853
    34  H    0.149995
    35  H    0.152989
    36  H    0.152416
    37  H    0.151006
    38  H    0.161710
    39  H    0.155222
    40  H    0.160349
 Sum of Mulliken charges =  -0.00000

 Dipole moment (field-independent basis, Debye):
    X=              0.0183    Y=             -0.0060    Z=             -0.0156  Tot=              0.0248
 Quadrupole moment (field-independent basis, Debye-Ang):
   XX=            -83.6240   YY=            -86.6171   ZZ=            -84.3446
   XY=              1.2618   XZ=             -0.3373   YZ=             -0.1621

 Normal termination of Gaussian 16 at Wed May  5 16:40:16 2021.
