 Gaussian 16, Revision A.03,
 Gaussian 16:  EM64L-G16RevA.03 25-Dec-2016

 -------------
 #p 6-31g* mp2
 -------------

 ------------------------------------------------------
 Input file generated by CHIRIPA (05-May-2021 14:53:13)
 ------------------------------------------------------
 Symbolic Z-matrix:
 Charge =  0 Multiplicity = 1

                         Standard orientation:
 ---------------------------------------------------------------------
 Center     Atomic      Atomic             Coordinates (Angstroms)
 Number     Number       Type             X           Y           Z
 ---------------------------------------------------------------------
      1          6           0       -3.035127    1.012939    0.468690
      2          6           0       -2.532304    2.276132   -0.230950
      3          6           0       -1.639658    3.133559    0.666711
      4          1           0       -3.588826    1.298383    1.373612
      5          1           0       -2.172916    0.419929    0.803842
      6          1           0       -3.395202    2.865904   -0.565904
      7          1           0       -1.979901    1.987655   -1.134414
      8          1           0       -0.760857    2.566598    0.990540
      9          1           0       -2.184199    3.449837    1.562281
     10          1           0       -1.291422    4.031399    0.146638
     11          6           0       -3.928789    0.145412   -0.415896
     12          6           0       -4.431612   -1.117782    0.283744
     13          6           0       -5.324258   -1.975209   -0.613918
     14          1           0       -4.791000    0.738422   -0.751048
     15          1           0       -3.375089   -0.140033   -1.320818
     16          1           0       -4.984015   -0.829305    1.187208
     17          1           0       -3.568714   -1.707553    0.618698
     18          1           0       -4.779717   -2.291486   -1.509487
     19          1           0       -6.203059   -1.408248   -0.937746
     20          1           0       -5.672494   -2.873048   -0.093845
     21          6           0        4.744176    1.017509   -0.350617
     22          6           0        3.459757    1.551027   -0.499435
     23          6           0        2.331182    0.745856   -0.318972
     24          6           0        2.524617   -0.594594    0.011280
     25          6           0        3.791333   -1.155501    0.166535
     26          6           0        4.905580   -0.331674   -0.018693
     27          1           0        5.615314    1.650232   -0.492656
     28          1           0        3.331391    2.598472   -0.757171
     29          1           0        1.325373    1.132991   -0.428020
     30          1           0        3.887500   -2.203325    0.423899
     31          1           0        5.901875   -0.748726    0.097528
     32          7           0        1.337430   -1.456868    0.204850
     33          8           0        1.534688   -2.634701    0.495431
     34          8           0        0.232134   -0.938559    0.062325
 ---------------------------------------------------------------------

 SCF Done:  E(RHF) =  -669.536403521     A.U. after   15 cycles
 E2 =    -0.2091612266D+01 EUMP2 =    -0.67162801578660D+03

 The electronic state is 1-A.
 Alpha  occ. eigenvalues --  -20.61006 -20.60988 -15.86038 -11.31316 -11.27874
 Alpha  occ. eigenvalues --  -11.27868 -11.27604 -11.26876 -11.26863 -11.21063
 Alpha  occ. eigenvalues --  -11.20876 -11.20539 -11.20393 -11.20301 -11.20186
 Alpha  occ. eigenvalues --   -1.60062  -1.39620  -1.19481  -1.08893  -1.07537
 Alpha  occ. eigenvalues --   -1.04871  -1.02797  -0.95742  -0.95254  -0.86299
 Alpha  occ. eigenvalues --   -0.86263  -0.82579  -0.78858  -0.77647  -0.77297
 Alpha  occ. eigenvalues --   -0.72271  -0.71373  -0.70591  -0.65144  -0.64876
 Alpha  occ. eigenvalues --   -0.64123  -0.62223  -0.60188  -0.58659  -0.56857
 Alpha  occ. eigenvalues --   -0.55380  -0.54535  -0.53205  -0.52957  -0.52020
 Alpha  occ. eigenvalues --   -0.51696  -0.49229  -0.49019  -0.48993  -0.47182
 Alpha  occ. eigenvalues --   -0.45861  -0.45108  -0.44885  -0.44603  -0.42989
 Alpha  occ. eigenvalues --   -0.37458  -0.36469
 Alpha virt. eigenvalues --    0.04868   0.11165   0.16373   0.20186   0.23033
 Alpha virt. eigenvalues --    0.24572   0.26867   0.27485   0.28155   0.28764
 Alpha virt. eigenvalues --    0.29260   0.30643   0.31499   0.32125   0.32646

 Mulliken charges:
               1
     1  C   -0.308242
     2  C   -0.298069
     3  C   -0.478385
     4  H    0.143857
     5  H    0.176032
     6  H    0.149308
     7  H    0.149812
     8  H    0.152594
     9  H    0.156936
    10  H    0.153784
    11  C   -0.296310
    12  C   -0.302228
    13  C   -0.475324
    14  H    0.143152
    15  H    0.152696
    16  H    0.147454
    17  H    0.164725
    18  H    0.155957
    19  H    0.151009
    20  H    0.158471
    21  C   -0.170404
    22  C   -0.219266
    23  C   -0.174499
    24  C    0.157442
    25  C   -0.170402
    26  C   -0.218648
    27  H    0.226155
    28  H    0.224606
    29  H    0.280411
    30  H    0.275798
    31  H    0.223896
    32  N    0.493837
    33  O   -0.458550
    34  O   -0.467604
 Sum of Mulliken charges =  -0.00000

 Dipole moment (field-independent basis, Debye):
    X=              4.4160    Y=              2.8352    Z=             -0.6421  Tot=              5.2869
 Quadrupole moment (field-independent basis, Debye-Ang):
   XX=            -72.7828   YY=            -96.3945   ZZ=            -95.6890
   XY=              2.0669   XZ=             -1.8014   YZ=             -0.7482

 Normal termination of Gaussian 16 at Thu May  6 20:17:13 2021.
