 Gaussian 16, Revision A.03,
 Gaussian 16:  EM64L-G16RevA.03 25-Dec-2016

 -------------
 #p 6-31g* mp2
 -------------

 ------------------------------------------------------
 Input file generated by CHIRIPA (05-May-2021 14:53:13)
 ------------------------------------------------------
 Symbolic Z-matrix:
 Charge =  0 Multiplicity = 1

                         Standard orientation:
 ---------------------------------------------------------------------
 Center     Atomic      Atomic             Coordinates (Angstroms)
 Number     Number       Type             X           Y           Z
 ---------------------------------------------------------------------
      1          6           0       -1.981492    1.199425   -0.362182
      2          6           0       -1.856945    2.613261    0.206624
      3          6           0       -0.529173    3.280475   -0.153433
      4          1           0       -1.148887    0.586750    0.009762
      5          1           0       -1.875313    1.240722   -1.455075
      6          1           0       -1.964710    2.569481    1.297993
      7          1           0       -2.690051    3.222590   -0.166565
      8          1           0       -0.416893    3.353474   -1.240017
      9          1           0        0.312569    2.696654    0.232862
     10          1           0       -0.461292    4.290243    0.263247
     11          6           0       -3.303484    0.519312   -0.010740
     12          6           0       -3.428032   -0.894524   -0.579546
     13          6           0       -4.755804   -1.561738   -0.219489
     14          1           0       -3.409664    0.478015    1.082153
     15          1           0       -4.136090    1.131988   -0.382684
     16          1           0       -2.594926   -1.503853   -0.206358
     17          1           0       -3.320267   -0.850744   -1.670915
     18          1           0       -5.597546   -0.977917   -0.605784
     19          1           0       -4.868084   -1.634736    0.867095
     20          1           0       -4.823685   -2.571505   -0.636169
     21          6           0        3.775849    1.124922   -0.312923
     22          6           0        3.821359   -0.081846   -1.018729
     23          6           0        2.878251   -1.084170   -0.772882
     24          6           0        1.898992   -0.845042    0.190008
     25          6           0        1.827298    0.346675    0.909703
     26          6           0        2.780719    1.334960    0.647347
     27          1           0        4.512483    1.898098   -0.510316
     28          1           0        4.593060   -0.247727   -1.765056
     29          1           0        2.890233   -2.027777   -1.304749
     30          1           0        1.046124    0.482931    1.647687
     31          1           0        2.742937    2.271170    1.197010
     32          7           0        0.895107   -1.898727    0.459014
     33          8           0        0.042428   -1.663484    1.312381
     34          8           0        0.979950   -2.939896   -0.188601
 ---------------------------------------------------------------------

 SCF Done:  E(RHF) =  -669.535059680     A.U. after   15 cycles
 E2 =    -0.2095406747D+01 EUMP2 =    -0.67163046642727D+03

 The electronic state is 1-A.
 Alpha  occ. eigenvalues --  -20.61101 -20.61086 -15.86088 -11.31359 -11.27916
 Alpha  occ. eigenvalues --  -11.27908 -11.27630 -11.26903 -11.26887 -11.21464
 Alpha  occ. eigenvalues --  -11.21168 -11.20885 -11.20671 -11.20537 -11.20184
 Alpha  occ. eigenvalues --   -1.60133  -1.39694  -1.19531  -1.08936  -1.07886
 Alpha  occ. eigenvalues --   -1.04932  -1.03018  -0.95790  -0.95512  -0.86559
 Alpha  occ. eigenvalues --   -0.86307  -0.82634  -0.79143  -0.77779  -0.77543
 Alpha  occ. eigenvalues --   -0.72318  -0.71439  -0.70637  -0.65193  -0.64930
 Alpha  occ. eigenvalues --   -0.64516  -0.62288  -0.60402  -0.58938  -0.57098
 Alpha  occ. eigenvalues --   -0.55415  -0.54861  -0.53263  -0.53012  -0.52233
 Alpha  occ. eigenvalues --   -0.51917  -0.49525  -0.49075  -0.49062  -0.47422
 Alpha  occ. eigenvalues --   -0.46169  -0.45608  -0.45148  -0.44476  -0.43249
 Alpha  occ. eigenvalues --   -0.37486  -0.36403
 Alpha virt. eigenvalues --    0.04774   0.11019   0.16130   0.20706   0.23368
 Alpha virt. eigenvalues --    0.24798   0.26701   0.27197   0.27975   0.28411
 Alpha virt. eigenvalues --    0.29178   0.30903   0.31813   0.32003   0.32779

 Mulliken charges:
               1
     1  C   -0.305504
     2  C   -0.299620
     3  C   -0.480477
     4  H    0.156081
     5  H    0.146589
     6  H    0.149891
     7  H    0.152357
     8  H    0.156092
     9  H    0.150865
    10  H    0.156396
    11  C   -0.295067
    12  C   -0.308289
    13  C   -0.475143
    14  H    0.151106
    15  H    0.145061
    16  H    0.173986
    17  H    0.146310
    18  H    0.149881
    19  H    0.156070
    20  H    0.160632
    21  C   -0.171097
    22  C   -0.218489
    23  C   -0.170725
    24  C    0.159608
    25  C   -0.170751
    26  C   -0.217186
    27  H    0.226719
    28  H    0.224190
    29  H    0.276036
    30  H    0.276443
    31  H    0.225900
    32  N    0.488614
    33  O   -0.459467
    34  O   -0.457013
 Sum of Mulliken charges =  -0.00000

 Dipole moment (field-independent basis, Debye):
    X=              3.7711    Y=              3.4478    Z=             -0.9064  Tot=              5.1895
 Quadrupole moment (field-independent basis, Debye-Ang):
   XX=            -81.8265   YY=           -100.3708   ZZ=            -92.5827
   XY=              2.3389   XZ=             -2.6829   YZ=              3.5841

 Normal termination of Gaussian 16 at Thu May  6 07:22:44 2021.
