 Gaussian 16, Revision A.03,
 Gaussian 16:  EM64L-G16RevA.03 25-Dec-2016

 -------------
 #p 6-31g* mp2
 -------------

 ------------------------------------------------------
 Input file generated by CHIRIPA (05-May-2021 14:57:21)
 ------------------------------------------------------
 Symbolic Z-matrix:
 Charge =  0 Multiplicity = 1

                         Standard orientation:
 ---------------------------------------------------------------------
 Center     Atomic      Atomic             Coordinates (Angstroms)
 Number     Number       Type             X           Y           Z
 ---------------------------------------------------------------------
      1          6           0       -6.133550    0.391301   -0.999027
      2          6           0       -5.909390   -0.788796   -0.282336
      3          6           0       -4.702082   -0.990876    0.393029
      4          6           0       -3.736481    0.012598    0.330233
      5          6           0       -3.929997    1.199197   -0.375335
      6          6           0       -5.144881    1.379788   -1.043161
      7          1           0       -7.074359    0.539935   -1.520738
      8          1           0       -6.675406   -1.558190   -0.246320
      9          1           0       -4.502233   -1.894904    0.955356
     10          1           0       -3.147455    1.948020   -0.392892
     11          1           0       -5.316209    2.297269   -1.598966
     12          7           0       -2.454347   -0.189961    1.041221
     13          8           0       -1.619642    0.709422    0.970409
     14          8           0       -2.308394   -1.244273    1.655842
     15          6           0        6.364795    0.523934    0.233277
     16          6           0        5.356973    1.431891    0.574496
     17          6           0        4.014405    1.126672    0.331799
     18          6           0        3.714125   -0.101080   -0.256203
     19          6           0        4.695592   -1.026603   -0.607513
     20          6           0        6.031476   -0.700255   -0.355600
     21          1           0        7.405138    0.769243    0.425390
     22          1           0        5.612891    2.383359    1.031945
     23          1           0        3.214196    1.811138    0.585948
     24          1           0        4.409476   -1.967216   -1.062266
     25          1           0        6.812069   -1.407319   -0.621645
     26          7           0        2.296346   -0.435385   -0.518014
     27          8           0        2.057975   -1.523668   -1.037105
     28          8           0        1.450309    0.397201   -0.199174
 ---------------------------------------------------------------------

 SCF Done:  E(RHF) =  -868.335539988     A.U. after   16 cycles
 E2 =    -0.2600249444D+01 EUMP2 =    -0.87093578943204D+03

 The electronic state is 1-A.
 Alpha  occ. eigenvalues --  -20.59752 -20.59650 -20.59561 -20.59451 -15.84755
 Alpha  occ. eigenvalues --  -15.84564 -11.30428 -11.30271 -11.27053 -11.27016
 Alpha  occ. eigenvalues --  -11.26893 -11.26873 -11.26856 -11.26715 -11.26138
 Alpha  occ. eigenvalues --  -11.26118 -11.25995 -11.25983  -1.58778  -1.58564
 Alpha  occ. eigenvalues --   -1.38322  -1.38112  -1.18636  -1.18480  -1.07979
 Alpha  occ. eigenvalues --   -1.07815  -1.04085  -1.03939  -0.94762  -0.94587
 Alpha  occ. eigenvalues --   -0.85469  -0.85322  -0.81597  -0.81416  -0.76585
 Alpha  occ. eigenvalues --   -0.76411  -0.71062  -0.70687  -0.70116  -0.69875
 Alpha  occ. eigenvalues --   -0.69747  -0.69600  -0.64283  -0.64130  -0.64095
 Alpha  occ. eigenvalues --   -0.63956  -0.61428  -0.61285  -0.54589  -0.54446
 Alpha  occ. eigenvalues --   -0.52399  -0.52246  -0.52184  -0.52044  -0.47842
 Alpha  occ. eigenvalues --   -0.47732  -0.47541  -0.47449  -0.43670  -0.43390
 Alpha  occ. eigenvalues --   -0.36640  -0.36483  -0.35703  -0.35557
 Alpha virt. eigenvalues --    0.05953   0.06157   0.11947   0.12094   0.17385
 Alpha virt. eigenvalues --    0.17573   0.22029   0.22150   0.27917   0.28032
 Alpha virt. eigenvalues --    0.28956   0.29083   0.31554   0.31667   0.33233

 Mulliken charges:
               1
     1  C   -0.172016
     2  C   -0.218610
     3  C   -0.171094
     4  C    0.160583
     5  C   -0.170215
     6  C   -0.218692
     7  H    0.222290
     8  H    0.220552
     9  H    0.274618
    10  H    0.276369
    11  H    0.220505
    12  N    0.488895
    13  O   -0.448425
    14  O   -0.464567
    15  C   -0.171873
    16  C   -0.218724
    17  C   -0.171007
    18  C    0.159281
    19  C   -0.171443
    20  C   -0.218654
    21  H    0.222897
    22  H    0.221392
    23  H    0.277921
    24  H    0.274417
    25  H    0.220910
    26  N    0.487591
    27  O   -0.465714
    28  O   -0.447188
 Sum of Mulliken charges =  -0.00000

 Dipole moment (field-independent basis, Debye):
    X=              0.5039    Y=              1.9955    Z=             -1.5109  Tot=              2.5532
 Quadrupole moment (field-independent basis, Debye-Ang):
   XX=            -37.2990   YY=            -97.6758   ZZ=           -107.4698
   XY=              1.4781   XZ=              9.1084   YZ=              0.1718

 Normal termination of Gaussian 16 at Thu May  6 04:54:22 2021.
