 Gaussian 16, Revision A.03,
 Gaussian 16:  EM64L-G16RevA.03 25-Dec-2016

 -------------
 #p 6-31g* mp2
 -------------

 ------------------------------------------------------
 Input file generated by CHIRIPA (05-May-2021 14:53:15)
 ------------------------------------------------------
 Symbolic Z-matrix:
 Charge =  0 Multiplicity = 1

                         Standard orientation:
 ---------------------------------------------------------------------
 Center     Atomic      Atomic             Coordinates (Angstroms)
 Number     Number       Type             X           Y           Z
 ---------------------------------------------------------------------
      1          6           0        2.978368    0.591470   -0.414036
      2          6           0        2.934403    1.804488    0.515824
      3          6           0        3.418287    3.086768   -0.161973
      4          1           0        4.006385    0.451472   -0.775320
      5          1           0        2.360708    0.794652   -1.299817
      6          1           0        3.550851    1.598536    1.400240
      7          1           0        1.906408    1.941499    0.875088
      8          1           0        2.797973    3.319500   -1.033550
      9          1           0        4.451759    2.974589   -0.505414
     10          1           0        3.378508    3.941324    0.520678
     11          6           0        2.497635   -0.698008    0.249192
     12          6           0        2.541600   -1.911026   -0.680668
     13          6           0        2.057715   -3.193306   -0.002872
     14          1           0        3.115295   -0.901190    1.134973
     15          1           0        1.469618   -0.558011    0.610476
     16          1           0        3.569594   -2.048037   -1.039932
     17          1           0        1.925152   -1.705075   -1.565084
     18          1           0        1.024243   -3.081127    0.340570
     19          1           0        2.678029   -3.426038    0.868706
     20          1           0        2.097494   -4.047862   -0.685522
     21          6           0       -2.598689    2.510441   -0.179684
     22          6           0       -2.169997    1.996289    1.048482
     23          6           0       -1.912340    0.630043    1.195220
     24          6           0       -2.094629   -0.197060    0.087989
     25          6           0       -2.520658    0.285066   -1.148677
     26          6           0       -2.772346    1.654697   -1.272417
     27          1           0       -2.796524    3.573088   -0.284741
     28          1           0       -2.034275    2.658513    1.898826
     29          1           0       -1.579501    0.205412    2.134542
     30          1           0       -2.646918   -0.399920   -1.978299
     31          1           0       -3.105174    2.051207   -2.227431
     32          7           0       -1.825019   -1.645236    0.231160
     33          8           0       -1.993242   -2.352937   -0.759546
     34          8           0       -1.450581   -2.045194    1.331372
 ---------------------------------------------------------------------

 SCF Done:  E(RHF) =  -669.536789014     A.U. after   15 cycles
 E2 =    -0.2092911778D+01 EUMP2 =    -0.67162970079208D+03

 The electronic state is 1-A.
 Alpha  occ. eigenvalues --  -20.61075 -20.61064 -15.86073 -11.31385 -11.27942
 Alpha  occ. eigenvalues --  -11.27931 -11.27662 -11.26936 -11.26924 -11.21560
 Alpha  occ. eigenvalues --  -11.21146 -11.21140 -11.20904 -11.20829 -11.19780
 Alpha  occ. eigenvalues --   -1.60117  -1.39671  -1.19544  -1.08949  -1.08054
 Alpha  occ. eigenvalues --   -1.04932  -1.03061  -0.95794  -0.95483  -0.86499
 Alpha  occ. eigenvalues --   -0.86331  -0.82626  -0.79176  -0.77814  -0.77680
 Alpha  occ. eigenvalues --   -0.72285  -0.71443  -0.70642  -0.65195  -0.64928
 Alpha  occ. eigenvalues --   -0.64691  -0.62275  -0.60454  -0.58945  -0.57083
 Alpha  occ. eigenvalues --   -0.55435  -0.54773  -0.53257  -0.53018  -0.52176
 Alpha  occ. eigenvalues --   -0.51902  -0.49519  -0.49055  -0.48966  -0.47449
 Alpha  occ. eigenvalues --   -0.46227  -0.45515  -0.45313  -0.44799  -0.43327
 Alpha  occ. eigenvalues --   -0.37508  -0.36523
 Alpha virt. eigenvalues --    0.04791   0.11072   0.16271   0.21225   0.23000
 Alpha virt. eigenvalues --    0.24730   0.26524   0.27235   0.27709   0.28322
 Alpha virt. eigenvalues --    0.28654   0.30723   0.31927   0.31957   0.32360

 Mulliken charges:
               1
     1  C   -0.297190
     2  C   -0.298849
     3  C   -0.475132
     4  H    0.149484
     5  H    0.147324
     6  H    0.152192
     7  H    0.147656
     8  H    0.153139
     9  H    0.156341
    10  H    0.157391
    11  C   -0.298591
    12  C   -0.300339
    13  C   -0.484411
    14  H    0.149320
    15  H    0.147183
    16  H    0.148022
    17  H    0.150184
    18  H    0.179816
    19  H    0.149796
    20  H    0.158202
    21  C   -0.170275
    22  C   -0.218801
    23  C   -0.171616
    24  C    0.159466
    25  C   -0.170971
    26  C   -0.218603
    27  H    0.226613
    28  H    0.224679
    29  H    0.276903
    30  H    0.276162
    31  H    0.224270
    32  N    0.487734
    33  O   -0.457974
    34  O   -0.459124
 Sum of Mulliken charges =  -0.00000

 Dipole moment (field-independent basis, Debye):
    X=             -1.2102    Y=              5.0230    Z=             -0.4817  Tot=              5.1891
 Quadrupole moment (field-independent basis, Debye-Ang):
   XX=            -90.7538   YY=            -98.2230   ZZ=            -90.3485
   XY=            -10.9825   XZ=              2.8850   YZ=              1.5312

 Normal termination of Gaussian 16 at Thu May  6 01:06:17 2021.
