 Gaussian 16, Revision A.03,
 Gaussian 16:  EM64L-G16RevA.03 25-Dec-2016

 -------------
 #p 6-31g* mp2
 -------------

 ------------------------------------------------------
 Input file generated by CHIRIPA (05-May-2021 14:53:15)
 ------------------------------------------------------
 Symbolic Z-matrix:
 Charge =  0 Multiplicity = 1

                         Standard orientation:
 ---------------------------------------------------------------------
 Center     Atomic      Atomic             Coordinates (Angstroms)
 Number     Number       Type             X           Y           Z
 ---------------------------------------------------------------------
      1          6           0        2.858361   -0.524510    0.081604
      2          6           0        3.516403   -1.797349    0.615313
      3          6           0        2.550765   -2.981263    0.676016
      4          1           0        2.000890   -0.267841    0.718636
      5          1           0        2.454814   -0.721515   -0.921259
      6          1           0        3.919806   -1.597609    1.616306
      7          1           0        4.372523   -2.050910   -0.022952
      8          1           0        2.157195   -3.208840   -0.319932
      9          1           0        1.701906   -2.752963    1.328640
     10          1           0        3.041932   -3.880646    1.060368
     11          6           0        3.811040    0.667838    0.014990
     12          6           0        3.152998    1.940677   -0.518719
     13          6           0        4.118636    3.124591   -0.579423
     14          1           0        4.214587    0.864842    1.017853
     15          1           0        4.668511    0.411169   -0.622043
     16          1           0        2.296878    2.194238    0.119545
     17          1           0        2.749595    1.740937   -1.519712
     18          1           0        4.967496    2.896291   -1.232046
     19          1           0        4.512206    3.352167    0.416525
     20          1           0        3.627469    4.023974   -0.963774
     21          6           0       -3.986684    1.964201    0.575749
     22          6           0       -4.596658    0.851623   -0.012999
     23          6           0       -3.841060   -0.273204   -0.357067
     24          6           0       -2.471682   -0.251291   -0.097041
     25          6           0       -1.834892    0.841936    0.488317
     26          6           0       -2.610175    1.955821    0.824090
     27          1           0       -4.581297    2.833744    0.839807
     28          1           0       -5.665481    0.855333   -0.207029
     29          1           0       -4.287641   -1.147990   -0.813938
     30          1           0       -0.767417    0.808746    0.669458
     31          1           0       -2.133774    2.818452    1.281206
     32          7           0       -1.661343   -1.436304   -0.456900
     33          8           0       -0.456625   -1.392101   -0.217451
     34          8           0       -2.246264   -2.386882   -0.971591
 ---------------------------------------------------------------------

 SCF Done:  E(RHF) =  -669.535310640     A.U. after   15 cycles
 E2 =    -0.2092657826D+01 EUMP2 =    -0.67162796846575D+03

 The electronic state is 1-A.
 Alpha  occ. eigenvalues --  -20.60903 -20.60896 -15.85930 -11.31268 -11.27835
 Alpha  occ. eigenvalues --  -11.27831 -11.27574 -11.26844 -11.26834 -11.21353
 Alpha  occ. eigenvalues --  -11.20906 -11.20762 -11.20495 -11.20262 -11.19475
 Alpha  occ. eigenvalues --   -1.59971  -1.39527  -1.19439  -1.08843  -1.07667
 Alpha  occ. eigenvalues --   -1.04837  -1.02731  -0.95684  -0.95143  -0.86238
 Alpha  occ. eigenvalues --   -0.86153  -0.82530  -0.78890  -0.77730  -0.77192
 Alpha  occ. eigenvalues --   -0.72140  -0.71284  -0.70548  -0.65096  -0.64845
 Alpha  occ. eigenvalues --   -0.64321  -0.62185  -0.60148  -0.58606  -0.56734
 Alpha  occ. eigenvalues --   -0.55341  -0.54426  -0.53169  -0.52930  -0.51899
 Alpha  occ. eigenvalues --   -0.51552  -0.49100  -0.48939  -0.48874  -0.47123
 Alpha  occ. eigenvalues --   -0.45964  -0.45059  -0.44836  -0.44630  -0.42977
 Alpha  occ. eigenvalues --   -0.37419  -0.36438
 Alpha virt. eigenvalues --    0.04938   0.11215   0.16416   0.20400   0.23106
 Alpha virt. eigenvalues --    0.24934   0.25231   0.27616   0.27764   0.28868
 Alpha virt. eigenvalues --    0.29442   0.31279   0.32177   0.32233   0.32886

 Mulliken charges:
               1
     1  C   -0.295746
     2  C   -0.301357
     3  C   -0.470473
     4  H    0.151584
     5  H    0.158009
     6  H    0.144679
     7  H    0.146983
     8  H    0.165595
     9  H    0.161341
    10  H    0.149653
    11  C   -0.298456
    12  C   -0.296787
    13  C   -0.474956
    14  H    0.145580
    15  H    0.148509
    16  H    0.141125
    17  H    0.153561
    18  H    0.156455
    19  H    0.153964
    20  H    0.156798
    21  C   -0.170373
    22  C   -0.218803
    23  C   -0.170265
    24  C    0.156343
    25  C   -0.172055
    26  C   -0.219720
    27  H    0.225926
    28  H    0.223705
    29  H    0.275755
    30  H    0.279353
    31  H    0.224025
    32  N    0.494321
    33  O   -0.464752
    34  O   -0.459524
 Sum of Mulliken charges =  -0.00000

 Dipole moment (field-independent basis, Debye):
    X=             -3.1275    Y=              4.0303    Z=              1.1560  Tot=              5.2307
 Quadrupole moment (field-independent basis, Debye-Ang):
   XX=            -78.6973   YY=            -97.5705   ZZ=            -94.3820
   XY=             -8.3313   XZ=             -1.8504   YZ=              0.8343

 Normal termination of Gaussian 16 at Thu May  6 12:09:32 2021.
