 Gaussian 16, Revision A.03,
 Gaussian 16:  EM64L-G16RevA.03 25-Dec-2016

 -------------
 #p 6-31g* mp2
 -------------

 ------------------------------------------------------
 Input file generated by CHIRIPA (05-May-2021 14:57:24)
 ------------------------------------------------------
 Symbolic Z-matrix:
 Charge =  0 Multiplicity = 1

                         Standard orientation:
 ---------------------------------------------------------------------
 Center     Atomic      Atomic             Coordinates (Angstroms)
 Number     Number       Type             X           Y           Z
 ---------------------------------------------------------------------
      1          6           0        2.770772   -1.311288   -2.168646
      2          6           0        3.517309   -0.147859   -1.955016
      3          6           0        3.504588    0.485040   -0.708491
      4          6           0        2.730755   -0.075303    0.306637
      5          6           0        1.976272   -1.233315    0.124828
      6          6           0        2.003988   -1.849354   -1.129874
      7          1           0        2.786479   -1.796391   -3.140153
      8          1           0        4.113716    0.272253   -2.759907
      9          1           0        4.073099    1.386735   -0.515722
     10          1           0        1.391360   -1.628466    0.946504
     11          1           0        1.423230   -2.752783   -1.292911
     12          7           0        2.709350    0.585794    1.630606
     13          8           0        2.019483    0.072174    2.508623
     14          8           0        3.382846    1.605065    1.765245
     15          6           0       -3.427810   -2.094255    0.744224
     16          6           0       -4.399739   -1.147548    0.404192
     17          6           0       -4.027003    0.118060   -0.058250
     18          6           0       -2.667235    0.404538   -0.168930
     19          6           0       -1.675247   -0.517290    0.161953
     20          6           0       -2.071058   -1.776664    0.622234
     21          1           0       -3.726323   -3.074988    1.102621
     22          1           0       -5.454151   -1.391423    0.497927
     23          1           0       -4.758587    0.869850   -0.328463
     24          1           0       -0.631957   -0.245000    0.057928
     25          1           0       -1.314060   -2.509909    0.885577
     26          7           0       -2.260422    1.741081   -0.657353
     27          8           0       -1.055880    1.968830   -0.745924
     28          8           0       -3.153807    2.535607   -0.942360
 ---------------------------------------------------------------------

 SCF Done:  E(RHF) =  -868.336463515     A.U. after   16 cycles
 E2 =    -0.2602192096D+01 EUMP2 =    -0.87093865561113D+03

 The electronic state is 1-A.
 Alpha  occ. eigenvalues --  -20.60872 -20.60833 -20.60718 -20.60709 -15.85914
 Alpha  occ. eigenvalues --  -15.85771 -11.31438 -11.31165 -11.28108 -11.27884
 Alpha  occ. eigenvalues --  -11.27779 -11.27721 -11.27695 -11.27578 -11.27136
 Alpha  occ. eigenvalues --  -11.26941 -11.26884 -11.26789  -1.59918  -1.59787
 Alpha  occ. eigenvalues --   -1.39474  -1.39340  -1.19597  -1.19374  -1.08939
 Alpha  occ. eigenvalues --   -1.08769  -1.05076  -1.04779  -0.95776  -0.95584
 Alpha  occ. eigenvalues --   -0.86430  -0.86194  -0.82631  -0.82425  -0.77709
 Alpha  occ. eigenvalues --   -0.77422  -0.72136  -0.71998  -0.71235  -0.71106
 Alpha  occ. eigenvalues --   -0.70766  -0.70432  -0.65255  -0.65092  -0.64999
 Alpha  occ. eigenvalues --   -0.64843  -0.62588  -0.61977  -0.55494  -0.55317
 Alpha  occ. eigenvalues --   -0.53431  -0.53162  -0.53073  -0.52769  -0.48907
 Alpha  occ. eigenvalues --   -0.48875  -0.48756  -0.48740  -0.44848  -0.44737
 Alpha  occ. eigenvalues --   -0.37516  -0.37366  -0.36666  -0.36345
 Alpha virt. eigenvalues --    0.04866   0.05105   0.10890   0.11276   0.16327
 Alpha virt. eigenvalues --    0.16583   0.19412   0.22130   0.24995   0.27763
 Alpha virt. eigenvalues --    0.28256   0.29191   0.30725   0.31342   0.32348

 Mulliken charges:
               1
     1  C   -0.169391
     2  C   -0.214941
     3  C   -0.165650
     4  C    0.170558
     5  C   -0.194132
     6  C   -0.215080
     7  H    0.227092
     8  H    0.226614
     9  H    0.279192
    10  H    0.270235
    11  H    0.220156
    12  N    0.489755
    13  O   -0.464856
    14  O   -0.454813
    15  C   -0.169814
    16  C   -0.219406
    17  C   -0.169164
    18  C    0.157503
    19  C   -0.172351
    20  C   -0.223320
    21  H    0.225344
    22  H    0.223652
    23  H    0.276042
    24  H    0.284362
    25  H    0.214859
    26  N    0.487870
    27  O   -0.459824
    28  O   -0.460493
 Sum of Mulliken charges =  -0.00000

 Dipole moment (field-independent basis, Debye):
    X=             -1.1116    Y=             -6.7489    Z=             -3.0754  Tot=              7.4994
 Quadrupole moment (field-independent basis, Debye-Ang):
   XX=            -89.4235   YY=           -106.7083   ZZ=           -108.8330
   XY=              7.1924   XZ=            -18.4577   YZ=             -0.2421

 Normal termination of Gaussian 16 at Fri May  7 04:56:52 2021.
