 Gaussian 16, Revision A.03,
 Gaussian 16:  EM64L-G16RevA.03 25-Dec-2016

 -------------
 #p 6-31g* mp2
 -------------

 ------------------------------------------------------
 Input file generated by CHIRIPA (05-May-2021 14:53:18)
 ------------------------------------------------------
 Symbolic Z-matrix:
 Charge =  0 Multiplicity = 1

                         Standard orientation:
 ---------------------------------------------------------------------
 Center     Atomic      Atomic             Coordinates (Angstroms)
 Number     Number       Type             X           Y           Z
 ---------------------------------------------------------------------
      1          6           0        2.849436    1.156238   -0.306345
      2          6           0        1.903385    2.100545    0.436122
      3          6           0        1.581788    3.363825   -0.362935
      4          1           0        3.780398    1.690161   -0.541250
      5          1           0        2.397635    0.877580   -1.268436
      6          1           0        2.356220    2.376242    1.397136
      7          1           0        0.974642    1.564254    0.669456
      8          1           0        1.107128    3.106781   -1.315420
      9          1           0        2.496556    3.923383   -0.583606
     10          1           0        0.904041    4.024677    0.186423
     11          6           0        3.180344   -0.111202    0.479674
     12          6           0        4.126396   -1.055508   -0.262793
     13          6           0        4.447993   -2.318789    0.536264
     14          1           0        3.632145    0.167457    1.441765
     15          1           0        2.249382   -0.645125    0.714579
     16          1           0        5.055138   -0.519218   -0.496127
     17          1           0        3.673560   -1.331206   -1.223807
     18          1           0        3.533224   -2.878347    0.756935
     19          1           0        4.922652   -2.061745    1.488749
     20          1           0        5.125739   -2.979641   -0.013094
     21          6           0       -1.663405   -2.817519   -0.354685
     22          6           0       -2.930507   -2.508600    0.150828
     23          6           0       -3.324575   -1.177205    0.314059
     24          6           0       -2.422281   -0.175295   -0.039963
     25          6           0       -1.153027   -0.451049   -0.546170
     26          6           0       -0.780267   -1.789570   -0.700960
     27          1           0       -1.365560   -3.854546   -0.478208
     28          1           0       -3.618437   -3.304861    0.420584
     29          1           0       -4.299516   -0.909789    0.703158
     30          1           0       -0.489097    0.364399   -0.806286
     31          1           0        0.204411   -2.026517   -1.093783
     32          7           0       -2.828184    1.237965    0.128375
     33          8           0       -2.014830    2.102333   -0.190939
     34          8           0       -3.952000    1.454551    0.576443
 ---------------------------------------------------------------------

 SCF Done:  E(RHF) =  -669.535570161     A.U. after   15 cycles
 E2 =    -0.2093263996D+01 EUMP2 =    -0.67162883415640D+03

 The electronic state is 1-A.
 Alpha  occ. eigenvalues --  -20.60870 -20.60864 -15.85906 -11.31261 -11.27832
 Alpha  occ. eigenvalues --  -11.27813 -11.27570 -11.26847 -11.26838 -11.22101
 Alpha  occ. eigenvalues --  -11.21776 -11.21627 -11.21579 -11.21419 -11.20532
 Alpha  occ. eigenvalues --   -1.59934  -1.39488  -1.19437  -1.08832  -1.08701
 Alpha  occ. eigenvalues --   -1.04839  -1.03656  -0.96086  -0.95667  -0.87106
 Alpha  occ. eigenvalues --   -0.86236  -0.82498  -0.79750  -0.78473  -0.77549
 Alpha  occ. eigenvalues --   -0.72129  -0.71251  -0.70556  -0.65423  -0.65088
 Alpha  occ. eigenvalues --   -0.64843  -0.62201  -0.61005  -0.59494  -0.57663
 Alpha  occ. eigenvalues --   -0.55401  -0.55333  -0.53165  -0.52933  -0.52715
 Alpha  occ. eigenvalues --   -0.52500  -0.50061  -0.48891  -0.48877  -0.48027
 Alpha  occ. eigenvalues --   -0.46826  -0.45985  -0.45958  -0.44855  -0.43918
 Alpha  occ. eigenvalues --   -0.37412  -0.36422
 Alpha virt. eigenvalues --    0.04925   0.11125   0.16351   0.18754   0.22920
 Alpha virt. eigenvalues --    0.23266   0.25683   0.27203   0.27557   0.28218
 Alpha virt. eigenvalues --    0.29789   0.30796   0.31486   0.31875   0.32326

 Mulliken charges:
               1
     1  C   -0.300090
     2  C   -0.306719
     3  C   -0.471972
     4  H    0.152933
     5  H    0.140672
     6  H    0.153361
     7  H    0.154801
     8  H    0.155917
     9  H    0.149967
    10  H    0.172377
    11  C   -0.300533
    12  C   -0.299562
    13  C   -0.475093
    14  H    0.153512
    15  H    0.145228
    16  H    0.155496
    17  H    0.145854
    18  H    0.150686
    19  H    0.158276
    20  H    0.161011
    21  C   -0.170652
    22  C   -0.218552
    23  C   -0.170226
    24  C    0.157064
    25  C   -0.174943
    26  C   -0.221975
    27  H    0.226139
    28  H    0.223854
    29  H    0.275863
    30  H    0.284232
    31  H    0.225366
    32  N    0.488934
    33  O   -0.461742
    34  O   -0.459483
 Sum of Mulliken charges =  -0.00000

 Dipole moment (field-independent basis, Debye):
    X=              1.3536    Y=             -4.8335    Z=             -0.5114  Tot=              5.0454
 Quadrupole moment (field-independent basis, Debye-Ang):
   XX=            -97.1088   YY=            -93.2824   ZZ=            -94.9588
   XY=             14.2469   XZ=             -0.0003   YZ=              0.4319

 Normal termination of Gaussian 16 at Thu May  6 17:19:47 2021.
