 Gaussian 16, Revision A.03,
 Gaussian 16:  EM64L-G16RevA.03 25-Dec-2016

 -------------
 #p 6-31g* mp2
 -------------

 ------------------------------------------------------
 Input file generated by CHIRIPA (05-May-2021 14:57:23)
 ------------------------------------------------------
 Symbolic Z-matrix:
 Charge =  0 Multiplicity = 1

                         Standard orientation:
 ---------------------------------------------------------------------
 Center     Atomic      Atomic             Coordinates (Angstroms)
 Number     Number       Type             X           Y           Z
 ---------------------------------------------------------------------
      1          6           0       -3.237028   -2.350614    0.138668
      2          6           0       -2.694458   -1.578326    1.171001
      3          6           0       -2.528944   -0.198995    1.014160
      4          6           0       -2.918495    0.377826   -0.193655
      5          6           0       -3.462074   -0.364706   -1.240773
      6          6           0       -3.618432   -1.742411   -1.061808
      7          1           0       -3.362047   -3.421480    0.269099
      8          1           0       -2.397372   -2.047969    2.104392
      9          1           0       -2.111555    0.422634    1.796963
     10          1           0       -3.748919    0.131861   -2.159772
     11          1           0       -4.040077   -2.339691   -1.865249
     12          7           0       -2.748119    1.837202   -0.371406
     13          8           0       -3.099170    2.321402   -1.445161
     14          8           0       -2.266754    2.469227    0.566394
     15          6           0        5.084520    0.021316   -1.166037
     16          6           0        4.194563   -1.033362   -1.394403
     17          6           0        3.007018   -1.131266   -0.663171
     18          6           0        2.739886   -0.152639    0.292977
     19          6           0        3.606516    0.910105    0.543610
     20          6           0        4.788179    0.987979   -0.199463
     21          1           0        6.004748    0.089590   -1.738675
     22          1           0        4.422104   -1.785520   -2.144422
     23          1           0        2.300345   -1.937224   -0.819578
     24          1           0        3.352287    1.644772    1.297964
     25          1           0        5.477476    1.808161   -0.019973
     26          7           0        1.485799   -0.245682    1.073367
     27          8           0        1.273593    0.629256    1.910080
     28          8           0        0.738799   -1.191787    0.833548
 ---------------------------------------------------------------------

 SCF Done:  E(RHF) =  -868.338903810     A.U. after   16 cycles
 E2 =    -0.2600384168D+01 EUMP2 =    -0.87093928797846D+03

 The electronic state is 1-A.
 Alpha  occ. eigenvalues --  -20.61112 -20.61065 -20.59686 -20.59647 -15.86093
 Alpha  occ. eigenvalues --  -15.84710 -11.31297 -11.29816 -11.27876 -11.27818
 Alpha  occ. eigenvalues --  -11.27574 -11.26850 -11.26808 -11.26487 -11.26225
 Alpha  occ. eigenvalues --  -11.26164 -11.25501 -11.25246  -1.60152  -1.58754
 Alpha  occ. eigenvalues --   -1.39706  -1.38309  -1.19458  -1.17992  -1.08890
 Alpha  occ. eigenvalues --   -1.07466  -1.04837  -1.03343  -0.95753  -0.94329
 Alpha  occ. eigenvalues --   -0.86244  -0.84789  -0.82589  -0.81158  -0.77654
 Alpha  occ. eigenvalues --   -0.76217  -0.72336  -0.71450  -0.70940  -0.70571
 Alpha  occ. eigenvalues --   -0.70075  -0.69156  -0.65116  -0.64846  -0.63661
 Alpha  occ. eigenvalues --   -0.63390  -0.62187  -0.60707  -0.55357  -0.53951
 Alpha  occ. eigenvalues --   -0.53174  -0.52932  -0.51749  -0.51466  -0.49100
 Alpha  occ. eigenvalues --   -0.49063  -0.47706  -0.47676  -0.45131  -0.43767
 Alpha  occ. eigenvalues --   -0.37433  -0.36429  -0.36024  -0.34813
 Alpha virt. eigenvalues --    0.04850   0.06322   0.11228   0.12723   0.16397
 Alpha virt. eigenvalues --    0.17827   0.21364   0.22692   0.27280   0.28243
 Alpha virt. eigenvalues --    0.28656   0.29584   0.30931   0.32146   0.32482

 Mulliken charges:
               1
     1  C   -0.173141
     2  C   -0.204356
     3  C   -0.157100
     4  C    0.151558
     5  C   -0.174166
     6  C   -0.220348
     7  H    0.219696
     8  H    0.224163
     9  H    0.283949
    10  H    0.269445
    11  H    0.216300
    12  N    0.487155
    13  O   -0.467961
    14  O   -0.458139
    15  C   -0.170042
    16  C   -0.218505
    17  C   -0.170668
    18  C    0.158690
    19  C   -0.169087
    20  C   -0.218466
    21  H    0.226265
    22  H    0.223089
    23  H    0.273666
    24  H    0.278209
    25  H    0.224921
    26  N    0.489240
    27  O   -0.457819
    28  O   -0.466551
 Sum of Mulliken charges =  -0.00000

 Dipole moment (field-independent basis, Debye):
    X=              4.2414    Y=             -4.7588    Z=             -1.7947  Tot=              6.6224
 Quadrupole moment (field-independent basis, Debye-Ang):
   XX=            -78.2645   YY=           -106.6260   ZZ=           -101.9639
   XY=             16.6828   XZ=             -6.3507   YZ=              4.5430

 Normal termination of Gaussian 16 at Thu May  6 16:16:31 2021.
