 Gaussian 16, Revision A.03,
 Gaussian 16:  EM64L-G16RevA.03 25-Dec-2016

 -------------
 #p 6-31g* mp2
 -------------

 ------------------------------------------------------
 Input file generated by CHIRIPA (05-May-2021 14:51:13)
 ------------------------------------------------------
 Symbolic Z-matrix:
 Charge =  0 Multiplicity = 1

                         Standard orientation:
 ---------------------------------------------------------------------
 Center     Atomic      Atomic             Coordinates (Angstroms)
 Number     Number       Type             X           Y           Z
 ---------------------------------------------------------------------
      1          6           0       -2.316498   -1.521071   -0.328819
      2          6           0       -0.923874   -1.875534    0.193619
      3          6           0       -0.363853   -3.151864   -0.434994
      4          1           0       -2.999342   -2.358785   -0.131578
      5          1           0       -2.272195   -1.404312   -1.420515
      6          1           0       -0.970505   -1.990232    1.284162
      7          1           0       -0.244311   -1.036802   -0.004718
      8          1           0       -0.288526   -3.044959   -1.521961
      9          1           0       -1.018847   -4.003806   -0.225757
     10          1           0        0.632377   -3.386608   -0.047335
     11          6           0       -2.889754   -0.247553    0.290257
     12          6           0       -4.282377    0.106910   -0.232181
     13          6           0       -4.842398    1.383240    0.396432
     14          1           0       -2.934056   -0.364312    1.381953
     15          1           0       -2.206909    0.590161    0.093015
     16          1           0       -4.961941   -0.731822   -0.033844
     17          1           0       -4.235746    0.221608   -1.322725
     18          1           0       -4.187405    2.235182    0.187195
     19          1           0       -4.917725    1.276335    1.483399
     20          1           0       -5.838629    1.617984    0.008773
     21          6           0        2.410822    1.504191   -0.383463
     22          6           0        1.479793    2.453252    0.371818
     23          6           0        1.104028    3.688642   -0.446964
     24          1           0        3.322045    2.046371   -0.670968
     25          1           0        1.924911    1.191829   -1.318190
     26          1           0        1.966745    2.762641    1.305506
     27          1           0        0.570764    1.908698    0.657726
     28          1           0        0.595299    3.397781   -1.371733
     29          1           0        1.999212    4.256576   -0.720272
     30          1           0        0.438026    4.353390    0.111974
     31          6           0        2.795428    0.264434    0.422025
     32          6           0        3.726459   -0.684628   -0.333256
     33          6           0        4.102224   -1.920018    0.485526
     34          1           0        3.281340    0.576795    1.356752
     35          1           0        1.884206   -0.277747    0.709530
     36          1           0        4.635487   -0.140074   -0.619164
     37          1           0        3.239507   -0.994017   -1.266944
     38          1           0        3.207040   -2.487952    0.758834
     39          1           0        4.610952   -1.629157    1.410295
     40          1           0        4.768226   -2.584765   -0.073412
 ---------------------------------------------------------------------

 SCF Done:  E(RHF) =  -470.733250537     A.U. after   11 cycles
 E2 =    -0.1583910997D+01 EUMP2 =    -0.47231716153435D+03

 The electronic state is 1-A.
 Alpha  occ. eigenvalues --  -11.21680 -11.21643 -11.21622 -11.21589 -11.21471
 Alpha  occ. eigenvalues --  -11.21411 -11.21402 -11.21315 -11.21159 -11.21098
 Alpha  occ. eigenvalues --  -11.21096 -11.21074  -1.08508  -1.08423  -1.03600
 Alpha  occ. eigenvalues --   -1.03531  -0.96040  -0.95987  -0.87061  -0.86997
 Alpha  occ. eigenvalues --   -0.79677  -0.79588  -0.78384  -0.78172  -0.65297
 Alpha  occ. eigenvalues --   -0.64927  -0.61042  -0.60903  -0.59418  -0.59332
 Alpha  occ. eigenvalues --   -0.57648  -0.57595  -0.55362  -0.55257  -0.52741
 Alpha  occ. eigenvalues --   -0.52681  -0.52494  -0.52376  -0.50019  -0.49904
 Alpha  occ. eigenvalues --   -0.47985  -0.47911  -0.46803  -0.46598  -0.46151
 Alpha  occ. eigenvalues --   -0.45797  -0.45750  -0.45269  -0.43843  -0.43785
 Alpha virt. eigenvalues --    0.19457   0.21799   0.23547   0.25042   0.25588
 Alpha virt. eigenvalues --    0.26497   0.26885   0.27147   0.27976   0.29577
 Alpha virt. eigenvalues --    0.30601   0.31491   0.31682   0.31877   0.32286

 Mulliken charges:
               1
     1  C   -0.297651
     2  C   -0.306664
     3  C   -0.478819
     4  H    0.150099
     5  H    0.149476
     6  H    0.152219
     7  H    0.157889
     8  H    0.155363
     9  H    0.156016
    10  H    0.162594
    11  C   -0.300426
    12  C   -0.299655
    13  C   -0.475848
    14  H    0.149860
    15  H    0.150988
    16  H    0.152182
    17  H    0.152001
    18  H    0.155468
    19  H    0.155277
    20  H    0.160417
    21  C   -0.298226
    22  C   -0.302771
    23  C   -0.475625
    24  H    0.149916
    25  H    0.148720
    26  H    0.152422
    27  H    0.153931
    28  H    0.154612
    29  H    0.155455
    30  H    0.160395
    31  C   -0.305825
    32  C   -0.299270
    33  C   -0.478267
    34  H    0.149609
    35  H    0.157487
    36  H    0.151914
    37  H    0.152045
    38  H    0.156972
    39  H    0.155306
    40  H    0.160416
 Sum of Mulliken charges =  -0.00000

 Dipole moment (field-independent basis, Debye):
    X=             -0.0235    Y=             -0.0127    Z=              0.0115  Tot=              0.0291
 Quadrupole moment (field-independent basis, Debye-Ang):
   XX=            -84.3295   YY=            -85.9069   ZZ=            -84.4285
   XY=              1.5040   XZ=              0.0257   YZ=             -0.1078

 Normal termination of Gaussian 16 at Thu May  6 02:23:30 2021.
