 Gaussian 16, Revision A.03,
 Gaussian 16:  EM64L-G16RevA.03 25-Dec-2016

 -------------
 #p 6-31g* mp2
 -------------

 ------------------------------------------------------
 Input file generated by CHIRIPA (05-May-2021 14:53:16)
 ------------------------------------------------------
 Symbolic Z-matrix:
 Charge =  0 Multiplicity = 1

                         Standard orientation:
 ---------------------------------------------------------------------
 Center     Atomic      Atomic             Coordinates (Angstroms)
 Number     Number       Type             X           Y           Z
 ---------------------------------------------------------------------
      1          6           0        3.915016   -0.328662   -0.643440
      2          6           0        3.885070   -1.710292    0.010920
      3          6           0        4.701107   -2.747723   -0.760841
      4          1           0        3.532718   -0.407951   -1.670331
      5          1           0        4.957599    0.009043   -0.723255
      6          1           0        2.842754   -2.044692    0.090736
      7          1           0        4.267304   -1.627670    1.036438
      8          1           0        5.749616   -2.440144   -0.828854
      9          1           0        4.316972   -2.859534   -1.779929
     10          1           0        4.665935   -3.728089   -0.275553
     11          6           0        3.103776    0.719273    0.116462
     12          6           0        3.133722    2.100903   -0.537897
     13          6           0        2.317685    3.138333    0.233864
     14          1           0        2.061193    0.381567    0.196278
     15          1           0        3.486073    0.798562    1.143354
     16          1           0        2.751488    2.018281   -1.563415
     17          1           0        4.176038    2.435302   -0.617714
     18          1           0        2.701820    3.250145    1.252951
     19          1           0        1.269176    2.830754    0.301877
     20          1           0        2.352856    4.118700   -0.251424
     21          6           0       -4.790147   -0.239136   -1.264646
     22          6           0       -4.444113   -1.344569   -0.480553
     23          6           0       -3.311309   -1.307802    0.337954
     24          6           0       -2.543681   -0.144214    0.348012
     25          6           0       -2.862345    0.973472   -0.421740
     26          6           0       -3.999553    0.914322   -1.232793
     27          1           0       -5.671847   -0.276391   -1.897586
     28          1           0       -5.056243   -2.241688   -0.503285
     29          1           0       -3.020392   -2.149192    0.955084
     30          1           0       -2.232593    1.853765   -0.377953
     31          1           0       -4.265875    1.774324   -1.840670
     32          7           0       -1.342101   -0.093443    1.210584
     33          8           0       -0.682325    0.943500    1.201609
     34          8           0       -1.082832   -1.091552    1.879309
 ---------------------------------------------------------------------

 SCF Done:  E(RHF) =  -669.536230691     A.U. after   15 cycles
 E2 =    -0.2091713021D+01 EUMP2 =    -0.67162794371157D+03

 The electronic state is 1-A.
 Alpha  occ. eigenvalues --  -20.61059 -20.61054 -15.86081 -11.31365 -11.27925
 Alpha  occ. eigenvalues --  -11.27919 -11.27653 -11.26921 -11.26911 -11.20682
 Alpha  occ. eigenvalues --  -11.20528 -11.20413 -11.20379 -11.20025 -11.19796
 Alpha  occ. eigenvalues --   -1.60112  -1.39670  -1.19529  -1.08940  -1.07358
 Alpha  occ. eigenvalues --   -1.04920  -1.02516  -0.95788  -0.94958  -0.86322
 Alpha  occ. eigenvalues --   -0.85974  -0.82626  -0.78592  -0.77685  -0.77119
 Alpha  occ. eigenvalues --   -0.72303  -0.71423  -0.70638  -0.65188  -0.64921
 Alpha  occ. eigenvalues --   -0.63997  -0.62267  -0.59922  -0.58341  -0.56559
 Alpha  occ. eigenvalues --   -0.55424  -0.54244  -0.53254  -0.53010  -0.51703
 Alpha  occ. eigenvalues --   -0.51361  -0.49115  -0.49066  -0.48830  -0.46895
 Alpha  occ. eigenvalues --   -0.45662  -0.45199  -0.44691  -0.44361  -0.42756
 Alpha  occ. eigenvalues --   -0.37505  -0.36519
 Alpha virt. eigenvalues --    0.04808   0.11137   0.16292   0.21159   0.23868
 Alpha virt. eigenvalues --    0.25177   0.26987   0.27497   0.27965   0.28737
 Alpha virt. eigenvalues --    0.29117   0.30703   0.31784   0.32559   0.32727

 Mulliken charges:
               1
     1  C   -0.297881
     2  C   -0.299017
     3  C   -0.475055
     4  H    0.144400
     5  H    0.145519
     6  H    0.155505
     7  H    0.152944
     8  H    0.153186
     9  H    0.152047
    10  H    0.158423
    11  C   -0.302333
    12  C   -0.297938
    13  C   -0.481764
    14  H    0.166077
    15  H    0.149941
    16  H    0.144725
    17  H    0.146568
    18  H    0.154816
    19  H    0.173698
    20  H    0.150152
    21  C   -0.170449
    22  C   -0.218557
    23  C   -0.170737
    24  C    0.157507
    25  C   -0.170558
    26  C   -0.218550
    27  H    0.226312
    28  H    0.224103
    29  H    0.276023
    30  H    0.275774
    31  H    0.224232
    32  N    0.493496
    33  O   -0.464784
    34  O   -0.457825
 Sum of Mulliken charges =  -0.00000

 Dipole moment (field-independent basis, Debye):
    X=             -4.6111    Y=             -0.2542    Z=             -2.8642  Tot=              5.4342
 Quadrupole moment (field-independent basis, Debye-Ang):
   XX=            -74.3122   YY=            -91.8387   ZZ=            -97.1118
   XY=              2.5908   XZ=              7.4718   YZ=             -1.5091

 Normal termination of Gaussian 16 at Thu May  6 15:35:18 2021.
