 Gaussian 16, Revision A.03,
 Gaussian 16:  EM64L-G16RevA.03 25-Dec-2016

 -------------
 #p 6-31g* mp2
 -------------

 ------------------------------------------------------
 Input file generated by CHIRIPA (05-May-2021 14:51:08)
 ------------------------------------------------------
 Symbolic Z-matrix:
 Charge =  0 Multiplicity = 1

                         Standard orientation:
 ---------------------------------------------------------------------
 Center     Atomic      Atomic             Coordinates (Angstroms)
 Number     Number       Type             X           Y           Z
 ---------------------------------------------------------------------
      1          6           0        4.587695   -0.176101   -0.367054
      2          6           0        5.977453   -0.370676    0.240150
      3          6           0        7.096731   -0.250674   -0.794553
      4          1           0        4.434836   -0.918374   -1.162421
      5          1           0        4.539981    0.811022   -0.847374
      6          1           0        6.022085   -1.356577    0.720382
      7          1           0        6.126948    0.372024    1.034294
      8          1           0        7.080815    0.737068   -1.266479
      9          1           0        6.975357   -1.001355   -1.582175
     10          1           0        8.081607   -0.393157   -0.338947
     11          6           0        3.458264   -0.293173    0.654909
     12          6           0        2.068506   -0.098598    0.047704
     13          6           0        0.949228   -0.218600    1.082407
     14          1           0        3.505978   -1.280296    1.135228
     15          1           0        3.611123    0.449100    1.450276
     16          1           0        1.919011   -0.841298   -0.746440
     17          1           0        2.023874    0.887303   -0.432528
     18          1           0        1.070602    0.532081    1.870029
     19          1           0        0.965144   -1.206342    1.554333
     20          1           0       -0.035648   -0.076117    0.626801
     21          6           0       -4.055300   -0.491842   -0.377624
     22          6           0       -5.259832   -1.253860    0.175927
     23          6           0       -5.310664   -2.705821   -0.300538
     24          1           0       -4.085806   -0.518121   -1.475497
     25          1           0       -3.133515   -1.009504   -0.078068
     26          1           0       -6.179020   -0.734147   -0.123418
     27          1           0       -5.226559   -1.225601    1.272609
     28          1           0       -4.410383   -3.245264    0.011065
     29          1           0       -5.368255   -2.751016   -1.392894
     30          1           0       -6.179539   -3.231919    0.107059
     31          6           0       -3.990658    0.961117    0.089770
     32          6           0       -2.786127    1.723133   -0.463782
     33          6           0       -2.735295    3.175095    0.012684
     34          1           0       -4.912444    1.478778   -0.209787
     35          1           0       -3.960153    0.987395    1.187643
     36          1           0       -2.819400    1.694875   -1.560463
     37          1           0       -1.866939    1.203421   -0.164436
     38          1           0       -2.677704    3.220291    1.105040
     39          1           0       -3.635576    3.714538   -0.298919
     40          1           0       -1.866420    3.701193   -0.394914
 ---------------------------------------------------------------------

 SCF Done:  E(RHF) =  -470.733354138     A.U. after   11 cycles
 E2 =    -0.1582494857D+01 EUMP2 =    -0.47231584899475D+03

 The electronic state is 1-A.
 Alpha  occ. eigenvalues --  -11.21627 -11.21611 -11.21592 -11.21581 -11.21420
 Alpha  occ. eigenvalues --  -11.21396 -11.21361 -11.21337 -11.21114 -11.21078
 Alpha  occ. eigenvalues --  -11.21061 -11.21060  -1.08449  -1.08420  -1.03557
 Alpha  occ. eigenvalues --   -1.03513  -0.96006  -0.95966  -0.87031  -0.86977
 Alpha  occ. eigenvalues --   -0.79636  -0.79563  -0.78258  -0.78236  -0.65080
 Alpha  occ. eigenvalues --   -0.65059  -0.60974  -0.60918  -0.59440  -0.59270
 Alpha  occ. eigenvalues --   -0.57640  -0.57553  -0.55297  -0.55243  -0.52759
 Alpha  occ. eigenvalues --   -0.52640  -0.52446  -0.52374  -0.49947  -0.49899
 Alpha  occ. eigenvalues --   -0.48010  -0.47837  -0.46649  -0.46597  -0.45808
 Alpha  occ. eigenvalues --   -0.45769  -0.45724  -0.45692  -0.43794  -0.43740
 Alpha virt. eigenvalues --    0.21103   0.23027   0.23775   0.24710   0.25872
 Alpha virt. eigenvalues --    0.26640   0.27102   0.27511   0.27952   0.28783
 Alpha virt. eigenvalues --    0.30842   0.31394   0.31695   0.31829   0.32042

 Mulliken charges:
               1
     1  C   -0.298282
     2  C   -0.299671
     3  C   -0.475719
     4  H    0.149721
     5  H    0.149600
     6  H    0.151934
     7  H    0.151962
     8  H    0.155213
     9  H    0.155207
    10  H    0.160284
    11  C   -0.298498
    12  C   -0.299022
    13  C   -0.484066
    14  H    0.149557
    15  H    0.149696
    16  H    0.152149
    17  H    0.152291
    18  H    0.155412
    19  H    0.155305
    20  H    0.167032
    21  C   -0.299302
    22  C   -0.299636
    23  C   -0.475740
    24  H    0.149629
    25  H    0.149861
    26  H    0.151965
    27  H    0.152125
    28  H    0.155283
    29  H    0.155104
    30  H    0.160226
    31  C   -0.297619
    32  C   -0.308765
    33  C   -0.475030
    34  H    0.149543
    35  H    0.149830
    36  H    0.151914
    37  H    0.160069
    38  H    0.155312
    39  H    0.155130
    40  H    0.159997
 Sum of Mulliken charges =  -0.00000

 Dipole moment (field-independent basis, Debye):
    X=              0.0101    Y=             -0.0006    Z=              0.0014  Tot=              0.0103
 Quadrupole moment (field-independent basis, Debye-Ang):
   XX=            -85.3516   YY=            -84.8414   ZZ=            -84.5580
   XY=             -0.3281   XZ=              0.9744   YZ=             -0.2758

 Normal termination of Gaussian 16 at Thu May  6 16:31:48 2021.
