 Gaussian 16, Revision A.03,
 Gaussian 16:  EM64L-G16RevA.03 25-Dec-2016

 -------------
 #p 6-31g* mp2
 -------------

 ------------------------------------------------------
 Input file generated by CHIRIPA (05-May-2021 14:55:21)
 ------------------------------------------------------
 Symbolic Z-matrix:
 Charge =  0 Multiplicity = 1

                         Standard orientation:
 ---------------------------------------------------------------------
 Center     Atomic      Atomic             Coordinates (Angstroms)
 Number     Number       Type             X           Y           Z
 ---------------------------------------------------------------------
      1          6           0        2.201939    2.065725   -1.112573
      2          6           0        1.252656    1.043842   -1.218118
      3          6           0        1.525664   -0.233194   -0.718925
      4          6           0        2.763696   -0.454318   -0.117535
      5          6           0        3.730087    0.543139    0.002699
      6          6           0        3.435450    1.812558   -0.503575
      7          1           0        1.981459    3.054798   -1.503108
      8          1           0        0.293858    1.237577   -1.690577
      9          1           0        0.808935   -1.042538   -0.787332
     10          1           0        4.677040    0.319694    0.478903
     11          1           0        4.174580    2.604254   -0.420212
     12          7           0        3.064165   -1.802227    0.414687
     13          8           0        4.162323   -1.971440    0.940095
     14          8           0        2.195826   -2.663983    0.296356
     15          6           0       -4.182044    0.053465    0.111347
     16          6           0       -4.234476   -1.398232   -0.365950
     17          6           0       -5.657420   -1.871249   -0.664745
     18          1           0       -4.801878    0.159186    1.012221
     19          1           0       -4.631229    0.700480   -0.654813
     20          1           0       -3.784075   -2.042162    0.400281
     21          1           0       -3.614293   -1.500551   -1.265682
     22          1           0       -6.112943   -1.253179   -1.445188
     23          1           0       -6.283691   -1.797868    0.230241
     24          1           0       -5.671651   -2.911578   -1.004411
     25          6           0       -2.766243    0.540883    0.414096
     26          6           0       -2.713810    1.992579    0.891392
     27          6           0       -1.290867    2.465596    1.190188
     28          1           0       -2.317058   -0.106133    1.180256
     29          1           0       -2.146409    0.435161   -0.486778
     30          1           0       -3.333995    2.094898    1.791124
     31          1           0       -3.164212    2.636510    0.125162
     32          1           0       -0.664596    2.392216    0.295202
     33          1           0       -0.835343    1.847526    1.970630
     34          1           0       -1.276636    3.505925    1.529854
 ---------------------------------------------------------------------

 SCF Done:  E(RHF) =  -669.534487265     A.U. after   15 cycles
 E2 =    -0.2092853167D+01 EUMP2 =    -0.67162734043230D+03

 The electronic state is 1-A.
 Alpha  occ. eigenvalues --  -20.60760 -20.60755 -15.85814 -11.31184 -11.27747
 Alpha  occ. eigenvalues --  -11.27735 -11.27496 -11.26773 -11.26762 -11.22094
 Alpha  occ. eigenvalues --  -11.21951 -11.21881 -11.21754 -11.21488 -11.21269
 Alpha  occ. eigenvalues --   -1.59835  -1.39389  -1.19361  -1.08871  -1.08755
 Alpha  occ. eigenvalues --   -1.04772  -1.03907  -0.96366  -0.95587  -0.87385
 Alpha  occ. eigenvalues --   -0.86170  -0.82424  -0.79980  -0.78689  -0.77461
 Alpha  occ. eigenvalues --   -0.72033  -0.71158  -0.70462  -0.65545  -0.65016
 Alpha  occ. eigenvalues --   -0.64774  -0.62149  -0.61280  -0.59732  -0.57983
 Alpha  occ. eigenvalues --   -0.55691  -0.55265  -0.53255  -0.53034  -0.52875
 Alpha  occ. eigenvalues --   -0.52629  -0.50306  -0.48796  -0.48786  -0.48272
 Alpha  occ. eigenvalues --   -0.47015  -0.46226  -0.46129  -0.44793  -0.44184
 Alpha  occ. eigenvalues --   -0.37304  -0.36304
 Alpha virt. eigenvalues --    0.05054   0.11170   0.16490   0.19675   0.22870
 Alpha virt. eigenvalues --    0.24017   0.25157   0.26566   0.27214   0.28508
 Alpha virt. eigenvalues --    0.29395   0.30364   0.31346   0.31454   0.31813

 Mulliken charges:
               1
     1  C   -0.169763
     2  C   -0.217638
     3  C   -0.171336
     4  C    0.158197
     5  C   -0.170894
     6  C   -0.218184
     7  H    0.225982
     8  H    0.224463
     9  H    0.276413
    10  H    0.275590
    11  H    0.223553
    12  N    0.488042
    13  O   -0.460500
    14  O   -0.460304
    15  C   -0.298434
    16  C   -0.300192
    17  C   -0.476043
    18  H    0.152272
    19  H    0.148755
    20  H    0.155923
    21  H    0.149276
    22  H    0.154527
    23  H    0.156248
    24  H    0.162436
    25  C   -0.298389
    26  C   -0.300494
    27  C   -0.477854
    28  H    0.155191
    29  H    0.138106
    30  H    0.155138
    31  H    0.149854
    32  H    0.151028
    33  H    0.159688
    34  H    0.159345
 Sum of Mulliken charges =  -0.00000

 Dipole moment (field-independent basis, Debye):
    X=             -1.1009    Y=              4.6912    Z=             -1.7909  Tot=              5.1407
 Quadrupole moment (field-independent basis, Debye-Ang):
   XX=            -97.1866   YY=            -99.3900   ZZ=            -93.7020
   XY=             15.2619   XZ=             -4.1348   YZ=              0.3609

 Normal termination of Gaussian 16 at Thu May  6 09:21:28 2021.
