 Gaussian 16, Revision A.03,
 Gaussian 16:  EM64L-G16RevA.03 25-Dec-2016

 -------------
 #p 6-31g* mp2
 -------------

 ------------------------------------------------------
 Input file generated by CHIRIPA (05-May-2021 14:57:24)
 ------------------------------------------------------
 Symbolic Z-matrix:
 Charge =  0 Multiplicity = 1

                         Standard orientation:
 ---------------------------------------------------------------------
 Center     Atomic      Atomic             Coordinates (Angstroms)
 Number     Number       Type             X           Y           Z
 ---------------------------------------------------------------------
      1          6           0       -6.705322   -0.615783   -0.042438
      2          6           0       -6.230476    0.133754    1.038874
      3          6           0       -4.877302    0.473804    1.127380
      4          6           0       -4.023048    0.045846    0.112297
      5          6           0       -4.465825   -0.702047   -0.977608
      6          6           0       -5.823037   -1.030560   -1.045460
      7          1           0       -7.758069   -0.875461   -0.103169
      8          1           0       -6.913378    0.457235    1.819291
      9          1           0       -4.482935    1.053091    1.953406
     10          1           0       -3.760915   -1.010178   -1.740220
     11          1           0       -6.189004   -1.612764   -1.886384
     12          7           0       -2.588366    0.399735    0.195062
     13          8           0       -1.856165    0.010603   -0.712184
     14          8           0       -2.223230    1.059544    1.165610
     15          6           0        2.177101    1.197583   -0.889264
     16          6           0        2.145015   -0.176731   -0.630898
     17          6           0        3.292799   -0.843739   -0.192448
     18          6           0        4.460820   -0.102092   -0.022224
     19          6           0        4.524534    1.268021   -0.271263
     20          6           0        3.364664    1.914309   -0.708940
     21          1           0        1.280780    1.707683   -1.229563
     22          1           0        1.224142   -0.735899   -0.770068
     23          1           0        3.295972   -1.906937    0.014962
     24          1           0        5.457299    1.798573   -0.123334
     25          1           0        3.392518    2.981698   -0.908816
     26          7           0        5.682326   -0.797256    0.441535
     27          8           0        6.698864   -0.121191    0.583737
     28          8           0        5.600072   -2.005027    0.654045
 ---------------------------------------------------------------------

 SCF Done:  E(RHF) =  -868.340829768     A.U. after   16 cycles
 E2 =    -0.2598150832D+01 EUMP2 =    -0.87093898059980D+03

 The electronic state is 1-A.
 Alpha  occ. eigenvalues --  -20.61919 -20.61884 -20.59867 -20.59861 -15.86916
 Alpha  occ. eigenvalues --  -15.84909 -11.31961 -11.30020 -11.28499 -11.28475
 Alpha  occ. eigenvalues --  -11.28165 -11.27430 -11.27415 -11.26596 -11.26504
 Alpha  occ. eigenvalues --  -11.26082 -11.25533 -11.25284  -1.60958  -1.58948
 Alpha  occ. eigenvalues --   -1.40520  -1.38509  -1.20101  -1.18139  -1.09555
 Alpha  occ. eigenvalues --   -1.07545  -1.05454  -1.03502  -0.96444  -0.94436
 Alpha  occ. eigenvalues --   -0.86866  -0.84881  -0.83289  -0.81288  -0.78370
 Alpha  occ. eigenvalues --   -0.76396  -0.73156  -0.72251  -0.71201  -0.71134
 Alpha  occ. eigenvalues --   -0.70268  -0.69173  -0.65757  -0.65451  -0.63768
 Alpha  occ. eigenvalues --   -0.63450  -0.62804  -0.60852  -0.55962  -0.53898
 Alpha  occ. eigenvalues --   -0.53798  -0.53540  -0.51850  -0.51566  -0.49919
 Alpha  occ. eigenvalues --   -0.49870  -0.47905  -0.47861  -0.45991  -0.43973
 Alpha  occ. eigenvalues --   -0.38059  -0.37042  -0.36053  -0.35118
 Alpha virt. eigenvalues --    0.04131   0.06120   0.10618   0.12557   0.15690
 Alpha virt. eigenvalues --    0.17711   0.20791   0.22828   0.26730   0.27632
 Alpha virt. eigenvalues --    0.28678   0.29661   0.30422   0.31861   0.32494

 Mulliken charges:
               1
     1  C   -0.169569
     2  C   -0.218532
     3  C   -0.170185
     4  C    0.157419
     5  C   -0.170607
     6  C   -0.218471
     7  H    0.228325
     8  H    0.226009
     9  H    0.276861
    10  H    0.274638
    11  H    0.225614
    12  N    0.490381
    13  O   -0.472561
    14  O   -0.456142
    15  C   -0.169724
    16  C   -0.221160
    17  C   -0.173751
    18  C    0.157659
    19  C   -0.173092
    20  C   -0.219624
    21  H    0.234622
    22  H    0.239047
    23  H    0.271508
    24  H    0.271216
    25  H    0.219284
    26  N    0.488281
    27  O   -0.463957
    28  O   -0.463489
 Sum of Mulliken charges =  -0.00000

 Dipole moment (field-independent basis, Debye):
    X=            -10.0997    Y=              1.2309    Z=             -1.9038  Tot=             10.3510
 Quadrupole moment (field-independent basis, Debye-Ang):
   XX=           -102.7123   YY=           -101.5130   ZZ=           -102.0729
   XY=             18.4243   XZ=             -7.7826   YZ=              2.3331

 Normal termination of Gaussian 16 at Thu May  6 05:03:20 2021.
