 Gaussian 16, Revision A.03,
 Gaussian 16:  EM64L-G16RevA.03 25-Dec-2016

 -------------
 #p 6-31g* mp2
 -------------

 ------------------------------------------------------
 Input file generated by CHIRIPA (05-May-2021 14:53:16)
 ------------------------------------------------------
 Symbolic Z-matrix:
 Charge =  0 Multiplicity = 1

                         Standard orientation:
 ---------------------------------------------------------------------
 Center     Atomic      Atomic             Coordinates (Angstroms)
 Number     Number       Type             X           Y           Z
 ---------------------------------------------------------------------
      1          6           0        2.758667    1.163131    0.093447
      2          6           0        2.064840    2.056423   -0.935445
      3          6           0        2.326275    3.544156   -0.698597
      4          1           0        2.417731    1.441070    1.100153
      5          1           0        3.840188    1.355301    0.065561
      6          1           0        0.985100    1.861627   -0.906593
      7          1           0        2.407323    1.776197   -1.939832
      8          1           0        3.398560    3.759498   -0.747925
      9          1           0        1.968256    3.845414    0.291185
     10          1           0        1.820963    4.164446   -1.445430
     11          6           0        2.506772   -0.326941   -0.130077
     12          6           0        3.200599   -1.220233    0.898814
     13          6           0        2.939165   -2.707966    0.661966
     14          1           0        1.425251   -0.519111   -0.102191
     15          1           0        2.847708   -0.604880   -1.136783
     16          1           0        2.858116   -0.940007    1.903202
     17          1           0        4.280339   -1.025437    0.869963
     18          1           0        3.297183   -3.009223   -0.327815
     19          1           0        1.866879   -2.923308    0.711295
     20          1           0        3.444476   -3.328256    1.408800
     21          6           0       -2.912945    1.695807    1.256356
     22          6           0       -2.161344    0.727179    1.929689
     23          6           0       -1.681879   -0.397465    1.251575
     24          6           0       -1.974044   -0.522159   -0.105767
     25          6           0       -2.720221    0.425658   -0.804447
     26          6           0       -3.189498    1.542226   -0.106161
     27          1           0       -3.281448    2.566321    1.790965
     28          1           0       -1.945032    0.843833    2.987822
     29          1           0       -1.097666   -1.162565    1.748298
     30          1           0       -2.919645    0.281769   -1.859409
     31          1           0       -3.772955    2.292879   -0.631654
     32          7           0       -1.471849   -1.708494   -0.834334
     33          8           0       -1.742929   -1.795047   -2.030018
     34          8           0       -0.816658   -2.529328   -0.195904
 ---------------------------------------------------------------------

 SCF Done:  E(RHF) =  -669.536245111     A.U. after   15 cycles
 E2 =    -0.2093391374D+01 EUMP2 =    -0.67162963648427D+03

 The electronic state is 1-A.
 Alpha  occ. eigenvalues --  -20.61020 -20.61013 -15.86033 -11.31364 -11.27919
 Alpha  occ. eigenvalues --  -11.27911 -11.27639 -11.26917 -11.26907 -11.21454
 Alpha  occ. eigenvalues --  -11.21136 -11.21069 -11.21050 -11.20861 -11.20043
 Alpha  occ. eigenvalues --   -1.60065  -1.39625  -1.19523  -1.08924  -1.08063
 Alpha  occ. eigenvalues --   -1.04914  -1.03115  -0.95769  -0.95543  -0.86556
 Alpha  occ. eigenvalues --   -0.86313  -0.82603  -0.79208  -0.77875  -0.77633
 Alpha  occ. eigenvalues --   -0.72267  -0.71378  -0.70622  -0.65182  -0.64918
 Alpha  occ. eigenvalues --   -0.64695  -0.62260  -0.60516  -0.58962  -0.57147
 Alpha  occ. eigenvalues --   -0.55412  -0.54829  -0.53245  -0.53002  -0.52251
 Alpha  occ. eigenvalues --   -0.51945  -0.49478  -0.49034  -0.49006  -0.47502
 Alpha  occ. eigenvalues --   -0.46274  -0.45637  -0.45368  -0.44628  -0.43382
 Alpha  occ. eigenvalues --   -0.37483  -0.36506
 Alpha virt. eigenvalues --    0.04844   0.11069   0.16299   0.21062   0.22972
 Alpha virt. eigenvalues --    0.24492   0.26511   0.27295   0.27608   0.27988
 Alpha virt. eigenvalues --    0.28758   0.30725   0.31601   0.32029   0.32250

 Mulliken charges:
               1
     1  C   -0.296961
     2  C   -0.299960
     3  C   -0.474898
     4  H    0.144424
     5  H    0.148995
     6  H    0.150265
     7  H    0.154070
     8  H    0.155790
     9  H    0.151888
    10  H    0.158289
    11  C   -0.300117
    12  C   -0.298291
    13  C   -0.484875
    14  H    0.149555
    15  H    0.152797
    16  H    0.143736
    17  H    0.149046
    18  H    0.155680
    19  H    0.178711
    20  H    0.153833
    21  C   -0.170491
    22  C   -0.218530
    23  C   -0.171970
    24  C    0.157957
    25  C   -0.171035
    26  C   -0.218410
    27  H    0.226433
    28  H    0.224245
    29  H    0.275868
    30  H    0.276334
    31  H    0.224326
    32  N    0.492310
    33  O   -0.457138
    34  O   -0.461875
 Sum of Mulliken charges =  -0.00000

 Dipole moment (field-independent basis, Debye):
    X=             -1.9973    Y=              4.0478    Z=              2.4586  Tot=              5.1399
 Quadrupole moment (field-independent basis, Debye-Ang):
   XX=            -87.1986   YY=           -100.4301   ZZ=            -91.6081
   XY=             -8.5762   XZ=             -3.7128   YZ=             -3.2120

 Normal termination of Gaussian 16 at Wed May  5 17:11:13 2021.
