 Gaussian 16, Revision A.03,
 Gaussian 16:  EM64L-G16RevA.03 25-Dec-2016

 -------------
 #p 6-31g* mp2
 -------------

 ------------------------------------------------------
 Input file generated by CHIRIPA (05-May-2021 14:51:12)
 ------------------------------------------------------
 Symbolic Z-matrix:
 Charge =  0 Multiplicity = 1

                         Standard orientation:
 ---------------------------------------------------------------------
 Center     Atomic      Atomic             Coordinates (Angstroms)
 Number     Number       Type             X           Y           Z
 ---------------------------------------------------------------------
      1          6           0        3.063588    0.151548   -0.252852
      2          6           0        2.735377    1.600628    0.108297
      3          6           0        3.696264    2.601972   -0.533418
      4          1           0        4.092501   -0.073497    0.059621
      5          1           0        3.036887    0.038239   -1.345483
      6          1           0        2.761332    1.710845    1.199991
      7          1           0        1.707061    1.822192   -0.204899
      8          1           0        3.664625    2.521159   -1.624780
      9          1           0        4.724886    2.409180   -0.211908
     10          1           0        3.443328    3.631640   -0.261999
     11          6           0        2.111776   -0.861286    0.381143
     12          6           0        2.439988   -2.310367    0.019994
     13          6           0        1.479100   -3.311711    0.661709
     14          1           0        2.138478   -0.747977    1.473774
     15          1           0        1.082864   -0.636241    0.068670
     16          1           0        3.468304   -2.531930    0.333190
     17          1           0        2.414033   -2.420583   -1.071700
     18          1           0        0.450478   -3.118918    0.340199
     19          1           0        1.510740   -3.230898    1.753071
     20          1           0        1.732037   -4.341378    0.390290
     21          6           0       -2.965015   -0.300801    0.041440
     22          6           0       -2.296415   -1.500260   -0.631060
     23          6           0       -3.063079   -2.804682   -0.410821
     24          1           0       -3.056716   -0.496498    1.118584
     25          1           0       -3.988114   -0.195662   -0.345355
     26          1           0       -1.274410   -1.602270   -0.244127
     27          1           0       -2.206121   -1.301604   -1.706698
     28          1           0       -4.078343   -2.727455   -0.813159
     29          1           0       -3.141338   -3.029830    0.657722
     30          1           0       -2.567593   -3.649080   -0.900050
     31          6           0       -2.210349    1.010539   -0.169731
     32          6           0       -2.878950    2.209998    0.502769
     33          6           0       -2.112286    3.514420    0.282530
     34          1           0       -1.187251    0.905401    0.217064
     35          1           0       -2.118649    1.206237   -1.246875
     36          1           0       -2.969243    2.011343    1.578408
     37          1           0       -3.900955    2.312009    0.115836
     38          1           0       -2.034026    3.739568   -0.786013
     39          1           0       -1.097022    3.437193    0.684868
     40          1           0       -2.607772    4.358819    0.771760
 ---------------------------------------------------------------------

 SCF Done:  E(RHF) =  -470.733008412     A.U. after   11 cycles
 E2 =    -0.1584415345D+01 EUMP2 =    -0.47231742375673D+03

 The electronic state is 1-A.
 Alpha  occ. eigenvalues --  -11.21629 -11.21620 -11.21612 -11.21610 -11.21435
 Alpha  occ. eigenvalues --  -11.21416 -11.21375 -11.21356 -11.21100 -11.21083
 Alpha  occ. eigenvalues --  -11.21070 -11.21061  -1.08486  -1.08423  -1.03584
 Alpha  occ. eigenvalues --   -1.03515  -0.96024  -0.95968  -0.87020  -0.87004
 Alpha  occ. eigenvalues --   -0.79692  -0.79545  -0.78429  -0.78126  -0.65278
 Alpha  occ. eigenvalues --   -0.64906  -0.61152  -0.60775  -0.59424  -0.59295
 Alpha  occ. eigenvalues --   -0.57708  -0.57522  -0.55396  -0.55164  -0.52700
 Alpha  occ. eigenvalues --   -0.52677  -0.52430  -0.52411  -0.49989  -0.49889
 Alpha  occ. eigenvalues --   -0.48124  -0.47803  -0.46907  -0.46411  -0.46395
 Alpha  occ. eigenvalues --   -0.45787  -0.45753  -0.45004  -0.43814  -0.43783
 Alpha virt. eigenvalues --    0.20353   0.21959   0.23465   0.24445   0.25318
 Alpha virt. eigenvalues --    0.26257   0.26930   0.27114   0.28581   0.29711
 Alpha virt. eigenvalues --    0.31030   0.31514   0.31666   0.31844   0.32047

 Mulliken charges:
               1
     1  C   -0.297534
     2  C   -0.302925
     3  C   -0.475611
     4  H    0.149812
     5  H    0.149764
     6  H    0.151457
     7  H    0.154763
     8  H    0.155360
     9  H    0.155185
    10  H    0.160453
    11  C   -0.307990
    12  C   -0.298993
    13  C   -0.482778
    14  H    0.148918
    15  H    0.158297
    16  H    0.152114
    17  H    0.152034
    18  H    0.162074
    19  H    0.154843
    20  H    0.160520
    21  C   -0.297101
    22  C   -0.311596
    23  C   -0.475732
    24  H    0.149901
    25  H    0.149759
    26  H    0.161818
    27  H    0.151657
    28  H    0.155530
    29  H    0.155734
    30  H    0.160650
    31  C   -0.304730
    32  C   -0.299401
    33  C   -0.476928
    34  H    0.155316
    35  H    0.149153
    36  H    0.152197
    37  H    0.152105
    38  H    0.155011
    39  H    0.156462
    40  H    0.160430
 Sum of Mulliken charges =  -0.00000

 Dipole moment (field-independent basis, Debye):
    X=             -0.0145    Y=             -0.0002    Z=             -0.0010  Tot=              0.0145
 Quadrupole moment (field-independent basis, Debye-Ang):
   XX=            -84.6733   YY=            -86.4938   ZZ=            -83.5421
   XY=             -1.0620   XZ=              1.1767   YZ=              0.2152

 Normal termination of Gaussian 16 at Thu May  6 02:19:59 2021.
