 Gaussian 16, Revision A.03,
 Gaussian 16:  EM64L-G16RevA.03 25-Dec-2016

 -------------
 #p 6-31g* mp2
 -------------

 ------------------------------------------------------
 Input file generated by CHIRIPA (05-May-2021 14:53:13)
 ------------------------------------------------------
 Symbolic Z-matrix:
 Charge =  0 Multiplicity = 1

                         Standard orientation:
 ---------------------------------------------------------------------
 Center     Atomic      Atomic             Coordinates (Angstroms)
 Number     Number       Type             X           Y           Z
 ---------------------------------------------------------------------
      1          6           0        3.508035    0.695122    0.172863
      2          6           0        3.656443    2.179737   -0.161619
      3          6           0        2.512842    3.028317    0.395052
      4          1           0        2.551305    0.330006   -0.225010
      5          1           0        3.458871    0.575387    1.264028
      6          1           0        3.706703    2.296507   -1.251782
      7          1           0        4.613018    2.541314    0.236930
      8          1           0        2.464044    2.941461    1.485316
      9          1           0        1.552580    2.695263   -0.011855
     10          1           0        2.638986    4.086178    0.144299
     11          6           0        4.643668   -0.166196   -0.376862
     12          6           0        4.495261   -1.650811   -0.042380
     13          6           0        5.638862   -2.499391   -0.599051
     14          1           0        4.692832   -0.046461   -1.468027
     15          1           0        5.600398    0.198919    0.021011
     16          1           0        3.538685   -2.012388   -0.440929
     17          1           0        4.445000   -1.767581    1.047783
     18          1           0        6.599123   -2.166337   -0.192144
     19          1           0        5.687660   -2.412535   -1.689315
     20          1           0        5.512717   -3.557252   -0.348298
     21          6           0       -0.767961   -0.321169    0.796837
     22          6           0       -1.596244   -1.438356    0.946375
     23          6           0       -2.936644   -1.386267    0.552467
     24          6           0       -3.417858   -0.195537    0.010356
     25          6           0       -2.617698    0.934443   -0.151448
     26          6           0       -1.280428    0.859583    0.249368
     27          1           0        0.272078   -0.370479    1.105517
     28          1           0       -1.200972   -2.356669    1.371238
     29          1           0       -3.600002   -2.236244    0.656928
     30          1           0       -3.040348    1.835909   -0.578232
     31          1           0       -0.639492    1.728767    0.132049
     32          7           0       -4.835222   -0.128339   -0.410314
     33          8           0       -5.235007    0.932476   -0.885162
     34          8           0       -5.519529   -1.137756   -0.257221
 ---------------------------------------------------------------------

 SCF Done:  E(RHF) =  -669.535634337     A.U. after   15 cycles
 E2 =    -0.2091663085D+01 EUMP2 =    -0.67162729742267D+03

 The electronic state is 1-A.
 Alpha  occ. eigenvalues --  -20.60714 -20.60709 -15.85767 -11.31120 -11.27690
 Alpha  occ. eigenvalues --  -11.27683 -11.27389 -11.26694 -11.26668 -11.22641
 Alpha  occ. eigenvalues --  -11.22534 -11.22447 -11.22289 -11.22263 -11.21737
 Alpha  occ. eigenvalues --   -1.59790  -1.39344  -1.19289  -1.09422  -1.08681
 Alpha  occ. eigenvalues --   -1.04693  -1.04479  -0.96945  -0.95519  -0.87960
 Alpha  occ. eigenvalues --   -0.86090  -0.82354  -0.80559  -0.79252  -0.77409
 Alpha  occ. eigenvalues --   -0.71985  -0.71113  -0.70384  -0.66053  -0.64937
 Alpha  occ. eigenvalues --   -0.64715  -0.62120  -0.61801  -0.60305  -0.58557
 Alpha  occ. eigenvalues --   -0.56264  -0.55171  -0.53602  -0.53407  -0.53020
 Alpha  occ. eigenvalues --   -0.52748  -0.50865  -0.48875  -0.48741  -0.48727
 Alpha  occ. eigenvalues --   -0.47578  -0.46777  -0.46683  -0.44752  -0.44740
 Alpha  occ. eigenvalues --   -0.37261  -0.36298
 Alpha virt. eigenvalues --    0.05117   0.11330   0.16577   0.19189   0.22383
 Alpha virt. eigenvalues --    0.23601   0.24913   0.25343   0.26055   0.28180
 Alpha virt. eigenvalues --    0.29373   0.29940   0.30859   0.31342   0.31600

 Mulliken charges:
               1
     1  C   -0.303776
     2  C   -0.299516
     3  C   -0.481840
     4  H    0.145907
     5  H    0.148302
     6  H    0.155946
     7  H    0.156736
     8  H    0.157116
     9  H    0.148083
    10  H    0.167175
    11  C   -0.298249
    12  C   -0.300891
    13  C   -0.476113
    14  H    0.152823
    15  H    0.152902
    16  H    0.150157
    17  H    0.150925
    18  H    0.156975
    19  H    0.157288
    20  H    0.161836
    21  C   -0.177315
    22  C   -0.219049
    23  C   -0.171133
    24  C    0.158820
    25  C   -0.172333
    26  C   -0.226217
    27  H    0.231273
    28  H    0.223376
    29  H    0.275274
    30  H    0.275943
    31  H    0.232852
    32  N    0.487968
    33  O   -0.460551
    34  O   -0.460692
 Sum of Mulliken charges =  -0.00000

 Dipole moment (field-independent basis, Debye):
    X=              5.2965    Y=             -0.1936    Z=              1.4453  Tot=              5.4936
 Quadrupole moment (field-independent basis, Debye-Ang):
   XX=           -128.6156   YY=            -90.3518   ZZ=            -94.4495
   XY=              1.3876   XZ=             -4.7297   YZ=             -2.0102

 Normal termination of Gaussian 16 at Thu May  6 04:09:26 2021.
