 Gaussian 16, Revision A.03,
 Gaussian 16:  EM64L-G16RevA.03 25-Dec-2016

 -------------
 #p 6-31g* mp2
 -------------

 ------------------------------------------------------
 Input file generated by CHIRIPA (05-May-2021 14:51:10)
 ------------------------------------------------------
 Symbolic Z-matrix:
 Charge =  0 Multiplicity = 1

                         Standard orientation:
 ---------------------------------------------------------------------
 Center     Atomic      Atomic             Coordinates (Angstroms)
 Number     Number       Type             X           Y           Z
 ---------------------------------------------------------------------
      1          6           0       -5.173004   -0.133793   -0.328727
      2          6           0       -6.276547   -0.836807    0.462443
      3          6           0       -7.620644   -0.832899   -0.266379
      4          1           0       -5.478782    0.901747   -0.531465
      5          1           0       -5.062744   -0.624145   -1.305862
      6          1           0       -6.383745   -0.346146    1.438341
      7          1           0       -5.968023   -1.870737    0.663487
      8          1           0       -7.536324   -1.340395   -1.232784
      9          1           0       -7.954409    0.192858   -0.453527
     10          1           0       -8.395128   -1.340568    0.316979
     11          6           0       -3.823326   -0.129458    0.386869
     12          6           0       -2.719784    0.573556   -0.404301
     13          6           0       -1.375686    0.569648    0.324521
     14          1           0       -3.933587    0.360894    1.364004
     15          1           0       -3.517548   -1.164997    0.589608
     16          1           0       -3.028307    1.607486   -0.605345
     17          1           0       -2.612585    0.082895   -1.380198
     18          1           0       -1.041921   -0.456109    0.511670
     19          1           0       -1.460006    1.077144    1.290926
     20          1           0       -0.601202    1.077317   -0.258837
     21          6           0        5.150749   -0.203754    0.183264
     22          6           0        5.292558   -1.635886   -0.333334
     23          6           0        6.603211   -2.293480    0.099738
     24          1           0        5.999126    0.394606   -0.176135
     25          1           0        5.214443   -0.209075    1.280219
     26          1           0        5.227230   -1.628030   -1.428911
     27          1           0        4.443645   -2.230860    0.027177
     28          1           0        6.673141   -2.330706    1.191675
     29          1           0        7.461178   -1.724452   -0.272686
     30          1           0        6.683840   -3.316618   -0.280457
     31          6           0        3.845580    0.467005   -0.241406
     32          6           0        3.703772    1.899137    0.275192
     33          6           0        2.393119    2.556731   -0.157881
     34          1           0        3.781887    0.472326   -1.338361
     35          1           0        2.997205   -0.131355    0.117992
     36          1           0        4.552686    2.494110   -0.085319
     37          1           0        3.769100    1.891281    1.370768
     38          1           0        1.535153    1.987701    0.214544
     39          1           0        2.323190    2.593956   -1.249816
     40          1           0        2.312490    3.579869    0.222316
 ---------------------------------------------------------------------

 SCF Done:  E(RHF) =  -470.733271840     A.U. after   11 cycles
 E2 =    -0.1582209559D+01 EUMP2 =    -0.47231548139864D+03

 The electronic state is 1-A.
 Alpha  occ. eigenvalues --  -11.21600 -11.21599 -11.21582 -11.21562 -11.21403
 Alpha  occ. eigenvalues --  -11.21374 -11.21343 -11.21313 -11.21069 -11.21062
 Alpha  occ. eigenvalues --  -11.21056 -11.21002  -1.08429  -1.08398  -1.03537
 Alpha  occ. eigenvalues --   -1.03492  -0.96006  -0.95927  -0.87048  -0.86924
 Alpha  occ. eigenvalues --   -0.79636  -0.79524  -0.78243  -0.78209  -0.65058
 Alpha  occ. eigenvalues --   -0.65030  -0.60932  -0.60907  -0.59411  -0.59281
 Alpha  occ. eigenvalues --   -0.57680  -0.57478  -0.55289  -0.55225  -0.52826
 Alpha  occ. eigenvalues --   -0.52639  -0.52434  -0.52216  -0.49940  -0.49852
 Alpha  occ. eigenvalues --   -0.47974  -0.47808  -0.46629  -0.46588  -0.45784
 Alpha  occ. eigenvalues --   -0.45755  -0.45707  -0.45678  -0.43756  -0.43735
 Alpha virt. eigenvalues --    0.22434   0.22971   0.23620   0.24707   0.26250
 Alpha virt. eigenvalues --    0.26641   0.27006   0.27474   0.27776   0.28766
 Alpha virt. eigenvalues --    0.30555   0.31381   0.31658   0.31787   0.32094

 Mulliken charges:
               1
     1  C   -0.298255
     2  C   -0.299615
     3  C   -0.475700
     4  H    0.149703
     5  H    0.149542
     6  H    0.151915
     7  H    0.151904
     8  H    0.155187
     9  H    0.155199
    10  H    0.160236
    11  C   -0.298601
    12  C   -0.299289
    13  C   -0.481773
    14  H    0.149487
    15  H    0.149533
    16  H    0.152283
    17  H    0.152036
    18  H    0.154654
    19  H    0.154984
    20  H    0.166788
    21  C   -0.298271
    22  C   -0.299621
    23  C   -0.475687
    24  H    0.149562
    25  H    0.149530
    26  H    0.151838
    27  H    0.151930
    28  H    0.155175
    29  H    0.155144
    30  H    0.160151
    31  C   -0.298568
    32  C   -0.299099
    33  C   -0.483227
    34  H    0.149221
    35  H    0.150259
    36  H    0.151655
    37  H    0.151896
    38  H    0.163529
    39  H    0.154299
    40  H    0.160069
 Sum of Mulliken charges =  -0.00000

 Dipole moment (field-independent basis, Debye):
    X=             -0.0167    Y=              0.0013    Z=              0.0011  Tot=              0.0167
 Quadrupole moment (field-independent basis, Debye-Ang):
   XX=            -86.5307   YY=            -84.2901   ZZ=            -84.0851
   XY=              0.3662   XZ=             -1.0909   YZ=              0.2300

 Normal termination of Gaussian 16 at Wed May  5 19:47:25 2021.
