 Gaussian 16, Revision A.03,
 Gaussian 16:  EM64L-G16RevA.03 25-Dec-2016

 -------------
 #p 6-31g* mp2
 -------------

 ------------------------------------------------------
 Input file generated by CHIRIPA (05-May-2021 14:57:24)
 ------------------------------------------------------
 Symbolic Z-matrix:
 Charge =  0 Multiplicity = 1

                         Standard orientation:
 ---------------------------------------------------------------------
 Center     Atomic      Atomic             Coordinates (Angstroms)
 Number     Number       Type             X           Y           Z
 ---------------------------------------------------------------------
      1          6           0       -1.952868   -2.247080    0.210975
      2          6           0       -2.750242   -1.818259    1.277197
      3          6           0       -3.501402   -0.643630    1.174471
      4          6           0       -3.431303    0.080953   -0.014375
      5          6           0       -2.646298   -0.320199   -1.094252
      6          6           0       -1.903528   -1.498002   -0.969266
      7          1           0       -1.372607   -3.160793    0.299421
      8          1           0       -2.790496   -2.397993    2.194985
      9          1           0       -4.127030   -0.288628    1.984398
     10          1           0       -2.626577    0.278897   -1.996534
     11          1           0       -1.285150   -1.828616   -1.798933
     12          7           0       -4.222082    1.326160   -0.134910
     13          8           0       -4.143095    1.946629   -1.192934
     14          8           0       -4.905907    1.658106    0.830923
     15          6           0        4.072107    2.503067    0.330092
     16          6           0        2.721075    2.232565    0.089135
     17          6           0        2.282533    0.918370   -0.098271
     18          6           0        3.226423   -0.105700   -0.037933
     19          6           0        4.579249    0.131713    0.200365
     20          6           0        4.995255    1.453628    0.384841
     21          1           0        4.404025    3.526963    0.474535
     22          1           0        2.001914    3.045585    0.046081
     23          1           0        1.242572    0.680641   -0.286376
     24          1           0        5.272623   -0.699707    0.237642
     25          1           0        6.045110    1.660734    0.571807
     26          7           0        2.774087   -1.501065   -0.234781
     27          8           0        3.625513   -2.385574   -0.176859
     28          8           0        1.576685   -1.683822   -0.443263
 ---------------------------------------------------------------------

 SCF Done:  E(RHF) =  -868.340466850     A.U. after   16 cycles
 E2 =    -0.2599134036D+01 EUMP2 =    -0.87093960088627D+03

 The electronic state is 1-A.
 Alpha  occ. eigenvalues --  -20.61538 -20.61483 -20.60481 -20.60474 -15.86548
 Alpha  occ. eigenvalues --  -15.85525 -11.31620 -11.30649 -11.28159 -11.28130
 Alpha  occ. eigenvalues --  -11.27833 -11.27201 -11.27161 -11.27110 -11.27068
 Alpha  occ. eigenvalues --  -11.26681 -11.26108 -11.25974  -1.60583  -1.59565
 Alpha  occ. eigenvalues --   -1.40146  -1.39125  -1.19764  -1.18772  -1.09213
 Alpha  occ. eigenvalues --   -1.08159  -1.05118  -1.04136  -0.96100  -0.95048
 Alpha  occ. eigenvalues --   -0.86529  -0.85508  -0.82941  -0.81901  -0.78021
 Alpha  occ. eigenvalues --   -0.77016  -0.72806  -0.71886  -0.71741  -0.70895
 Alpha  occ. eigenvalues --   -0.70863  -0.69765  -0.65422  -0.65110  -0.64388
 Alpha  occ. eigenvalues --   -0.64068  -0.62464  -0.61484  -0.55626  -0.54494
 Alpha  occ. eigenvalues --   -0.53470  -0.53202  -0.52474  -0.52184  -0.49545
 Alpha  occ. eigenvalues --   -0.49510  -0.48517  -0.48474  -0.45615  -0.44586
 Alpha  occ. eigenvalues --   -0.37729  -0.36711  -0.36637  -0.35755
 Alpha virt. eigenvalues --    0.04466   0.05506   0.10947   0.11918   0.16015
 Alpha virt. eigenvalues --    0.17101   0.21108   0.22248   0.27032   0.27711
 Alpha virt. eigenvalues --    0.28291   0.29134   0.30709   0.31877   0.32166

 Mulliken charges:
               1
     1  C   -0.164278
     2  C   -0.221370
     3  C   -0.173327
     4  C    0.156285
     5  C   -0.180842
     6  C   -0.212751
     7  H    0.236356
     8  H    0.221948
     9  H    0.272506
    10  H    0.271460
    11  H    0.232743
    12  N    0.487941
    13  O   -0.463970
    14  O   -0.462474
    15  C   -0.169894
    16  C   -0.218971
    17  C   -0.171783
    18  C    0.157017
    19  C   -0.170877
    20  C   -0.218694
    21  H    0.228019
    22  H    0.227985
    23  H    0.276018
    24  H    0.275493
    25  H    0.224747
    26  N    0.491926
    27  O   -0.458249
    28  O   -0.472963
 Sum of Mulliken charges =  -0.00000

 Dipole moment (field-independent basis, Debye):
    X=              4.7551    Y=              0.3766    Z=              1.1157  Tot=              4.8988
 Quadrupole moment (field-independent basis, Debye-Ang):
   XX=           -110.0340   YY=           -106.4338   ZZ=           -101.5966
   XY=             30.5804   XZ=             -0.3568   YZ=             -0.9365

 Normal termination of Gaussian 16 at Wed May  5 22:44:11 2021.
