 Gaussian 16, Revision A.03,
 Gaussian 16:  EM64L-G16RevA.03 25-Dec-2016

 -------------
 #p 6-31g* mp2
 -------------

 ------------------------------------------------------
 Input file generated by CHIRIPA (05-May-2021 14:55:25)
 ------------------------------------------------------
 Symbolic Z-matrix:
 Charge =  0 Multiplicity = 1

                         Standard orientation:
 ---------------------------------------------------------------------
 Center     Atomic      Atomic             Coordinates (Angstroms)
 Number     Number       Type             X           Y           Z
 ---------------------------------------------------------------------
      1          6           0        3.571946   -1.807075    1.309046
      2          6           0        2.179636   -1.750786    1.187287
      3          6           0        1.577865   -0.809025    0.347343
      4          6           0        2.402392    0.065098   -0.359307
      5          6           0        3.792464    0.033919   -0.259216
      6          6           0        4.372505   -0.916113    0.586680
      7          1           0        4.030975   -2.541871    1.963846
      8          1           0        1.555422   -2.441464    1.747078
      9          1           0        0.502526   -0.743474    0.234358
     10          1           0        4.388486    0.735641   -0.829972
     11          1           0        5.454057   -0.957524    0.679277
     12          7           0        1.776827    1.066477   -1.251669
     13          8           0        2.525378    1.825419   -1.863482
     14          8           0        0.549804    1.073455   -1.322390
     15          6           0       -3.423532   -0.604061    0.299137
     16          6           0       -3.904462   -1.145110   -1.047695
     17          6           0       -4.334184   -2.610744   -0.976604
     18          1           0       -2.583954   -1.216981    0.654639
     19          1           0       -4.227672   -0.715853    1.039581
     20          1           0       -3.100138   -1.031064   -1.785713
     21          1           0       -4.742871   -0.530715   -1.400123
     22          1           0       -5.153148   -2.737814   -0.261236
     23          1           0       -3.501083   -3.241006   -0.649017
     24          1           0       -4.674299   -2.977068   -1.950251
     25          6           0       -2.990529    0.859911    0.244186
     26          6           0       -2.509599    1.400962    1.591018
     27          6           0       -2.079879    2.866595    1.519927
     28          1           0       -2.186389    0.971703   -0.496258
     29          1           0       -3.830109    1.472831   -0.111315
     30          1           0       -1.671192    0.786566    1.943446
     31          1           0       -3.313924    1.286915    2.329036
     32          1           0       -2.912980    3.496856    1.192341
     33          1           0       -1.260914    2.993664    0.804560
     34          1           0       -1.739763    3.232918    2.493575
 ---------------------------------------------------------------------

 SCF Done:  E(RHF) =  -669.536370452     A.U. after   15 cycles
 E2 =    -0.2091989593D+01 EUMP2 =    -0.67162836004425D+03

 The electronic state is 1-A.
 Alpha  occ. eigenvalues --  -20.61011 -20.60993 -15.86040 -11.31321 -11.27883
 Alpha  occ. eigenvalues --  -11.27877 -11.27610 -11.26882 -11.26872 -11.21265
 Alpha  occ. eigenvalues --  -11.21145 -11.21112 -11.20905 -11.20624 -11.20383
 Alpha  occ. eigenvalues --   -1.60063  -1.39622  -1.19487  -1.08897  -1.07983
 Alpha  occ. eigenvalues --   -1.04878  -1.03102  -0.95747  -0.95542  -0.86556
 Alpha  occ. eigenvalues --   -0.86280  -0.82586  -0.79182  -0.77796  -0.77617
 Alpha  occ. eigenvalues --   -0.72272  -0.71373  -0.70596  -0.65154  -0.64906
 Alpha  occ. eigenvalues --   -0.64583  -0.62222  -0.60497  -0.58922  -0.57153
 Alpha  occ. eigenvalues --   -0.55384  -0.54826  -0.53210  -0.52969  -0.52260
 Alpha  occ. eigenvalues --   -0.51957  -0.49481  -0.49011  -0.49010  -0.47495
 Alpha  occ. eigenvalues --   -0.46228  -0.45373  -0.45226  -0.44929  -0.43346
 Alpha  occ. eigenvalues --   -0.37462  -0.36476
 Alpha virt. eigenvalues --    0.04866   0.11159   0.16365   0.19464   0.22730
 Alpha virt. eigenvalues --    0.24662   0.25837   0.27431   0.28077   0.28186
 Alpha virt. eigenvalues --    0.29560   0.31259   0.31704   0.32130   0.32373

 Mulliken charges:
               1
     1  C   -0.170368
     2  C   -0.219228
     3  C   -0.173713
     4  C    0.157661
     5  C   -0.170460
     6  C   -0.218639
     7  H    0.226219
     8  H    0.224303
     9  H    0.279642
    10  H    0.275861
    11  H    0.223968
    12  N    0.494877
    13  O   -0.458190
    14  O   -0.468680
    15  C   -0.295852
    16  C   -0.300823
    17  C   -0.474805
    18  H    0.137094
    19  H    0.147612
    20  H    0.157684
    21  H    0.153252
    22  H    0.154116
    23  H    0.150495
    24  H    0.160557
    25  C   -0.312704
    26  C   -0.295629
    27  C   -0.479651
    28  H    0.178985
    29  H    0.148636
    30  H    0.141410
    31  H    0.148107
    32  H    0.154381
    33  H    0.168766
    34  H    0.155120
 Sum of Mulliken charges =  -0.00000

 Dipole moment (field-independent basis, Debye):
    X=              2.3846    Y=             -3.4019    Z=              2.9406  Tot=              5.0898
 Quadrupole moment (field-independent basis, Debye-Ang):
   XX=            -79.4401   YY=            -96.3863   ZZ=            -97.6748
   XY=             -7.6393   XZ=              5.8752   YZ=              0.5554

 Normal termination of Gaussian 16 at Thu May  6 14:25:44 2021.
