 Gaussian 16, Revision A.03,
 Gaussian 16:  EM64L-G16RevA.03 25-Dec-2016

 -------------
 #p 6-31g* mp2
 -------------

 ------------------------------------------------------
 Input file generated by CHIRIPA (05-May-2021 14:55:23)
 ------------------------------------------------------
 Symbolic Z-matrix:
 Charge =  0 Multiplicity = 1

                         Standard orientation:
 ---------------------------------------------------------------------
 Center     Atomic      Atomic             Coordinates (Angstroms)
 Number     Number       Type             X           Y           Z
 ---------------------------------------------------------------------
      1          6           0        2.757796   -2.438558    1.042532
      2          6           0        1.578841   -1.696039    1.166021
      3          6           0        1.470289   -0.432881    0.576788
      4          6           0        2.565112    0.059387   -0.131962
      5          6           0        3.753109   -0.656243   -0.272777
      6          6           0        3.839261   -1.917209    0.324792
      7          1           0        2.833421   -3.418958    1.503500
      8          1           0        0.737358   -2.098413    1.722840
      9          1           0        0.569382    0.163272    0.656700
     10          1           0        4.575049   -0.228662   -0.834033
     11          1           0        4.756090   -2.491625    0.227244
     12          7           0        2.462051    1.395476   -0.760169
     13          8           0        3.440852    1.806812   -1.379351
     14          8           0        1.404420    2.006067   -0.621481
     15          6           0       -2.769897    0.750827    0.035445
     16          6           0       -3.036620    1.864364    1.048795
     17          6           0       -1.957240    2.947205    1.034990
     18          1           0       -1.791520    0.298018    0.246838
     19          1           0       -2.701075    1.188446   -0.970113
     20          1           0       -3.106295    1.424598    2.051973
     21          1           0       -4.014562    2.314446    0.835084
     22          1           0       -1.891352    3.412880    0.046351
     23          1           0       -0.977924    2.517976    1.270155
     24          1           0       -2.167747    3.733244    1.766899
     25          6           0       -3.840274   -0.339136    0.037324
     26          6           0       -3.573552   -1.452673   -0.976027
     27          6           0       -4.652931   -2.535513   -0.962221
     28          1           0       -3.909097   -0.776755    1.042883
     29          1           0       -4.818652    0.113673   -0.174068
     30          1           0       -2.595610   -1.902755   -0.762315
     31          1           0       -3.503877   -1.012906   -1.979204
     32          1           0       -5.632247   -2.106284   -1.197386
     33          1           0       -4.718819   -3.001189    0.026418
     34          1           0       -4.442424   -3.321553   -1.694129
 ---------------------------------------------------------------------

 SCF Done:  E(RHF) =  -669.535319414     A.U. after   15 cycles
 E2 =    -0.2092282436D+01 EUMP2 =    -0.67162760185000D+03

 The electronic state is 1-A.
 Alpha  occ. eigenvalues --  -20.60798 -20.60793 -15.85841 -11.31210 -11.27782
 Alpha  occ. eigenvalues --  -11.27770 -11.27529 -11.26805 -11.26795 -11.21759
 Alpha  occ. eigenvalues --  -11.21495 -11.21433 -11.21377 -11.21240 -11.20458
 Alpha  occ. eigenvalues --   -1.59868  -1.39421  -1.19387  -1.08781  -1.08451
 Alpha  occ. eigenvalues --   -1.04794  -1.03454  -0.95878  -0.95616  -0.86884
 Alpha  occ. eigenvalues --   -0.86192  -0.82448  -0.79522  -0.78280  -0.77471
 Alpha  occ. eigenvalues --   -0.72062  -0.71187  -0.70506  -0.65156  -0.65040
 Alpha  occ. eigenvalues --   -0.64766  -0.62159  -0.60848  -0.59277  -0.57479
 Alpha  occ. eigenvalues --   -0.55309  -0.55160  -0.53118  -0.52907  -0.52554
 Alpha  occ. eigenvalues --   -0.52264  -0.49830  -0.48823  -0.48819  -0.47792
 Alpha  occ. eigenvalues --   -0.46574  -0.45773  -0.45702  -0.44819  -0.43737
 Alpha  occ. eigenvalues --   -0.37367  -0.36392
 Alpha virt. eigenvalues --    0.05013   0.11234   0.16506   0.19780   0.23016
 Alpha virt. eigenvalues --    0.23728   0.25501   0.27170   0.27470   0.28145
 Alpha virt. eigenvalues --    0.29955   0.30267   0.31541   0.31814   0.32132

 Mulliken charges:
               1
     1  C   -0.170385
     2  C   -0.222690
     3  C   -0.180469
     4  C    0.157423
     5  C   -0.169835
     6  C   -0.218940
     7  H    0.225747
     8  H    0.223363
     9  H    0.291310
    10  H    0.275722
    11  H    0.223605
    12  N    0.488054
    13  O   -0.460071
    14  O   -0.461855
    15  C   -0.298468
    16  C   -0.301738
    17  C   -0.476910
    18  H    0.139041
    19  H    0.157673
    20  H    0.146519
    21  H    0.152218
    22  H    0.164116
    23  H    0.161708
    24  H    0.157228
    25  C   -0.298010
    26  C   -0.298767
    27  C   -0.475587
    28  H    0.145895
    29  H    0.151876
    30  H    0.146709
    31  H    0.155354
    32  H    0.156729
    33  H    0.153189
    34  H    0.160247
 Sum of Mulliken charges =  -0.00000

 Dipole moment (field-independent basis, Debye):
    X=              0.3890    Y=             -4.5684    Z=              2.0937  Tot=              5.0404
 Quadrupole moment (field-independent basis, Debye-Ang):
   XX=            -88.7556   YY=            -96.1192   ZZ=            -95.0819
   XY=            -13.8593   XZ=              4.4803   YZ=              0.2405

 Normal termination of Gaussian 16 at Thu May  6 09:27:22 2021.
