 Gaussian 16, Revision A.03,
 Gaussian 16:  EM64L-G16RevA.03 25-Dec-2016

 -------------
 #p 6-31g* mp2
 -------------

 ------------------------------------------------------
 Input file generated by CHIRIPA (05-May-2021 14:55:19)
 ------------------------------------------------------
 Symbolic Z-matrix:
 Charge =  0 Multiplicity = 1

                         Standard orientation:
 ---------------------------------------------------------------------
 Center     Atomic      Atomic             Coordinates (Angstroms)
 Number     Number       Type             X           Y           Z
 ---------------------------------------------------------------------
      1          6           0       -5.201510    1.858538   -0.051373
      2          6           0       -5.075859    0.965688   -1.120743
      3          6           0       -4.107117   -0.041976   -1.094294
      4          6           0       -3.277037   -0.128235    0.022316
      5          6           0       -3.377548    0.746223    1.103292
      6          6           0       -4.353449    1.746154    1.055281
      7          1           0       -5.956832    2.638312   -0.080295
      8          1           0       -5.733100    1.050589   -1.981482
      9          1           0       -3.988067   -0.746524   -1.908455
     10          1           0       -2.707891    0.636532    1.947653
     11          1           0       -4.448748    2.438155    1.887204
     12          7           0       -2.247685   -1.190910    0.061730
     13          8           0       -1.528614   -1.245747    1.057002
     14          8           0       -2.179440   -1.948876   -0.903396
     15          6           0        5.059416    0.240346    0.251304
     16          6           0        5.694107    1.264663   -0.689931
     17          6           0        6.989054    1.856686   -0.132779
     18          1           0        4.859005    0.717237    1.220508
     19          1           0        5.779914   -0.566796    0.443136
     20          1           0        4.972128    2.068929   -0.881029
     21          1           0        5.892855    0.785330   -1.657068
     22          1           0        7.729200    1.068953    0.041186
     23          1           0        6.803243    2.359846    0.821635
     24          1           0        7.425825    2.586453   -0.821640
     25          6           0        3.764104   -0.360429   -0.291803
     26          6           0        3.129411   -1.384746    0.649433
     27          6           0        1.834465   -1.976768    0.092281
     28          1           0        3.043606    0.446713   -0.483634
     29          1           0        3.964514   -0.837320   -1.261006
     30          1           0        2.930665   -0.905413    1.616570
     31          1           0        3.851391   -2.189013    0.840531
     32          1           0        2.020277   -2.479928   -0.862132
     33          1           0        1.094319   -1.189036   -0.081684
     34          1           0        1.397694   -2.706536    0.781141
 ---------------------------------------------------------------------

 SCF Done:  E(RHF) =  -669.535643221     A.U. after   15 cycles
 E2 =    -0.2091125713D+01 EUMP2 =    -0.67162676893416D+03

 The electronic state is 1-A.
 Alpha  occ. eigenvalues --  -20.60893 -20.60888 -15.85922 -11.31278 -11.27845
 Alpha  occ. eigenvalues --  -11.27839 -11.27584 -11.26856 -11.26846 -11.21089
 Alpha  occ. eigenvalues --  -11.20710 -11.20665 -11.20491 -11.20360 -11.19241
 Alpha  occ. eigenvalues --   -1.59953  -1.39509  -1.19448  -1.08846  -1.07608
 Alpha  occ. eigenvalues --   -1.04848  -1.02586  -0.95685  -0.94993  -0.86247
 Alpha  occ. eigenvalues --   -0.86001  -0.82515  -0.78690  -0.77565  -0.77374
 Alpha  occ. eigenvalues --   -0.72137  -0.71280  -0.70555  -0.65101  -0.64850
 Alpha  occ. eigenvalues --   -0.64253  -0.62194  -0.59991  -0.58457  -0.56599
 Alpha  occ. eigenvalues --   -0.55353  -0.54300  -0.53178  -0.52939  -0.51653
 Alpha  occ. eigenvalues --   -0.51430  -0.49190  -0.48894  -0.48651  -0.46977
 Alpha  occ. eigenvalues --   -0.45772  -0.44996  -0.44895  -0.44688  -0.42819
 Alpha  occ. eigenvalues --   -0.37427  -0.36450
 Alpha virt. eigenvalues --    0.04941   0.11204   0.16433   0.21342   0.23607
 Alpha virt. eigenvalues --    0.25320   0.27256   0.27409   0.28198   0.28256
 Alpha virt. eigenvalues --    0.29094   0.30897   0.32310   0.32467   0.32527

 Mulliken charges:
               1
     1  C   -0.170664
     2  C   -0.218561
     3  C   -0.170871
     4  C    0.158644
     5  C   -0.171048
     6  C   -0.218543
     7  H    0.225925
     8  H    0.223791
     9  H    0.275941
    10  H    0.275645
    11  H    0.223725
    12  N    0.487147
    13  O   -0.458484
    14  O   -0.458669
    15  C   -0.297261
    16  C   -0.298806
    17  C   -0.475151
    18  H    0.147878
    19  H    0.148503
    20  H    0.150176
    21  H    0.151325
    22  H    0.154789
    23  H    0.154053
    24  H    0.158263
    25  C   -0.296931
    26  C   -0.301452
    27  C   -0.468252
    28  H    0.146866
    29  H    0.148188
    30  H    0.149341
    31  H    0.146893
    32  H    0.148205
    33  H    0.161533
    34  H    0.167861
 Sum of Mulliken charges =  -0.00000

 Dipole moment (field-independent basis, Debye):
    X=             -3.9687    Y=              3.6713    Z=             -0.1164  Tot=              5.4076
 Quadrupole moment (field-independent basis, Debye-Ang):
   XX=            -73.0212   YY=            -95.5592   ZZ=            -90.8146
   XY=            -12.5535   XZ=              1.5314   YZ=              1.9913

 Normal termination of Gaussian 16 at Wed May  5 18:50:48 2021.
