 Gaussian 16, Revision A.03,
 Gaussian 16:  EM64L-G16RevA.03 25-Dec-2016

 -------------
 #p 6-31g* mp2
 -------------

 ------------------------------------------------------
 Input file generated by CHIRIPA (05-May-2021 14:53:13)
 ------------------------------------------------------
 Symbolic Z-matrix:
 Charge =  0 Multiplicity = 1

                         Standard orientation:
 ---------------------------------------------------------------------
 Center     Atomic      Atomic             Coordinates (Angstroms)
 Number     Number       Type             X           Y           Z
 ---------------------------------------------------------------------
      1          6           0        2.699529   -1.382913   -0.095599
      2          6           0        1.194089   -1.271895    0.147936
      3          6           0        0.468129   -2.607097   -0.019429
      4          1           0        2.873001   -1.771798   -1.108329
      5          1           0        3.122894   -2.121167    0.599482
      6          1           0        0.773917   -0.533057   -0.546462
      7          1           0        1.024184   -0.883048    1.160135
      8          1           0        0.859825   -3.349337    0.683604
      9          1           0        0.608136   -2.997357   -1.032689
     10          1           0       -0.606805   -2.504768    0.159193
     11          6           0        3.439139   -0.056286    0.068006
     12          6           0        4.944580   -0.167304   -0.175530
     13          6           0        5.670540    1.167898   -0.008165
     14          1           0        3.015774    0.681968   -0.627075
     15          1           0        3.265668    0.332599    1.080735
     16          1           0        5.114485   -0.556152   -1.187729
     17          1           0        5.364752   -0.906143    0.518868
     18          1           0        5.530532    1.558157    1.005095
     19          1           0        5.278843    1.910137   -0.711198
     20          1           0        6.745474    1.065568   -0.186786
     21          6           0       -1.214191    2.789691    0.065010
     22          6           0       -1.443296    2.089607    1.254091
     23          6           0       -2.098197    0.854567    1.235974
     24          6           0       -2.512356    0.346840    0.005536
     25          6           0       -2.298779    1.020370   -1.196143
     26          6           0       -1.641910    2.253784   -1.154163
     27          1           0       -0.704683    3.748468    0.088353
     28          1           0       -1.112233    2.503375    2.202373
     29          1           0       -2.288521    0.291423    2.141548
     30          1           0       -2.640481    0.582359   -2.126091
     31          1           0       -1.465342    2.795261   -2.079188
     32          7           0       -3.206712   -0.959780   -0.026275
     33          8           0       -3.561723   -1.385520   -1.123248
     34          8           0       -3.382790   -1.533429    1.046366
 ---------------------------------------------------------------------

 SCF Done:  E(RHF) =  -669.535837909     A.U. after   15 cycles
 E2 =    -0.2092980785D+01 EUMP2 =    -0.67162881869494D+03

 The electronic state is 1-A.
 Alpha  occ. eigenvalues --  -20.60859 -20.60854 -15.85894 -11.31232 -11.27815
 Alpha  occ. eigenvalues --  -11.27801 -11.27547 -11.26830 -11.26806 -11.21754
 Alpha  occ. eigenvalues --  -11.21526 -11.21449 -11.21340 -11.21302 -11.20671
 Alpha  occ. eigenvalues --   -1.59934  -1.39485  -1.19410  -1.08812  -1.08463
 Alpha  occ. eigenvalues --   -1.04811  -1.03514  -0.95956  -0.95651  -0.86963
 Alpha  occ. eigenvalues --   -0.86210  -0.82483  -0.79584  -0.78276  -0.77535
 Alpha  occ. eigenvalues --   -0.72117  -0.71281  -0.70519  -0.65100  -0.65067
 Alpha  occ. eigenvalues --   -0.64815  -0.62161  -0.60914  -0.59335  -0.57577
 Alpha  occ. eigenvalues --   -0.55313  -0.55247  -0.53140  -0.52905  -0.52607
 Alpha  occ. eigenvalues --   -0.52381  -0.49896  -0.48878  -0.48876  -0.47883
 Alpha  occ. eigenvalues --   -0.46634  -0.45800  -0.45737  -0.44891  -0.43754
 Alpha  occ. eigenvalues --   -0.37372  -0.36392
 Alpha virt. eigenvalues --    0.04983   0.11228   0.16466   0.21348   0.22768
 Alpha virt. eigenvalues --    0.24134   0.26520   0.27160   0.27415   0.27802
 Alpha virt. eigenvalues --    0.28339   0.30771   0.31359   0.31661   0.31952

 Mulliken charges:
               1
     1  C   -0.298327
     2  C   -0.301820
     3  C   -0.479541
     4  H    0.149946
     5  H    0.150122
     6  H    0.151460
     7  H    0.148030
     8  H    0.155757
     9  H    0.155900
    10  H    0.167760
    11  C   -0.296893
    12  C   -0.299549
    13  C   -0.475370
    14  H    0.146550
    15  H    0.147056
    16  H    0.152587
    17  H    0.152967
    18  H    0.153962
    19  H    0.153131
    20  H    0.161040
    21  C   -0.170131
    22  C   -0.217600
    23  C   -0.169829
    24  C    0.159170
    25  C   -0.171899
    26  C   -0.218851
    27  H    0.225994
    28  H    0.223638
    29  H    0.275789
    30  H    0.275848
    31  H    0.223617
    32  N    0.487998
    33  O   -0.458707
    34  O   -0.459804
 Sum of Mulliken charges =  -0.00000

 Dipole moment (field-independent basis, Debye):
    X=              2.3466    Y=              4.5854    Z=              0.1055  Tot=              5.1521
 Quadrupole moment (field-independent basis, Debye-Ang):
   XX=           -108.4430   YY=            -92.7452   ZZ=            -88.8093
   XY=            -11.5018   XZ=              0.2935   YZ=             -0.5757

 Normal termination of Gaussian 16 at Thu May  6 07:21:19 2021.
