 Gaussian 16, Revision A.03,
 Gaussian 16:  EM64L-G16RevA.03 25-Dec-2016

 -------------
 #p 6-31g* mp2
 -------------

 ------------------------------------------------------
 Input file generated by CHIRIPA (05-May-2021 14:57:24)
 ------------------------------------------------------
 Symbolic Z-matrix:
 Charge =  0 Multiplicity = 1

                         Standard orientation:
 ---------------------------------------------------------------------
 Center     Atomic      Atomic             Coordinates (Angstroms)
 Number     Number       Type             X           Y           Z
 ---------------------------------------------------------------------
      1          6           0        2.793707    2.159092    0.782169
      2          6           0        3.965374    2.261253    0.025016
      3          6           0        4.611241    1.112713   -0.442165
      4          6           0        4.055323   -0.127513   -0.132190
      5          6           0        2.889343   -0.262037    0.619929
      6          6           0        2.260371    0.899992    1.076690
      7          1           0        2.298545    3.056545    1.141039
      8          1           0        4.381840    3.237769   -0.205242
      9          1           0        5.519525    1.162916   -1.030314
     10          1           0        2.498108   -1.249360    0.833346
     11          1           0        1.350567    0.817624    1.664497
     12          7           0        4.730130   -1.350562   -0.621258
     13          8           0        4.220173   -2.431481   -0.334563
     14          8           0        5.756224   -1.205109   -1.282024
     15          6           0       -5.573671    0.221995   -1.851778
     16          6           0       -5.910997   -0.585622   -0.760683
     17          6           0       -5.015902   -0.756851    0.299521
     18          6           0       -3.786567   -0.102681    0.235596
     19          6           0       -3.421397    0.708487   -0.837691
     20          6           0       -4.332137    0.865339   -1.886739
     21          1           0       -6.275080    0.349425   -2.671036
     22          1           0       -6.874483   -1.086471   -0.730843
     23          1           0       -5.251385   -1.376329    1.156383
     24          1           0       -2.453504    1.194903   -0.839085
     25          1           0       -4.067476    1.493148   -2.732820
     26          7           0       -2.830688   -0.276343    1.352081
     27          8           0       -1.753926    0.310835    1.271825
     28          8           0       -3.176333   -0.996348    2.286296
 ---------------------------------------------------------------------

 SCF Done:  E(RHF) =  -868.339942603     A.U. after   16 cycles
 E2 =    -0.2598221504D+01 EUMP2 =    -0.87093816410702D+03

 The electronic state is 1-A.
 Alpha  occ. eigenvalues --  -20.61551 -20.61502 -20.60203 -20.60191 -15.86569
 Alpha  occ. eigenvalues --  -15.85243 -11.31697 -11.30468 -11.28252 -11.28222
 Alpha  occ. eigenvalues --  -11.27931 -11.27203 -11.27185 -11.27050 -11.26899
 Alpha  occ. eigenvalues --  -11.26690 -11.26077 -11.25766  -1.60590  -1.59278
 Alpha  occ. eigenvalues --   -1.40153  -1.38834  -1.19845  -1.18605  -1.09283
 Alpha  occ. eigenvalues --   -1.08030  -1.05215  -1.03957  -0.96159  -0.94895
 Alpha  occ. eigenvalues --   -0.86624  -0.85362  -0.83005  -0.81708  -0.78076
 Alpha  occ. eigenvalues --   -0.76774  -0.72809  -0.71892  -0.71465  -0.70952
 Alpha  occ. eigenvalues --   -0.70600  -0.69722  -0.65505  -0.65215  -0.64243
 Alpha  occ. eigenvalues --   -0.63910  -0.62567  -0.61278  -0.55721  -0.54482
 Alpha  occ. eigenvalues --   -0.53553  -0.53305  -0.52337  -0.52006  -0.49567
 Alpha  occ. eigenvalues --   -0.49520  -0.48228  -0.48206  -0.45610  -0.44270
 Alpha  occ. eigenvalues --   -0.37808  -0.36806  -0.36605  -0.35561
 Alpha virt. eigenvalues --    0.04449   0.05709   0.10852   0.12080   0.15990
 Alpha virt. eigenvalues --    0.17248   0.20994   0.22311   0.26933   0.27723
 Alpha virt. eigenvalues --    0.28433   0.29059   0.30591   0.31761   0.32179

 Mulliken charges:
               1
     1  C   -0.173904
     2  C   -0.218962
     3  C   -0.173531
     4  C    0.157928
     5  C   -0.173897
     6  C   -0.224741
     7  H    0.224386
     8  H    0.219671
     9  H    0.272412
    10  H    0.277598
    11  H    0.247459
    12  N    0.487966
    13  O   -0.460741
    14  O   -0.463397
    15  C   -0.169850
    16  C   -0.218443
    17  C   -0.170140
    18  C    0.157963
    19  C   -0.170358
    20  C   -0.218296
    21  H    0.227560
    22  H    0.225340
    23  H    0.276642
    24  H    0.273747
    25  H    0.224773
    26  N    0.492137
    27  O   -0.473002
    28  O   -0.456323
 Sum of Mulliken charges =  -0.00000

 Dipole moment (field-independent basis, Debye):
    X=             -6.2351    Y=              4.8543    Z=             -2.1379  Tot=              8.1861
 Quadrupole moment (field-independent basis, Debye-Ang):
   XX=            -94.9975   YY=           -103.8625   ZZ=           -106.0570
   XY=             20.4059   XZ=             18.6661   YZ=             -3.3505

 Normal termination of Gaussian 16 at Fri May  7 04:57:59 2021.
