 Gaussian 16, Revision A.03,
 Gaussian 16:  EM64L-G16RevA.03 25-Dec-2016

 -------------
 #p 6-31g* mp2
 -------------

 ------------------------------------------------------
 Input file generated by CHIRIPA (05-May-2021 14:53:11)
 ------------------------------------------------------
 Symbolic Z-matrix:
 Charge =  0 Multiplicity = 1

                         Standard orientation:
 ---------------------------------------------------------------------
 Center     Atomic      Atomic             Coordinates (Angstroms)
 Number     Number       Type             X           Y           Z
 ---------------------------------------------------------------------
      1          6           0       -4.348512    0.375290   -0.154573
      2          6           0       -5.866963    0.351304    0.023518
      3          6           0       -6.581411    1.379494   -0.854083
      4          1           0       -3.974242    1.381569    0.078387
      5          1           0       -4.107137    0.188644   -1.210175
      6          1           0       -6.105350    0.536567    1.078727
      7          1           0       -6.237640   -0.655086   -0.209707
      8          1           0       -6.372781    1.193794   -1.912662
      9          1           0       -6.239740    2.392218   -0.616907
     10          1           0       -7.665931    1.345103   -0.710922
     11          6           0       -3.620200   -0.647015    0.716163
     12          6           0       -2.101749   -0.623029    0.538072
     13          6           0       -1.387301   -1.651219    1.415673
     14          1           0       -3.861575   -0.460369    1.771765
     15          1           0       -3.994470   -1.653294    0.483203
     16          1           0       -1.731072    0.383361    0.771298
     17          1           0       -1.863362   -0.808292   -0.517137
     18          1           0       -1.728972   -2.663943    1.178497
     19          1           0       -1.595931   -1.465519    2.474252
     20          1           0       -0.302781   -1.616828    1.272513
     21          6           0        2.183712   -2.144176   -0.881810
     22          6           0        3.495326   -2.040622   -0.406979
     23          6           0        4.020551   -0.798914   -0.037047
     24          6           0        3.202597    0.323695   -0.155329
     25          6           0        1.891955    0.252950   -0.624906
     26          6           0        1.387616   -0.999079   -0.989070
     27          1           0        1.783817   -3.112772   -1.166942
     28          1           0        4.115877   -2.928227   -0.322625
     29          1           0        5.032564   -0.690131    0.333649
     30          1           0        1.297512    1.155575   -0.697867
     31          1           0        0.368643   -1.076501   -1.357505
     32          7           0        3.747573    1.643698    0.233249
     33          8           0        3.006563    2.617678    0.119648
     34          8           0        4.905417    1.679343    0.644058
 ---------------------------------------------------------------------

 SCF Done:  E(RHF) =  -669.534818988     A.U. after   15 cycles
 E2 =    -0.2092759477D+01 EUMP2 =    -0.67162757846454D+03

 The electronic state is 1-A.
 Alpha  occ. eigenvalues --  -20.60771 -20.60766 -15.85824 -11.31200 -11.27759
 Alpha  occ. eigenvalues --  -11.27746 -11.27497 -11.26786 -11.26731 -11.22385
 Alpha  occ. eigenvalues --  -11.21950 -11.21931 -11.21810 -11.21578 -11.21340
 Alpha  occ. eigenvalues --   -1.59846  -1.39399  -1.19375  -1.08951  -1.08763
 Alpha  occ. eigenvalues --   -1.04786  -1.04023  -0.96445  -0.95597  -0.87461
 Alpha  occ. eigenvalues --   -0.86170  -0.82431  -0.80129  -0.78760  -0.77467
 Alpha  occ. eigenvalues --   -0.72042  -0.71169  -0.70469  -0.65617  -0.65019
 Alpha  occ. eigenvalues --   -0.64780  -0.62184  -0.61394  -0.59820  -0.58077
 Alpha  occ. eigenvalues --   -0.55724  -0.55261  -0.53437  -0.53021  -0.52875
 Alpha  occ. eigenvalues --   -0.52590  -0.50385  -0.48806  -0.48797  -0.48419
 Alpha  occ. eigenvalues --   -0.47159  -0.46285  -0.46201  -0.44803  -0.44274
 Alpha  occ. eigenvalues --   -0.37334  -0.36333
 Alpha virt. eigenvalues --    0.05045   0.11220   0.16499   0.20284   0.22664
 Alpha virt. eigenvalues --    0.24053   0.25415   0.26163   0.27466   0.28243
 Alpha virt. eigenvalues --    0.28717   0.29745   0.31243   0.31687   0.31954

 Mulliken charges:
               1
     1  C   -0.299020
     2  C   -0.300048
     3  C   -0.476090
     4  H    0.151889
     5  H    0.147452
     6  H    0.153418
     7  H    0.151801
     8  H    0.154903
     9  H    0.156665
    10  H    0.161460
    11  C   -0.297490
    12  C   -0.303226
    13  C   -0.483748
    14  H    0.153166
    15  H    0.149749
    16  H    0.155628
    17  H    0.140373
    18  H    0.152089
    19  H    0.159873
    20  H    0.167207
    21  C   -0.172672
    22  C   -0.218230
    23  C   -0.171151
    24  C    0.158863
    25  C   -0.173593
    26  C   -0.219937
    27  H    0.226359
    28  H    0.223591
    29  H    0.275649
    30  H    0.276408
    31  H    0.231289
    32  N    0.488118
    33  O   -0.460335
    34  O   -0.460410
 Sum of Mulliken charges =  -0.00000

 Dipole moment (field-independent basis, Debye):
    X=             -1.9857    Y=             -4.6182    Z=             -1.3105  Tot=              5.1950
 Quadrupole moment (field-independent basis, Debye-Ang):
   XX=           -103.3841   YY=            -97.4171   ZZ=            -94.5113
   XY=            -17.5317   XZ=             -3.4166   YZ=              0.6534

 Normal termination of Gaussian 16 at Thu May  6 05:42:12 2021.
