 Gaussian 16, Revision A.03,
 Gaussian 16:  EM64L-G16RevA.03 25-Dec-2016

 -------------
 #p 6-31g* mp2
 -------------

 ------------------------------------------------------
 Input file generated by CHIRIPA (05-May-2021 14:57:26)
 ------------------------------------------------------
 Symbolic Z-matrix:
 Charge =  0 Multiplicity = 1

                         Standard orientation:
 ---------------------------------------------------------------------
 Center     Atomic      Atomic             Coordinates (Angstroms)
 Number     Number       Type             X           Y           Z
 ---------------------------------------------------------------------
      1          6           0        2.260457    2.752989    0.527868
      2          6           0        3.165271    1.947060    1.226660
      3          6           0        3.379392    0.620512    0.840690
      4          6           0        2.668537    0.130206   -0.253647
      5          6           0        1.760352    0.908163   -0.970078
      6          6           0        1.562116    2.231887   -0.566341
      7          1           0        2.100292    3.782387    0.834599
      8          1           0        3.709006    2.349083    2.076821
      9          1           0        4.073960   -0.025480    1.363841
     10          1           0        1.233027    0.479260   -1.813517
     11          1           0        0.858806    2.855470   -1.110901
     12          7           0        2.886809   -1.272656   -0.671660
     13          8           0        2.248135   -1.680855   -1.639186
     14          8           0        3.692431   -1.937458   -0.023857
     15          6           0       -4.450483    1.028738   -0.877586
     16          6           0       -4.472939    0.780738    0.498827
     17          6           0       -3.470876    0.011839    1.098172
     18          6           0       -2.456813   -0.495809    0.287456
     19          6           0       -2.406802   -0.266253   -1.086623
     20          6           0       -3.419304    0.505374   -1.664530
     21          1           0       -5.232964    1.627097   -1.334845
     22          1           0       -5.272532    1.185914    1.112444
     23          1           0       -3.463873   -0.195626    2.161340
     24          1           0       -1.596738   -0.683595   -1.672321
     25          1           0       -3.399309    0.696353   -2.733723
     26          7           0       -1.390448   -1.311252    0.910609
     27          8           0       -0.508022   -1.747142    0.174429
     28          8           0       -1.457250   -1.499065    2.123416
 ---------------------------------------------------------------------

 SCF Done:  E(RHF) =  -868.337098792     A.U. after   16 cycles
 E2 =    -0.2601914685D+01 EUMP2 =    -0.87093901347697D+03

 The electronic state is 1-A.
 Alpha  occ. eigenvalues --  -20.60745 -20.60717 -20.59783 -20.59745 -15.85769
 Alpha  occ. eigenvalues --  -15.84827 -11.31319 -11.30478 -11.27900 -11.27897
 Alpha  occ. eigenvalues --  -11.27678 -11.27157 -11.27064 -11.26965 -11.26948
 Alpha  occ. eigenvalues --  -11.26936 -11.26259 -11.26177  -1.59804  -1.58795
 Alpha  occ. eigenvalues --   -1.39351  -1.38358  -1.19507  -1.18687  -1.08869
 Alpha  occ. eigenvalues --   -1.08027  -1.04936  -1.04166  -0.95673  -0.94824
 Alpha  occ. eigenvalues --   -0.86321  -0.85544  -0.82499  -0.81680  -0.77527
 Alpha  occ. eigenvalues --   -0.76658  -0.72028  -0.71150  -0.71077  -0.70612
 Alpha  occ. eigenvalues --   -0.69989  -0.69837  -0.65149  -0.64936  -0.64360
 Alpha  occ. eigenvalues --   -0.64199  -0.62280  -0.61521  -0.55424  -0.54679
 Alpha  occ. eigenvalues --   -0.53261  -0.53025  -0.52447  -0.52282  -0.48774
 Alpha  occ. eigenvalues --   -0.48741  -0.47840  -0.47794  -0.44753  -0.43663
 Alpha  occ. eigenvalues --   -0.37503  -0.36653  -0.36565  -0.35761
 Alpha virt. eigenvalues --    0.04987   0.05929   0.11058   0.11892   0.16463
 Alpha virt. eigenvalues --    0.17355   0.20782   0.21975   0.25969   0.27547
 Alpha virt. eigenvalues --    0.28126   0.29172   0.30392   0.31374   0.32173

 Mulliken charges:
               1
     1  C   -0.171974
     2  C   -0.218214
     3  C   -0.169059
     4  C    0.168074
     5  C   -0.168234
     6  C   -0.220255
     7  H    0.221835
     8  H    0.221586
     9  H    0.276155
    10  H    0.268551
    11  H    0.217158
    12  N    0.494222
    13  O   -0.458830
    14  O   -0.461593
    15  C   -0.171630
    16  C   -0.218769
    17  C   -0.171263
    18  C    0.159431
    19  C   -0.176899
    20  C   -0.220138
    21  H    0.225354
    22  H    0.223452
    23  H    0.276012
    24  H    0.280210
    25  H    0.223084
    26  N    0.488473
    27  O   -0.455994
    28  O   -0.460745
 Sum of Mulliken charges =  -0.00000

 Dipole moment (field-independent basis, Debye):
    X=             -4.5084    Y=              7.5006    Z=             -0.6497  Tot=              8.7753
 Quadrupole moment (field-independent basis, Debye-Ang):
   XX=            -88.4140   YY=           -107.9983   ZZ=           -100.7492
   XY=              6.7461   XZ=              9.2424   YZ=              1.0687

 Normal termination of Gaussian 16 at Thu May  6 16:28:00 2021.
