 Gaussian 16, Revision A.03,
 Gaussian 16:  EM64L-G16RevA.03 25-Dec-2016

 -------------
 #p 6-31g* mp2
 -------------

 ------------------------------------------------------
 Input file generated by CHIRIPA (05-May-2021 14:55:25)
 ------------------------------------------------------
 Symbolic Z-matrix:
 Charge =  0 Multiplicity = 1

                         Standard orientation:
 ---------------------------------------------------------------------
 Center     Atomic      Atomic             Coordinates (Angstroms)
 Number     Number       Type             X           Y           Z
 ---------------------------------------------------------------------
      1          6           0        4.703464    0.305562   -0.880667
      2          6           0        4.156183   -0.930456   -1.240199
      3          6           0        2.963248   -1.374028   -0.661666
      4          6           0        2.341355   -0.552394    0.277193
      5          6           0        2.861674    0.684109    0.656162
      6          6           0        4.055605    1.107486    0.064699
      7          1           0        5.630552    0.642295   -1.335107
      8          1           0        4.657138   -1.555337   -1.974102
      9          1           0        2.517546   -2.326475   -0.921687
     10          1           0        2.339312    1.284941    1.390708
     11          1           0        4.478323    2.067859    0.345836
     12          7           0        1.077920   -1.011294    0.896503
     13          8           0        0.549436   -0.268792    1.721144
     14          8           0        0.640048   -2.104791    0.545551
     15          6           0       -2.692371    0.969914    0.133512
     16          6           0       -2.196694    2.210421   -0.610418
     17          6           0       -1.054071    2.919092    0.117587
     18          1           0       -3.021894    1.261181    1.140250
     19          1           0       -1.854026    0.272542    0.268585
     20          1           0       -3.036037    2.904638   -0.745268
     21          1           0       -1.868492    1.916198   -1.615570
     22          1           0       -0.198837    2.246480    0.239109
     23          1           0       -1.373014    3.240536    1.114357
     24          1           0       -0.715145    3.803022   -0.431647
     25          6           0       -3.834564    0.250597   -0.581826
     26          6           0       -4.330240   -0.989911    0.162104
     27          6           0       -5.472864   -1.698582   -0.565902
     28          1           0       -4.672909    0.947969   -0.716901
     29          1           0       -3.505041   -0.040670   -1.588565
     30          1           0       -4.658442   -0.695687    1.167256
     31          1           0       -3.490899   -1.684127    0.296953
     32          1           0       -5.153920   -2.020027   -1.562671
     33          1           0       -6.328099   -1.025970   -0.687424
     34          1           0       -5.811790   -2.582511   -0.016667
 ---------------------------------------------------------------------

 SCF Done:  E(RHF) =  -669.536360457     A.U. after   15 cycles
 E2 =    -0.2092557156D+01 EUMP2 =    -0.67162891761295D+03

 The electronic state is 1-A.
 Alpha  occ. eigenvalues --  -20.61082 -20.61060 -15.86068 -11.31356 -11.27908
 Alpha  occ. eigenvalues --  -11.27899 -11.27635 -11.26906 -11.26893 -11.20814
 Alpha  occ. eigenvalues --  -11.20511 -11.20406 -11.20375 -11.20219 -11.20116
 Alpha  occ. eigenvalues --   -1.60120  -1.39676  -1.19516  -1.08929  -1.07416
 Alpha  occ. eigenvalues --   -1.04902  -1.02637  -0.95776  -0.95092  -0.86309
 Alpha  occ. eigenvalues --   -0.86117  -0.82610  -0.78693  -0.77672  -0.77179
 Alpha  occ. eigenvalues --   -0.72287  -0.71436  -0.70621  -0.65170  -0.64904
 Alpha  occ. eigenvalues --   -0.64049  -0.62251  -0.60047  -0.58460  -0.56691
 Alpha  occ. eigenvalues --   -0.55409  -0.54400  -0.53233  -0.52992  -0.51846
 Alpha  occ. eigenvalues --   -0.51521  -0.49220  -0.49063  -0.48876  -0.47031
 Alpha  occ. eigenvalues --   -0.45807  -0.45191  -0.44740  -0.44339  -0.42851
 Alpha  occ. eigenvalues --   -0.37489  -0.36494
 Alpha virt. eigenvalues --    0.04798   0.11073   0.16299   0.21195   0.23803
 Alpha virt. eigenvalues --    0.24983   0.26742   0.27533   0.27896   0.28796
 Alpha virt. eigenvalues --    0.28945   0.30692   0.31574   0.32434   0.32671

 Mulliken charges:
               1
     1  C   -0.170380
     2  C   -0.218449
     3  C   -0.170871
     4  C    0.158611
     5  C   -0.171492
     6  C   -0.218648
     7  H    0.226319
     8  H    0.224056
     9  H    0.275811
    10  H    0.277703
    11  H    0.224533
    12  N    0.486779
    13  O   -0.456856
    14  O   -0.459309
    15  C   -0.303694
    16  C   -0.299348
    17  C   -0.476379
    18  H    0.149370
    19  H    0.169029
    20  H    0.148332
    21  H    0.146943
    22  H    0.155719
    23  H    0.156089
    24  H    0.152141
    25  C   -0.297454
    26  C   -0.301313
    27  C   -0.475091
    28  H    0.144346
    29  H    0.145756
    30  H    0.150983
    31  H    0.163230
    32  H    0.152970
    33  H    0.151714
    34  H    0.158849
 Sum of Mulliken charges =  -0.00000

 Dipole moment (field-independent basis, Debye):
    X=              4.7287    Y=              1.4215    Z=             -2.0257  Tot=              5.3371
 Quadrupole moment (field-independent basis, Debye-Ang):
   XX=            -75.4554   YY=            -93.8689   ZZ=            -95.0743
   XY=              0.5541   XZ=             -5.3219   YZ=              4.5123

 Normal termination of Gaussian 16 at Wed May  5 20:48:37 2021.
