 Gaussian 16, Revision A.03,
 Gaussian 16:  EM64L-G16RevA.03 25-Dec-2016

 -------------
 #p 6-31g* mp2
 -------------

 ------------------------------------------------------
 Input file generated by CHIRIPA (05-May-2021 14:53:17)
 ------------------------------------------------------
 Symbolic Z-matrix:
 Charge =  0 Multiplicity = 1

                         Standard orientation:
 ---------------------------------------------------------------------
 Center     Atomic      Atomic             Coordinates (Angstroms)
 Number     Number       Type             X           Y           Z
 ---------------------------------------------------------------------
      1          6           0       -2.713012    0.802633   -0.379344
      2          6           0       -2.815685    2.245794    0.115357
      3          6           0       -1.651368    3.116936   -0.357158
      4          1           0       -1.764817    0.369459   -0.032600
      5          1           0       -2.674483    0.800674   -1.477481
      6          1           0       -2.855403    2.244947    1.212188
      7          1           0       -3.763834    2.675521   -0.232443
      8          1           0       -1.612236    3.147561   -1.450836
      9          1           0       -0.698644    2.714540    0.002003
     10          1           0       -1.744835    4.144491    0.007882
     11          6           0       -3.869783   -0.080638    0.084811
     12          6           0       -3.767109   -1.523800   -0.409890
     13          6           0       -4.931427   -2.394941    0.062626
     14          1           0       -3.908312   -0.078679    1.182949
     15          1           0       -4.817978    0.352535   -0.261933
     16          1           0       -2.818961   -1.953527   -0.062090
     17          1           0       -3.727392   -1.522952   -1.506721
     18          1           0       -5.884150   -1.992545   -0.296536
     19          1           0       -4.970558   -2.425566    1.156304
     20          1           0       -4.837960   -3.422496   -0.302414
     21          6           0        2.614339    2.238054    0.230216
     22          6           0        1.672997    1.519254    0.974341
     23          6           0        1.639997    0.122719    0.918220
     24          6           0        2.567254   -0.525662    0.103918
     25          6           0        3.517279    0.162370   -0.649313
     26          6           0        3.531858    1.558515   -0.577811
     27          1           0        2.632819    3.322765    0.279785
     28          1           0        0.959227    2.044342    1.602720
     29          1           0        0.921955   -0.458570    1.483849
     30          1           0        4.216023   -0.388995   -1.266703
     31          1           0        4.264039    2.114143   -1.156804
     32          7           0        2.542068   -2.003905    0.036365
     33          8           0        3.369768   -2.551547   -0.688644
     34          8           0        1.695105   -2.586918    0.709704
 ---------------------------------------------------------------------

 SCF Done:  E(RHF) =  -669.535026749     A.U. after   15 cycles
 E2 =    -0.2092601513D+01 EUMP2 =    -0.67162762826244D+03

 The electronic state is 1-A.
 Alpha  occ. eigenvalues --  -20.60825 -20.60820 -15.85880 -11.31268 -11.27849
 Alpha  occ. eigenvalues --  -11.27831 -11.27571 -11.26849 -11.26839 -11.22037
 Alpha  occ. eigenvalues --  -11.21647 -11.21593 -11.21518 -11.21458 -11.20940
 Alpha  occ. eigenvalues --   -1.59899  -1.39453  -1.19445  -1.08834  -1.08625
 Alpha  occ. eigenvalues --   -1.04858  -1.03719  -0.96188  -0.95660  -0.87217
 Alpha  occ. eigenvalues --   -0.86244  -0.82497  -0.79800  -0.78399  -0.77541
 Alpha  occ. eigenvalues --   -0.72098  -0.71221  -0.70536  -0.65310  -0.65096
 Alpha  occ. eigenvalues --   -0.64860  -0.62238  -0.61096  -0.59568  -0.57772
 Alpha  occ. eigenvalues --   -0.55542  -0.55312  -0.53218  -0.52976  -0.52872
 Alpha  occ. eigenvalues --   -0.52526  -0.50124  -0.48856  -0.48851  -0.48095
 Alpha  occ. eigenvalues --   -0.46834  -0.45943  -0.45855  -0.44853  -0.43971
 Alpha  occ. eigenvalues --   -0.37389  -0.36405
 Alpha virt. eigenvalues --    0.04970   0.11044   0.16389   0.20322   0.22965
 Alpha virt. eigenvalues --    0.24131   0.25799   0.26928   0.27071   0.28598
 Alpha virt. eigenvalues --    0.29063   0.30482   0.31356   0.31832   0.32015

 Mulliken charges:
               1
     1  C   -0.298770
     2  C   -0.299603
     3  C   -0.482397
     4  H    0.147184
     5  H    0.151830
     6  H    0.148416
     7  H    0.154446
     8  H    0.158320
     9  H    0.152960
    10  H    0.157710
    11  C   -0.298487
    12  C   -0.301358
    13  C   -0.475844
    14  H    0.148170
    15  H    0.149722
    16  H    0.157859
    17  H    0.152452
    18  H    0.153813
    19  H    0.154987
    20  H    0.162988
    21  C   -0.170271
    22  C   -0.217686
    23  C   -0.172147
    24  C    0.158493
    25  C   -0.170384
    26  C   -0.218240
    27  H    0.227063
    28  H    0.225566
    29  H    0.275583
    30  H    0.276002
    31  H    0.224001
    32  N    0.488214
    33  O   -0.460012
    34  O   -0.460578
 Sum of Mulliken charges =  -0.00000

 Dipole moment (field-independent basis, Debye):
    X=              0.1413    Y=              5.1150    Z=              0.1775  Tot=              5.1200
 Quadrupole moment (field-independent basis, Debye-Ang):
   XX=            -91.7213   YY=           -101.5217   ZZ=            -92.5112
   XY=             13.1765   XZ=             -1.4835   YZ=              0.2867

 Normal termination of Gaussian 16 at Wed May  5 20:24:20 2021.
