 Gaussian 16, Revision A.03,
 Gaussian 16:  EM64L-G16RevA.03 25-Dec-2016

 -------------
 #p 6-31g* mp2
 -------------

 ------------------------------------------------------
 Input file generated by CHIRIPA (05-May-2021 14:55:19)
 ------------------------------------------------------
 Symbolic Z-matrix:
 Charge =  0 Multiplicity = 1

                         Standard orientation:
 ---------------------------------------------------------------------
 Center     Atomic      Atomic             Coordinates (Angstroms)
 Number     Number       Type             X           Y           Z
 ---------------------------------------------------------------------
      1          6           0       -2.928627    2.569690   -0.200981
      2          6           0       -4.170515    1.950023   -0.027068
      3          6           0       -4.275983    0.555989   -0.036759
      4          6           0       -3.113938   -0.191004   -0.223687
      5          6           0       -1.862284    0.396954   -0.399635
      6          6           0       -1.780499    1.792548   -0.386383
      7          1           0       -2.855895    3.653215   -0.192070
      8          1           0       -5.063844    2.551037    0.117121
      9          1           0       -5.224768    0.050293    0.095519
     10          1           0       -0.989445   -0.228766   -0.541219
     11          1           0       -0.814706    2.271068   -0.521694
     12          7           0       -3.213056   -1.667631   -0.235831
     13          8           0       -2.174369   -2.303276   -0.402331
     14          8           0       -4.327555   -2.161407   -0.078621
     15          6           0        4.485079   -0.292875   -0.227973
     16          6           0        5.828597    0.422665   -0.083238
     17          6           0        6.858797   -0.039927   -1.114009
     18          1           0        4.641473   -1.376015   -0.131574
     19          1           0        4.093996   -0.122433   -1.240593
     20          1           0        6.216370    0.252071    0.929258
     21          1           0        5.668959    1.504242   -0.179801
     22          1           0        6.496771    0.145445   -2.130461
     23          1           0        7.047293   -1.113839   -1.015101
     24          1           0        7.811765    0.484403   -0.992388
     25          6           0        3.444782    0.158828    0.795488
     26          6           0        2.101264   -0.556712    0.650752
     27          6           0        1.071064   -0.094120    1.681523
     28          1           0        3.835865   -0.011613    1.808107
     29          1           0        3.288388    1.241968    0.699088
     30          1           0        2.260902   -1.638288    0.747316
     31          1           0        1.713491   -0.386118   -0.361744
     32          1           0        0.882568    0.979792    1.582615
     33          1           0        1.433090   -0.279491    2.697976
     34          1           0        0.118096   -0.618448    1.559903
 ---------------------------------------------------------------------

 SCF Done:  E(RHF) =  -669.534790893     A.U. after   15 cycles
 E2 =    -0.2092537359D+01 EUMP2 =    -0.67162732825243D+03

 The electronic state is 1-A.
 Alpha  occ. eigenvalues --  -20.60785 -20.60780 -15.85828 -11.31150 -11.27736
 Alpha  occ. eigenvalues --  -11.27690 -11.27481 -11.26739 -11.26722 -11.21963
 Alpha  occ. eigenvalues --  -11.21797 -11.21705 -11.21584 -11.21377 -11.21213
 Alpha  occ. eigenvalues --   -1.59855  -1.39410  -1.19336  -1.08739  -1.08707
 Alpha  occ. eigenvalues --   -1.04744  -1.03799  -0.96256  -0.95571  -0.87264
 Alpha  occ. eigenvalues --   -0.86136  -0.82409  -0.79859  -0.78506  -0.77464
 Alpha  occ. eigenvalues --   -0.72049  -0.71176  -0.70469  -0.65362  -0.64984
 Alpha  occ. eigenvalues --   -0.64762  -0.62215  -0.61138  -0.59570  -0.57841
 Alpha  occ. eigenvalues --   -0.55566  -0.55210  -0.53232  -0.52957  -0.52771
 Alpha  occ. eigenvalues --   -0.52467  -0.50185  -0.48806  -0.48803  -0.48168
 Alpha  occ. eigenvalues --   -0.46911  -0.46044  -0.45979  -0.44824  -0.44038
 Alpha  occ. eigenvalues --   -0.37321  -0.36288
 Alpha virt. eigenvalues --    0.05056   0.11234   0.16506   0.19926   0.22871
 Alpha virt. eigenvalues --    0.23917   0.26005   0.26484   0.27300   0.28039
 Alpha virt. eigenvalues --    0.29281   0.29557   0.31374   0.31562   0.32310

 Mulliken charges:
               1
     1  C   -0.170766
     2  C   -0.218922
     3  C   -0.170417
     4  C    0.157255
     5  C   -0.172108
     6  C   -0.220417
     7  H    0.225421
     8  H    0.223280
     9  H    0.275428
    10  H    0.283166
    11  H    0.223020
    12  N    0.488345
    13  O   -0.461747
    14  O   -0.459971
    15  C   -0.298560
    16  C   -0.299726
    17  C   -0.475865
    18  H    0.152653
    19  H    0.148797
    20  H    0.152699
    21  H    0.150457
    22  H    0.155129
    23  H    0.156585
    24  H    0.160556
    25  C   -0.297613
    26  C   -0.302545
    27  C   -0.484019
    28  H    0.151941
    29  H    0.145370
    30  H    0.161418
    31  H    0.144488
    32  H    0.147718
    33  H    0.160021
    34  H    0.168927
 Sum of Mulliken charges =  -0.00000

 Dipole moment (field-independent basis, Debye):
    X=              0.4209    Y=              5.0992    Z=              0.0986  Tot=              5.1175
 Quadrupole moment (field-independent basis, Debye-Ang):
   XX=            -92.3301   YY=            -96.8396   ZZ=            -95.5166
   XY=            -17.1549   XZ=             -0.1961   YZ=             -1.8872

 Normal termination of Gaussian 16 at Wed May  5 18:53:26 2021.
