 Gaussian 16, Revision A.03,
 Gaussian 16:  EM64L-G16RevA.03 25-Dec-2016

 -------------
 #p 6-31g* mp2
 -------------

 ------------------------------------------------------
 Input file generated by CHIRIPA (05-May-2021 14:53:14)
 ------------------------------------------------------
 Symbolic Z-matrix:
 Charge =  0 Multiplicity = 1

                         Standard orientation:
 ---------------------------------------------------------------------
 Center     Atomic      Atomic             Coordinates (Angstroms)
 Number     Number       Type             X           Y           Z
 ---------------------------------------------------------------------
      1          6           0       -4.789576   -0.226726   -0.352785
      2          6           0       -6.126914   -0.887200   -0.016203
      3          6           0       -6.804287   -1.507209   -1.238721
      4          1           0       -4.951715    0.546977   -1.115701
      5          1           0       -4.122226   -0.974627   -0.802987
      6          1           0       -6.791060   -0.138606    0.434499
      7          1           0       -5.961602   -1.659290    0.746139
      8          1           0       -6.163819   -2.273919   -1.686558
      9          1           0       -6.997990   -0.744594   -1.999969
     10          1           0       -7.758650   -1.973803   -0.975396
     11          6           0       -4.100255    0.397629    0.859132
     12          6           0       -2.762917    1.058103    0.522550
     13          6           0       -2.085544    1.678112    1.745068
     14          1           0       -4.767605    1.145530    1.309334
     15          1           0       -3.938116   -0.376074    1.622048
     16          1           0       -2.928229    1.830192   -0.239792
     17          1           0       -2.098771    0.309508    0.071848
     18          1           0       -1.891841    0.915497    2.506316
     19          1           0       -2.726012    2.444822    2.192905
     20          1           0       -1.131180    2.144706    1.481743
     21          6           0        1.630562    1.506191   -0.903966
     22          6           0        1.315371    0.292519   -0.284149
     23          6           0        2.327823   -0.586732    0.111332
     24          6           0        3.650670   -0.218826   -0.129521
     25          6           0        3.996682    0.983223   -0.744863
     26          6           0        2.967854    1.847069   -1.131944
     27          1           0        0.837704    2.183231   -1.207923
     28          1           0        0.277693    0.025173   -0.105830
     29          1           0        2.112029   -1.532637    0.593114
     30          1           0        5.040377    1.222164   -0.909253
     31          1           0        3.215593    2.788961   -1.613099
     32          7           0        4.731177   -1.141495    0.284710
     33          8           0        5.888766   -0.794100    0.061233
     34          8           0        4.400029   -2.194607    0.825018
 ---------------------------------------------------------------------

 SCF Done:  E(RHF) =  -669.535555309     A.U. after   15 cycles
 E2 =    -0.2091420596D+01 EUMP2 =    -0.67162697590492D+03

 The electronic state is 1-A.
 Alpha  occ. eigenvalues --  -20.60737 -20.60732 -15.85790 -11.31152 -11.27717
 Alpha  occ. eigenvalues --  -11.27707 -11.27453 -11.26735 -11.26692 -11.22755
 Alpha  occ. eigenvalues --  -11.22214 -11.22145 -11.22054 -11.22053 -11.21519
 Alpha  occ. eigenvalues --   -1.59813  -1.39366  -1.19320  -1.09226  -1.08715
 Alpha  occ. eigenvalues --   -1.04724  -1.04318  -0.96733  -0.95551  -0.87744
 Alpha  occ. eigenvalues --   -0.86121  -0.82384  -0.80415  -0.79009  -0.77433
 Alpha  occ. eigenvalues --   -0.72009  -0.71135  -0.70427  -0.65891  -0.64971
 Alpha  occ. eigenvalues --   -0.64736  -0.62160  -0.61636  -0.60114  -0.58342
 Alpha  occ. eigenvalues --   -0.56003  -0.55215  -0.53451  -0.53180  -0.53010
 Alpha  occ. eigenvalues --   -0.52808  -0.50667  -0.48789  -0.48764  -0.48689
 Alpha  occ. eigenvalues --   -0.47447  -0.46543  -0.46448  -0.44773  -0.44556
 Alpha  occ. eigenvalues --   -0.37298  -0.36320
 Alpha virt. eigenvalues --    0.05093   0.11270   0.16583   0.19365   0.22510
 Alpha virt. eigenvalues --    0.23863   0.25192   0.26234   0.26841   0.27698
 Alpha virt. eigenvalues --    0.29053   0.29592   0.30907   0.31502   0.31837

 Mulliken charges:
               1
     1  C   -0.298947
     2  C   -0.300337
     3  C   -0.476176
     4  H    0.150035
     5  H    0.148989
     6  H    0.153094
     7  H    0.153312
     8  H    0.155831
     9  H    0.155502
    10  H    0.162253
    11  C   -0.297705
    12  C   -0.306335
    13  C   -0.478310
    14  H    0.152899
    15  H    0.152070
    16  H    0.152573
    17  H    0.144474
    18  H    0.158833
    19  H    0.160480
    20  H    0.157706
    21  C   -0.174719
    22  C   -0.224638
    23  C   -0.173089
    24  C    0.159077
    25  C   -0.171312
    26  C   -0.218447
    27  H    0.226346
    28  H    0.235075
    29  H    0.275825
    30  H    0.275445
    31  H    0.223266
    32  N    0.487999
    33  O   -0.460563
    34  O   -0.460507
 Sum of Mulliken charges =  -0.00000

 Dipole moment (field-independent basis, Debye):
    X=             -4.0333    Y=              3.2647    Z=             -1.4043  Tot=              5.3757
 Quadrupole moment (field-independent basis, Debye-Ang):
   XX=           -119.7732   YY=            -93.9138   ZZ=            -94.9615
   XY=             14.5836   XZ=             -6.8401   YZ=             -1.9386

 Normal termination of Gaussian 16 at Thu May  6 20:19:50 2021.
