 Gaussian 16, Revision A.03,
 Gaussian 16:  EM64L-G16RevA.03 25-Dec-2016

 -------------
 #p 6-31g* mp2
 -------------

 ------------------------------------------------------
 Input file generated by CHIRIPA (05-May-2021 14:57:23)
 ------------------------------------------------------
 Symbolic Z-matrix:
 Charge =  0 Multiplicity = 1

                         Standard orientation:
 ---------------------------------------------------------------------
 Center     Atomic      Atomic             Coordinates (Angstroms)
 Number     Number       Type             X           Y           Z
 ---------------------------------------------------------------------
      1          6           0        1.855115   -1.061375    0.350469
      2          6           0        2.400459   -0.240542    1.343119
      3          6           0        3.668811    0.324362    1.179671
      4          6           0        4.367278    0.046110    0.005784
      5          6           0        3.850973   -0.767673   -1.001428
      6          6           0        2.580833   -1.321861   -0.816579
      7          1           0        0.869135   -1.496043    0.485751
      8          1           0        1.839130   -0.036513    2.250493
      9          1           0        4.114852    0.963382    1.932079
     10          1           0        4.434492   -0.952812   -1.895099
     11          1           0        2.159813   -1.958958   -1.589169
     12          7           0        5.710971    0.638477   -0.178579
     13          8           0        6.306094    0.377932   -1.221931
     14          8           0        6.143593    1.352102    0.723759
     15          6           0       -5.081539    2.381412   -0.285063
     16          6           0       -5.944221    1.281051   -0.246269
     17          6           0       -5.436874   -0.014407   -0.108661
     18          6           0       -4.055359   -0.173727   -0.012107
     19          6           0       -3.170059    0.902507   -0.047543
     20          6           0       -3.699648    2.188968   -0.185751
     21          1           0       -5.484297    3.384261   -0.392194
     22          1           0       -7.017851    1.427508   -0.323174
     23          1           0       -6.081979   -0.883992   -0.075791
     24          1           0       -2.104395    0.724919    0.031452
     25          1           0       -3.027293    3.041666   -0.215583
     26          7           0       -3.506480   -1.540408    0.133890
     27          8           0       -2.285494   -1.654096    0.216985
     28          8           0       -4.307649   -2.472046    0.162464
 ---------------------------------------------------------------------

 SCF Done:  E(RHF) =  -868.339938314     A.U. after   16 cycles
 E2 =    -0.2598235319D+01 EUMP2 =    -0.87093817363261D+03

 The electronic state is 1-A.
 Alpha  occ. eigenvalues --  -20.61769 -20.61702 -20.60466 -20.60460 -15.86788
 Alpha  occ. eigenvalues --  -15.85517 -11.31910 -11.30760 -11.28476 -11.28423
 Alpha  occ. eigenvalues --  -11.28123 -11.27405 -11.27385 -11.27349 -11.27317
 Alpha  occ. eigenvalues --  -11.26842 -11.26275 -11.26215  -1.60798  -1.59546
 Alpha  occ. eigenvalues --   -1.40365  -1.39102  -1.20055  -1.18911  -1.09487
 Alpha  occ. eigenvalues --   -1.08289  -1.05423  -1.04306  -0.96367  -0.95146
 Alpha  occ. eigenvalues --   -0.86831  -0.85685  -0.83216  -0.81995  -0.78292
 Alpha  occ. eigenvalues --   -0.77097  -0.73028  -0.72105  -0.71734  -0.71157
 Alpha  occ. eigenvalues --   -0.70871  -0.69887  -0.65711  -0.65417  -0.64541
 Alpha  occ. eigenvalues --   -0.64286  -0.62777  -0.61662  -0.55918  -0.54633
 Alpha  occ. eigenvalues --   -0.53762  -0.53509  -0.52641  -0.52376  -0.49780
 Alpha  occ. eigenvalues --   -0.49724  -0.48499  -0.48480  -0.45823  -0.44536
 Alpha  occ. eigenvalues --   -0.38012  -0.37016  -0.36839  -0.35939
 Alpha virt. eigenvalues --    0.04237   0.05443   0.10642   0.11727   0.15788
 Alpha virt. eigenvalues --    0.16961   0.20632   0.22048   0.26545   0.27231
 Alpha virt. eigenvalues --    0.27812   0.29039   0.30499   0.31302   0.32724

 Mulliken charges:
               1
     1  C   -0.181437
     2  C   -0.222444
     3  C   -0.171925
     4  C    0.157178
     5  C   -0.171770
     6  C   -0.221052
     7  H    0.249981
     8  H    0.222233
     9  H    0.273179
    10  H    0.274068
    11  H    0.226278
    12  N    0.488204
    13  O   -0.461574
    14  O   -0.462348
    15  C   -0.169955
    16  C   -0.218333
    17  C   -0.170481
    18  C    0.158206
    19  C   -0.170801
    20  C   -0.218357
    21  H    0.228344
    22  H    0.225844
    23  H    0.276822
    24  H    0.271301
    25  H    0.225873
    26  N    0.493987
    27  O   -0.475932
    28  O   -0.455090
 Sum of Mulliken charges =  -0.00000

 Dipole moment (field-independent basis, Debye):
    X=             -7.1412    Y=              2.7054    Z=              0.0997  Tot=              7.6372
 Quadrupole moment (field-independent basis, Debye-Ang):
   XX=           -126.6091   YY=           -105.7279   ZZ=           -101.9480
   XY=            -27.4530   XZ=              4.7244   YZ=              2.3513

 Normal termination of Gaussian 16 at Wed May  5 21:00:50 2021.
