 Gaussian 16, Revision A.03,
 Gaussian 16:  EM64L-G16RevA.03 25-Dec-2016

 -------------
 #p 6-31g* mp2
 -------------

 ------------------------------------------------------
 Input file generated by CHIRIPA (05-May-2021 14:57:27)
 ------------------------------------------------------
 Symbolic Z-matrix:
 Charge =  0 Multiplicity = 1

                         Standard orientation:
 ---------------------------------------------------------------------
 Center     Atomic      Atomic             Coordinates (Angstroms)
 Number     Number       Type             X           Y           Z
 ---------------------------------------------------------------------
      1          6           0       -2.308832    1.872858    1.339225
      2          6           0       -2.053007    0.649910    1.968091
      3          6           0       -1.989121   -0.531666    1.223548
      4          6           0       -2.186797   -0.453340   -0.154160
      5          6           0       -2.443484    0.749834   -0.809733
      6          6           0       -2.502912    1.918836   -0.045239
      7          1           0       -2.356729    2.785851    1.925353
      8          1           0       -1.901884    0.611196    3.043130
      9          1           0       -1.792660   -1.491914    1.684790
     10          1           0       -2.589931    0.756736   -1.883010
     11          1           0       -2.701756    2.867181   -0.536308
     12          7           0       -2.121524   -1.697565   -0.952935
     13          8           0       -2.299222   -1.601805   -2.165325
     14          8           0       -1.893899   -2.744991   -0.351500
     15          6           0        1.554586    2.465131   -0.996345
     16          6           0        2.461892    1.628837   -1.655078
     17          6           0        2.825375    0.398319   -1.099874
     18          6           0        2.259715    0.033958    0.121012
     19          6           0        1.353086    0.845207    0.801593
     20          6           0        1.004050    2.071341    0.227730
     21          1           0        1.277836    3.419324   -1.434889
     22          1           0        2.891032    1.932071   -2.605833
     23          1           0        3.525435   -0.268499   -1.588429
     24          1           0        0.942008    0.515658    1.748075
     25          1           0        0.299178    2.718785    0.741555
     26          7           0        2.636871   -1.266415    0.718659
     27          8           0        2.124416   -1.564393    1.795337
     28          8           0        3.437798   -1.963048    0.099099
 ---------------------------------------------------------------------

 SCF Done:  E(RHF) =  -868.334269447     A.U. after   16 cycles
 E2 =    -0.2606443772D+01 EUMP2 =    -0.87094071321929D+03

 The electronic state is 1-A.
 Alpha  occ. eigenvalues --  -20.60982 -20.60945 -20.60705 -20.60676 -15.86028
 Alpha  occ. eigenvalues --  -15.85746 -11.31665 -11.31146 -11.28306 -11.28226
 Alpha  occ. eigenvalues --  -11.28130 -11.27687 -11.27676 -11.27501 -11.27401
 Alpha  occ. eigenvalues --  -11.27336 -11.26751 -11.26729  -1.60038  -1.59757
 Alpha  occ. eigenvalues --   -1.39581  -1.39315  -1.19924  -1.19315  -1.09289
 Alpha  occ. eigenvalues --   -1.08725  -1.05343  -1.04732  -0.96048  -0.95556
 Alpha  occ. eigenvalues --   -0.86736  -0.86144  -0.82861  -0.82392  -0.77832
 Alpha  occ. eigenvalues --   -0.77435  -0.72242  -0.71971  -0.71374  -0.71075
 Alpha  occ. eigenvalues --   -0.71026  -0.70482  -0.65553  -0.65338  -0.64986
 Alpha  occ. eigenvalues --   -0.64794  -0.62643  -0.62175  -0.55884  -0.55341
 Alpha  occ. eigenvalues --   -0.54106  -0.53413  -0.52890  -0.52496  -0.49028
 Alpha  occ. eigenvalues --   -0.48975  -0.48731  -0.48711  -0.44924  -0.44709
 Alpha  occ. eigenvalues --   -0.38084  -0.37558  -0.36566  -0.36213
 Alpha virt. eigenvalues --    0.04619   0.05126   0.10588   0.11348   0.15904
 Alpha virt. eigenvalues --    0.16595   0.20188   0.21973   0.26232   0.26794
 Alpha virt. eigenvalues --    0.28285   0.28618   0.30114   0.31579   0.32124

 Mulliken charges:
               1
     1  C   -0.183565
     2  C   -0.227067
     3  C   -0.169037
     4  C    0.161686
     5  C   -0.165750
     6  C   -0.217345
     7  H    0.224685
     8  H    0.227897
     9  H    0.286446
    10  H    0.276695
    11  H    0.221337
    12  N    0.487223
    13  O   -0.460830
    14  O   -0.452907
    15  C   -0.174605
    16  C   -0.217767
    17  C   -0.170035
    18  C    0.158067
    19  C   -0.171189
    20  C   -0.209186
    21  H    0.221112
    22  H    0.223546
    23  H    0.277037
    24  H    0.269238
    25  H    0.215581
    26  N    0.489954
    27  O   -0.464401
    28  O   -0.456818
 Sum of Mulliken charges =  -0.00000

 Dipole moment (field-independent basis, Debye):
    X=             -1.6798    Y=              8.5933    Z=              0.6227  Tot=              8.7781
 Quadrupole moment (field-independent basis, Debye-Ang):
   XX=           -108.9365   YY=           -108.3404   ZZ=           -100.2827
   XY=             -0.2154   XZ=            -13.0829   YZ=             -3.3549

 Normal termination of Gaussian 16 at Thu May  6 06:49:54 2021.
