 Gaussian 16, Revision A.03,
 Gaussian 16:  EM64L-G16RevA.03 25-Dec-2016

 -------------
 #p 6-31g* mp2
 -------------

 ------------------------------------------------------
 Input file generated by CHIRIPA (05-May-2021 14:51:14)
 ------------------------------------------------------
 Symbolic Z-matrix:
 Charge =  0 Multiplicity = 1

                         Standard orientation:
 ---------------------------------------------------------------------
 Center     Atomic      Atomic             Coordinates (Angstroms)
 Number     Number       Type             X           Y           Z
 ---------------------------------------------------------------------
      1          6           0        2.446970    1.032520   -0.105862
      2          6           0        3.183882    2.009580    0.810816
      3          6           0        2.444995    3.338088    0.974845
      4          1           0        2.305485    1.499022   -1.090394
      5          1           0        1.442591    0.846940    0.299327
      6          1           0        4.187071    2.192187    0.404760
      7          1           0        3.323798    1.540624    1.793222
      8          1           0        1.450048    3.175387    1.401705
      9          1           0        2.318226    3.830652    0.005354
     10          1           0        2.989343    4.021506    1.634000
     11          6           0        3.173211   -0.300175   -0.279717
     12          6           0        2.436299   -1.277235   -1.196396
     13          6           0        3.175186   -2.605744   -1.360424
     14          1           0        4.177590   -0.114595   -0.684907
     15          1           0        3.314696   -0.766678    0.704814
     16          1           0        2.296383   -0.808280   -2.178801
     17          1           0        1.433110   -1.459843   -0.790340
     18          1           0        3.301955   -3.098308   -0.390934
     19          1           0        4.170133   -2.443042   -1.787284
     20          1           0        2.630837   -3.289161   -2.019579
     21          6           0       -2.787335   -1.082863    0.455977
     22          6           0       -1.441668   -1.458128    1.077540
     23          6           0       -1.411732   -2.894953    1.599491
     24          1           0       -3.580327   -1.219368    1.203959
     25          1           0       -3.010066   -1.777259   -0.365972
     26          1           0       -1.220890   -0.762379    1.897177
     27          1           0       -0.651763   -1.320532    0.328050
     28          1           0       -1.606835   -3.603688    0.788176
     29          1           0       -2.179196   -3.042362    2.366218
     30          1           0       -0.440603   -3.142052    2.039617
     31          6           0       -2.832846    0.350519   -0.070398
     32          6           0       -4.178513    0.725784   -0.691961
     33          6           0       -4.208448    2.162609   -1.213911
     34          1           0       -2.610115    1.044915    0.751551
     35          1           0       -2.039854    0.487023   -0.818379
     36          1           0       -4.968417    0.588188    0.057529
     37          1           0       -4.399290    0.030034   -1.511598
     38          1           0       -3.440985    2.310018   -1.980639
     39          1           0       -4.013346    2.871343   -0.402597
     40          1           0       -5.179578    2.409708   -1.654038
 ---------------------------------------------------------------------

 SCF Done:  E(RHF) =  -470.733385732     A.U. after   11 cycles
 E2 =    -0.1583245035D+01 EUMP2 =    -0.47231663076633D+03

 The electronic state is 1-A.
 Alpha  occ. eigenvalues --  -11.21655 -11.21613 -11.21601 -11.21581 -11.21434
 Alpha  occ. eigenvalues --  -11.21386 -11.21372 -11.21322 -11.21127 -11.21078
 Alpha  occ. eigenvalues --  -11.21071 -11.21050  -1.08469  -1.08412  -1.03570
 Alpha  occ. eigenvalues --   -1.03516  -0.96007  -0.95966  -0.87024  -0.86983
 Alpha  occ. eigenvalues --   -0.79670  -0.79556  -0.78347  -0.78160  -0.65181
 Alpha  occ. eigenvalues --   -0.64974  -0.61072  -0.60821  -0.59393  -0.59319
 Alpha  occ. eigenvalues --   -0.57622  -0.57575  -0.55301  -0.55243  -0.52707
 Alpha  occ. eigenvalues --   -0.52663  -0.52432  -0.52392  -0.49989  -0.49880
 Alpha  occ. eigenvalues --   -0.48058  -0.47858  -0.46892  -0.46467  -0.46084
 Alpha  occ. eigenvalues --   -0.45761  -0.45739  -0.45260  -0.43814  -0.43770
 Alpha virt. eigenvalues --    0.20692   0.23291   0.23735   0.24642   0.25172
 Alpha virt. eigenvalues --    0.26679   0.27058   0.27826   0.28035   0.29659
 Alpha virt. eigenvalues --    0.30658   0.31467   0.31751   0.31815   0.32172

 Mulliken charges:
               1
     1  C   -0.301224
     2  C   -0.299575
     3  C   -0.475659
     4  H    0.149174
     5  H    0.152721
     6  H    0.151819
     7  H    0.151866
     8  H    0.155329
     9  H    0.155163
    10  H    0.160071
    11  C   -0.297331
    12  C   -0.308959
    13  C   -0.474931
    14  H    0.149505
    15  H    0.149509
    16  H    0.151610
    17  H    0.159997
    18  H    0.155215
    19  H    0.155262
    20  H    0.159985
    21  C   -0.297406
    22  C   -0.310832
    23  C   -0.475252
    24  H    0.149836
    25  H    0.149665
    26  H    0.151666
    27  H    0.161438
    28  H    0.155453
    29  H    0.155599
    30  H    0.159970
    31  C   -0.298986
    32  C   -0.299678
    33  C   -0.475747
    34  H    0.149235
    35  H    0.150605
    36  H    0.151949
    37  H    0.152000
    38  H    0.155424
    39  H    0.155263
    40  H    0.160251
 Sum of Mulliken charges =  -0.00000

 Dipole moment (field-independent basis, Debye):
    X=             -0.0219    Y=             -0.0058    Z=             -0.0012  Tot=              0.0227
 Quadrupole moment (field-independent basis, Debye-Ang):
   XX=            -84.6528   YY=            -86.5895   ZZ=            -83.5241
   XY=              0.6839   XZ=             -0.6791   YZ=              0.1866

 Normal termination of Gaussian 16 at Wed May  5 21:39:30 2021.
