 Gaussian 16, Revision A.03,
 Gaussian 16:  EM64L-G16RevA.03 25-Dec-2016

 -------------
 #p 6-31g* mp2
 -------------

 ------------------------------------------------------
 Input file generated by CHIRIPA (05-May-2021 14:57:22)
 ------------------------------------------------------
 Symbolic Z-matrix:
 Charge =  0 Multiplicity = 1

                         Standard orientation:
 ---------------------------------------------------------------------
 Center     Atomic      Atomic             Coordinates (Angstroms)
 Number     Number       Type             X           Y           Z
 ---------------------------------------------------------------------
      1          6           0        4.234077    1.425086    0.609383
      2          6           0        3.320717    1.927739   -0.323159
      3          6           0        2.326171    1.103653   -0.858237
      4          6           0        2.273803   -0.224032   -0.436574
      5          6           0        3.169338   -0.754275    0.490868
      6          6           0        4.155611    0.088040    1.012709
      7          1           0        5.003451    2.072337    1.019903
      8          1           0        3.379267    2.965695   -0.638221
      9          1           0        1.606311    1.466815   -1.581656
     10          1           0        3.085818   -1.793295    0.785622
     11          1           0        4.863600   -0.305049    1.736779
     12          7           0        1.225301   -1.106104   -0.996030
     13          8           0        1.200401   -2.272138   -0.608237
     14          8           0        0.448238   -0.614737   -1.811732
     15          6           0       -3.138908    2.453190   -0.153863
     16          6           0       -3.461192    1.427656   -1.048812
     17          6           0       -3.082696    0.108328   -0.782988
     18          6           0       -2.379680   -0.150905    0.392536
     19          6           0       -2.043794    0.849087    1.303845
     20          6           0       -2.432482    2.161147    1.017545
     21          1           0       -3.436891    3.475252   -0.368314
     22          1           0       -4.009736    1.651525   -1.959321
     23          1           0       -3.319150   -0.704816   -1.458491
     24          1           0       -1.496185    0.594995    2.203279
     25          1           0       -2.180824    2.955575    1.714392
     26          7           0       -1.973587   -1.543772    0.684790
     27          8           0       -1.354898   -1.746045    1.727358
     28          8           0       -2.281672   -2.406853   -0.134240
 ---------------------------------------------------------------------

 SCF Done:  E(RHF) =  -868.336384333     A.U. after   16 cycles
 E2 =    -0.2602636600D+01 EUMP2 =    -0.87093902093279D+03

 The electronic state is 1-A.
 Alpha  occ. eigenvalues --  -20.60467 -20.60346 -20.59669 -20.59556 -15.85434
 Alpha  occ. eigenvalues --  -15.84668 -11.30943 -11.30305 -11.27580 -11.27482
 Alpha  occ. eigenvalues --  -11.27333 -11.27010 -11.26857 -11.26798 -11.26625
 Alpha  occ. eigenvalues --  -11.26553 -11.26103 -11.25990  -1.59483  -1.58659
 Alpha  occ. eigenvalues --   -1.39021  -1.38218  -1.19140  -1.18528  -1.08514
 Alpha  occ. eigenvalues --   -1.07888  -1.04562  -1.03987  -0.95320  -0.94674
 Alpha  occ. eigenvalues --   -0.85953  -0.85378  -0.82149  -0.81516  -0.77171
 Alpha  occ. eigenvalues --   -0.76498  -0.71642  -0.71137  -0.70910  -0.70251
 Alpha  occ. eigenvalues --   -0.69685  -0.69668  -0.64790  -0.64570  -0.64197
 Alpha  occ. eigenvalues --   -0.64022  -0.61901  -0.61338  -0.55072  -0.54524
 Alpha  occ. eigenvalues --   -0.52891  -0.52656  -0.52298  -0.52103  -0.48445
 Alpha  occ. eigenvalues --   -0.48392  -0.47677  -0.47620  -0.44434  -0.43496
 Alpha  occ. eigenvalues --   -0.37145  -0.36513  -0.36176  -0.35576
 Alpha virt. eigenvalues --    0.05342   0.06065   0.11474   0.12068   0.16788
 Alpha virt. eigenvalues --    0.17502   0.21584   0.22045   0.27486   0.27932
 Alpha virt. eigenvalues --    0.28509   0.28982   0.31092   0.31535   0.32797

 Mulliken charges:
               1
     1  C   -0.171581
     2  C   -0.219647
     3  C   -0.171824
     4  C    0.158439
     5  C   -0.168278
     6  C   -0.219279
     7  H    0.224088
     8  H    0.220526
     9  H    0.273418
    10  H    0.280627
    11  H    0.223712
    12  N    0.482973
    13  O   -0.443367
    14  O   -0.468264
    15  C   -0.173140
    16  C   -0.219724
    17  C   -0.158671
    18  C    0.162482
    19  C   -0.175558
    20  C   -0.220072
    21  H    0.220813
    22  H    0.221140
    23  H    0.279167
    24  H    0.271394
    25  H    0.217731
    26  N    0.488928
    27  O   -0.468454
    28  O   -0.447581
 Sum of Mulliken charges =  -0.00000

 Dipole moment (field-independent basis, Debye):
    X=              2.3152    Y=              7.4896    Z=              0.7799  Tot=              7.8780
 Quadrupole moment (field-independent basis, Debye-Ang):
   XX=            -81.2089   YY=           -105.1708   ZZ=           -103.3580
   XY=             -5.7339   XZ=              8.7236   YZ=             -0.5582

 Normal termination of Gaussian 16 at Thu May  6 14:33:42 2021.
