 Gaussian 16, Revision A.03,
 Gaussian 16:  EM64L-G16RevA.03 25-Dec-2016

 -------------
 #p 6-31g* mp2
 -------------

 ------------------------------------------------------
 Input file generated by CHIRIPA (05-May-2021 14:55:19)
 ------------------------------------------------------
 Symbolic Z-matrix:
 Charge =  0 Multiplicity = 1

                         Standard orientation:
 ---------------------------------------------------------------------
 Center     Atomic      Atomic             Coordinates (Angstroms)
 Number     Number       Type             X           Y           Z
 ---------------------------------------------------------------------
      1          6           0       -3.532705    1.181305    0.676991
      2          6           0       -3.806162    0.330947   -0.399407
      3          6           0       -2.942967   -0.724825   -0.707280
      4          6           0       -1.810310   -0.901997    0.085808
      5          6           0       -1.510528   -0.071775    1.164767
      6          6           0       -2.387779    0.977590    1.454272
      7          1           0       -4.208715    1.998966    0.909020
      8          1           0       -4.694581    0.486769   -1.004780
      9          1           0       -3.130554   -1.398155   -1.534841
     10          1           0       -0.617052   -0.252246    1.750043
     11          1           0       -2.172881    1.636416    2.290820
     12          7           0       -0.889044   -2.016304   -0.230401
     13          8           0        0.102195   -2.151168    0.483668
     14          8           0       -1.175638   -2.733734   -1.186327
     15          6           0        1.990487    1.246690   -0.629161
     16          6           0        1.461201    2.573546   -0.083915
     17          6           0        0.419595    3.215944   -1.000525
     18          1           0        2.427996    1.414317   -1.622857
     19          1           0        1.148826    0.554656   -0.770902
     20          1           0        2.303779    3.262401    0.058061
     21          1           0        1.025073    2.402776    0.908681
     22          1           0       -0.439459    2.550380   -1.133385
     23          1           0        0.846512    3.414890   -1.988838
     24          1           0        0.054723    4.163320   -0.591616
     25          6           0        3.032607    0.592275    0.276077
     26          6           0        3.561893   -0.734581   -0.269169
     27          6           0        4.603499   -1.376979    0.647441
     28          1           0        3.874269    1.284309    0.417818
     29          1           0        2.595098    0.424648    1.269773
     30          1           0        3.998021   -0.563811   -1.261765
     31          1           0        2.719315   -1.423436   -0.411145
     32          1           0        4.176581   -1.575924    1.635755
     33          1           0        5.462553   -0.711415    0.780301
     34          1           0        4.968370   -2.324356    0.238532
 ---------------------------------------------------------------------

 SCF Done:  E(RHF) =  -669.536528936     A.U. after   15 cycles
 E2 =    -0.2094161630D+01 EUMP2 =    -0.67163069056559D+03

 The electronic state is 1-A.
 Alpha  occ. eigenvalues --  -20.61081 -20.61071 -15.86087 -11.31382 -11.27945
 Alpha  occ. eigenvalues --  -11.27932 -11.27664 -11.26938 -11.26925 -11.21556
 Alpha  occ. eigenvalues --  -11.21086 -11.21016 -11.20798 -11.20503 -11.20184
 Alpha  occ. eigenvalues --   -1.60126  -1.39684  -1.19549  -1.08954  -1.07952
 Alpha  occ. eigenvalues --   -1.04935  -1.03015  -0.95800  -0.95510  -0.86540
 Alpha  occ. eigenvalues --   -0.86330  -0.82634  -0.79145  -0.77725  -0.77665
 Alpha  occ. eigenvalues --   -0.72317  -0.71444  -0.70646  -0.65207  -0.64941
 Alpha  occ. eigenvalues --   -0.64567  -0.62273  -0.60406  -0.58934  -0.57097
 Alpha  occ. eigenvalues --   -0.55434  -0.54810  -0.53248  -0.53018  -0.52232
 Alpha  occ. eigenvalues --   -0.51928  -0.49480  -0.49089  -0.49065  -0.47443
 Alpha  occ. eigenvalues --   -0.46174  -0.45560  -0.45244  -0.44586  -0.43287
 Alpha  occ. eigenvalues --   -0.37503  -0.36511
 Alpha virt. eigenvalues --    0.04778   0.11065   0.16219   0.20454   0.22995
 Alpha virt. eigenvalues --    0.24667   0.25868   0.27148   0.27815   0.28256
 Alpha virt. eigenvalues --    0.29280   0.30910   0.31776   0.32024   0.32453

 Mulliken charges:
               1
     1  C   -0.170302
     2  C   -0.218653
     3  C   -0.170753
     4  C    0.156765
     5  C   -0.170721
     6  C   -0.217705
     7  H    0.226831
     8  H    0.224440
     9  H    0.276271
    10  H    0.276875
    11  H    0.224868
    12  N    0.489284
    13  O   -0.459997
    14  O   -0.457381
    15  C   -0.300060
    16  C   -0.296699
    17  C   -0.477212
    18  H    0.150055
    19  H    0.149145
    20  H    0.152116
    21  H    0.141761
    22  H    0.156598
    23  H    0.156233
    24  H    0.155307
    25  C   -0.294652
    26  C   -0.309741
    27  C   -0.474694
    28  H    0.145471
    29  H    0.145422
    30  H    0.146564
    31  H    0.179054
    32  H    0.155671
    33  H    0.149042
    34  H    0.160795
 Sum of Mulliken charges =  -0.00000

 Dipole moment (field-independent basis, Debye):
    X=             -3.4702    Y=              3.6834    Z=              1.0712  Tot=              5.1728
 Quadrupole moment (field-independent basis, Debye-Ang):
   XX=            -82.0854   YY=           -102.4808   ZZ=            -92.0566
   XY=             -2.9675   XZ=             -0.6834   YZ=              0.6887

 Normal termination of Gaussian 16 at Thu May  6 01:18:52 2021.
