 Gaussian 16, Revision A.03,
 Gaussian 16:  EM64L-G16RevA.03 25-Dec-2016

 -------------
 #p 6-31g* mp2
 -------------

 ------------------------------------------------------
 Input file generated by CHIRIPA (05-May-2021 14:51:11)
 ------------------------------------------------------
 Symbolic Z-matrix:
 Charge =  0 Multiplicity = 1

                         Standard orientation:
 ---------------------------------------------------------------------
 Center     Atomic      Atomic             Coordinates (Angstroms)
 Number     Number       Type             X           Y           Z
 ---------------------------------------------------------------------
      1          6           0        4.058413   -0.433747   -0.117773
      2          6           0        2.992892    0.655532   -0.244738
      3          6           0        1.578864    0.087549   -0.370084
      4          1           0        4.003675   -1.095141   -0.993277
      5          1           0        3.833400   -1.056602    0.759048
      6          1           0        3.220621    1.276995   -1.120261
      7          1           0        3.050300    1.314523    0.631076
      8          1           0        1.327038   -0.516278    0.507742
      9          1           0        1.498327   -0.554019   -1.253547
     10          1           0        0.832994    0.883483   -0.459677
     11          6           0        5.477197    0.118401    0.008374
     12          6           0        6.542718   -0.970878    0.135340
     13          6           0        7.956747   -0.402895    0.260686
     14          1           0        5.702210    0.741256   -0.868447
     15          1           0        5.531935    0.779795    0.883878
     16          1           0        6.485310   -1.629869   -0.740475
     17          1           0        6.314989   -1.592341    1.010862
     18          1           0        8.037284    0.238673    1.144148
     19          1           0        8.208572    0.200932   -0.617140
     20          1           0        8.702616   -1.198829    0.350278
     21          6           0       -5.310739   -0.226590   -0.320795
     22          6           0       -6.453973   -0.696281    0.579423
     23          6           0       -7.532347   -1.463497   -0.186268
     24          1           0       -5.718312    0.409091   -1.118755
     25          1           0       -4.860566   -1.098614   -0.815076
     26          1           0       -6.900961    0.176231    1.072923
     27          1           0       -6.043606   -1.330761    1.375444
     28          1           0       -7.106819   -2.351170   -0.665394
     29          1           0       -7.969044   -0.835616   -0.969635
     30          1           0       -8.339902   -1.789892    0.476440
     31          6           0       -4.224871    0.541937    0.430194
     32          6           0       -3.081637    1.011627   -0.470024
     33          6           0       -2.003263    1.778842    0.295667
     34          1           0       -4.675045    1.413960    0.924475
     35          1           0       -3.817298   -0.093744    1.228153
     36          1           0       -3.492004    1.646108   -1.266046
     37          1           0       -2.634651    0.139116   -0.963524
     38          1           0       -1.566566    1.150961    1.079033
     39          1           0       -2.428791    2.666516    0.774793
     40          1           0       -1.195708    2.105239   -0.367040
 ---------------------------------------------------------------------

 SCF Done:  E(RHF) =  -470.732991382     A.U. after   11 cycles
 E2 =    -0.1582338187D+01 EUMP2 =    -0.47231532956879D+03

 The electronic state is 1-A.
 Alpha  occ. eigenvalues --  -11.21590 -11.21586 -11.21579 -11.21559 -11.21390
 Alpha  occ. eigenvalues --  -11.21379 -11.21330 -11.21319 -11.21061 -11.21059
 Alpha  occ. eigenvalues --  -11.21050 -11.20969  -1.08417  -1.08399  -1.03534
 Alpha  occ. eigenvalues --   -1.03480  -0.96019  -0.95899  -0.87065  -0.86889
 Alpha  occ. eigenvalues --   -0.79618  -0.79522  -0.78226  -0.78215  -0.65047
 Alpha  occ. eigenvalues --   -0.65029  -0.60941  -0.60879  -0.59609  -0.59114
 Alpha  occ. eigenvalues --   -0.57692  -0.57437  -0.55298  -0.55193  -0.52977
 Alpha  occ. eigenvalues --   -0.52460  -0.52421  -0.52184  -0.49948  -0.49831
 Alpha  occ. eigenvalues --   -0.47949  -0.47820  -0.46635  -0.46566  -0.45772
 Alpha  occ. eigenvalues --   -0.45754  -0.45695  -0.45679  -0.43927  -0.43561
 Alpha virt. eigenvalues --    0.22129   0.23002   0.23516   0.24957   0.26567
 Alpha virt. eigenvalues --    0.26680   0.27055   0.27480   0.27559   0.28972
 Alpha virt. eigenvalues --    0.29831   0.31315   0.31513   0.31969   0.32045

 Mulliken charges:
               1
     1  C   -0.298404
     2  C   -0.299180
     3  C   -0.482118
     4  H    0.149475
     5  H    0.149338
     6  H    0.151472
     7  H    0.151949
     8  H    0.154130
     9  H    0.154151
    10  H    0.168695
    11  C   -0.298202
    12  C   -0.299601
    13  C   -0.475682
    14  H    0.149445
    15  H    0.149620
    16  H    0.151875
    17  H    0.151861
    18  H    0.155166
    19  H    0.155155
    20  H    0.160181
    21  C   -0.298312
    22  C   -0.299647
    23  C   -0.475699
    24  H    0.149596
    25  H    0.149664
    26  H    0.151878
    27  H    0.151938
    28  H    0.155203
    29  H    0.155152
    30  H    0.160206
    31  C   -0.298523
    32  C   -0.300244
    33  C   -0.478279
    34  H    0.149445
    35  H    0.149788
    36  H    0.151698
    37  H    0.153235
    38  H    0.156977
    39  H    0.154998
    40  H    0.161601
 Sum of Mulliken charges =  -0.00000

 Dipole moment (field-independent basis, Debye):
    X=             -0.0264    Y=              0.0104    Z=              0.0036  Tot=              0.0286
 Quadrupole moment (field-independent basis, Debye-Ang):
   XX=            -86.6009   YY=            -84.4295   ZZ=            -83.8900
   XY=             -1.1838   XZ=             -0.4610   YZ=             -0.4029

 Normal termination of Gaussian 16 at Wed May  5 16:44:16 2021.
