 Gaussian 16, Revision A.03,
 Gaussian 16:  EM64L-G16RevA.03 25-Dec-2016

 -------------
 #p 6-31g* mp2
 -------------

 ------------------------------------------------------
 Input file generated by CHIRIPA (05-May-2021 14:55:25)
 ------------------------------------------------------
 Symbolic Z-matrix:
 Charge =  0 Multiplicity = 1

                         Standard orientation:
 ---------------------------------------------------------------------
 Center     Atomic      Atomic             Coordinates (Angstroms)
 Number     Number       Type             X           Y           Z
 ---------------------------------------------------------------------
      1          6           0        1.825669    1.781003    0.718022
      2          6           0        3.023954    2.351402    0.276120
      3          6           0        4.092530    1.541285   -0.119360
      4          6           0        3.927581    0.158336   -0.059927
      5          6           0        2.746240   -0.439963    0.375689
      6          6           0        1.690874    0.389594    0.766311
      7          1           0        1.000704    2.417872    1.023354
      8          1           0        3.131472    3.431679    0.237571
      9          1           0        5.031267    1.956402   -0.465581
     10          1           0        2.668929   -1.520098    0.403082
     11          1           0        0.761429   -0.056160    1.109067
     12          7           0        5.051842   -0.709589   -0.476033
     13          8           0        4.881304   -1.925216   -0.414356
     14          8           0        6.082288   -0.157807   -0.855974
     15          6           0       -5.451247   -0.329201   -0.389436
     16          6           0       -6.220470    0.954923   -0.077501
     17          6           0       -7.540902    1.053573   -0.842039
     18          1           0       -5.255884   -0.378888   -1.469395
     19          1           0       -6.082608   -1.194906   -0.145853
     20          1           0       -5.587330    1.817941   -0.320301
     21          1           0       -6.413857    1.001653    1.001867
     22          1           0       -8.194421    0.211425   -0.592439
     23          1           0       -7.363197    1.032350   -1.922118
     24          1           0       -8.074387    1.979125   -0.604114
     25          6           0       -4.129014   -0.442332    0.367287
     26          6           0       -3.359791   -1.726457    0.055350
     27          6           0       -2.039357   -1.825106    0.819889
     28          1           0       -3.497653    0.423374    0.123703
     29          1           0       -4.324377   -0.392644    1.447244
     30          1           0       -3.166403   -1.773186   -1.024017
     31          1           0       -3.992931   -2.589473    0.298151
     32          1           0       -2.217063   -1.803883    1.899967
     33          1           0       -1.385840   -0.982957    0.570288
     34          1           0       -1.505873   -2.750658    0.581964
 ---------------------------------------------------------------------

 SCF Done:  E(RHF) =  -669.535596508     A.U. after   15 cycles
 E2 =    -0.2090711447D+01 EUMP2 =    -0.67162630795433D+03

 The electronic state is 1-A.
 Alpha  occ. eigenvalues --  -20.60729 -20.60723 -15.85781 -11.31141 -11.27715
 Alpha  occ. eigenvalues --  -11.27699 -11.27454 -11.26731 -11.26680 -11.22325
 Alpha  occ. eigenvalues --  -11.22085 -11.22065 -11.22057 -11.21899 -11.21465
 Alpha  occ. eigenvalues --   -1.59804  -1.39358  -1.19313  -1.09045  -1.08711
 Alpha  occ. eigenvalues --   -1.04714  -1.04164  -0.96635  -0.95546  -0.87660
 Alpha  occ. eigenvalues --   -0.86113  -0.82377  -0.80236  -0.78843  -0.77424
 Alpha  occ. eigenvalues --   -0.72000  -0.71127  -0.70425  -0.65680  -0.64964
 Alpha  occ. eigenvalues --   -0.64733  -0.62104  -0.61528  -0.59997  -0.58229
 Alpha  occ. eigenvalues --   -0.55947  -0.55215  -0.53337  -0.53156  -0.53042
 Alpha  occ. eigenvalues --   -0.52707  -0.50560  -0.48767  -0.48755  -0.48533
 Alpha  occ. eigenvalues --   -0.47249  -0.46389  -0.46297  -0.44764  -0.44407
 Alpha  occ. eigenvalues --   -0.37299  -0.36315
 Alpha virt. eigenvalues --    0.05107   0.11294   0.16575   0.20419   0.22402
 Alpha virt. eigenvalues --    0.23774   0.25313   0.26241   0.27032   0.28319
 Alpha virt. eigenvalues --    0.28636   0.30071   0.31059   0.31322   0.31969

 Mulliken charges:
               1
     1  C   -0.172480
     2  C   -0.218511
     3  C   -0.171159
     4  C    0.158688
     5  C   -0.172695
     6  C   -0.225768
     7  H    0.225506
     8  H    0.223146
     9  H    0.275423
    10  H    0.275953
    11  H    0.234239
    12  N    0.488083
    13  O   -0.460439
    14  O   -0.460666
    15  C   -0.298833
    16  C   -0.299875
    17  C   -0.476031
    18  H    0.151083
    19  H    0.151295
    20  H    0.150901
    21  H    0.152162
    22  H    0.156240
    23  H    0.156007
    24  H    0.161120
    25  C   -0.298435
    26  C   -0.299408
    27  C   -0.481760
    28  H    0.146211
    29  H    0.150002
    30  H    0.155053
    31  H    0.155720
    32  H    0.157108
    33  H    0.147478
    34  H    0.164642
 Sum of Mulliken charges =  -0.00000

 Dipole moment (field-independent basis, Debye):
    X=             -4.1615    Y=              2.9987    Z=              1.4444  Tot=              5.3288
 Quadrupole moment (field-independent basis, Debye-Ang):
   XX=           -124.8898   YY=            -90.3418   ZZ=            -95.2172
   XY=             14.6717   XZ=              4.6184   YZ=             -1.1518

 Normal termination of Gaussian 16 at Thu May  6 09:32:14 2021.
