 Gaussian 16, Revision A.03,
 Gaussian 16:  EM64L-G16RevA.03 25-Dec-2016

 -------------
 #p 6-31g* mp2
 -------------

 ------------------------------------------------------
 Input file generated by CHIRIPA (05-May-2021 14:53:18)
 ------------------------------------------------------
 Symbolic Z-matrix:
 Charge =  0 Multiplicity = 1

                         Standard orientation:
 ---------------------------------------------------------------------
 Center     Atomic      Atomic             Coordinates (Angstroms)
 Number     Number       Type             X           Y           Z
 ---------------------------------------------------------------------
      1          6           0        2.914514    0.053224    0.038949
      2          6           0        3.951564   -0.445473   -0.967934
      3          6           0        4.406456   -1.878050   -0.687595
      4          1           0        3.336967   -0.007393    1.051275
      5          1           0        2.045037   -0.618439    0.022362
      6          1           0        4.818238    0.227718   -0.950446
      7          1           0        3.526661   -0.383482   -1.977999
      8          1           0        3.556070   -2.566559   -0.725009
      9          1           0        4.854985   -1.951887    0.308382
     10          1           0        5.147694   -2.214342   -1.419260
     11          6           0        2.449972    1.483825   -0.228086
     12          6           0        1.412922    1.982522    0.778797
     13          6           0        0.958030    3.415099    0.498458
     14          1           0        3.319449    2.155488   -0.211499
     15          1           0        2.027519    1.544442   -1.240412
     16          1           0        1.837824    1.920532    1.788862
     17          1           0        0.546248    1.309331    0.761309
     18          1           0        0.509501    3.488936   -0.497519
     19          1           0        1.808416    4.103609    0.535872
     20          1           0        0.216792    3.751392    1.230123
     21          6           0       -0.771002   -2.328685    1.348514
     22          6           0       -1.214736   -2.603870    0.050864
     23          6           0       -1.949377   -1.653738   -0.664745
     24          6           0       -2.223551   -0.433326   -0.049345
     25          6           0       -1.795334   -0.129428    1.241998
     26          6           0       -1.062204   -1.094518    1.938898
     27          1           0       -0.200902   -3.072581    1.897149
     28          1           0       -0.990059   -3.561488   -0.410151
     29          1           0       -2.305154   -1.840548   -1.670698
     30          1           0       -2.034856    0.834159    1.675067
     31          1           0       -0.718879   -0.878056    2.946528
     32          7           0       -3.000482    0.580454   -0.797025
     33          8           0       -3.228898    1.648050   -0.232489
     34          8           0       -3.366314    0.288263   -1.933435
 ---------------------------------------------------------------------

 SCF Done:  E(RHF) =  -669.535121512     A.U. after   15 cycles
 E2 =    -0.2093613403D+01 EUMP2 =    -0.67162873491565D+03

 The electronic state is 1-A.
 Alpha  occ. eigenvalues --  -20.60853 -20.60846 -15.85907 -11.31298 -11.27871
 Alpha  occ. eigenvalues --  -11.27851 -11.27621 -11.26899 -11.26872 -11.21810
 Alpha  occ. eigenvalues --  -11.21552 -11.21539 -11.21417 -11.21406 -11.20885
 Alpha  occ. eigenvalues --   -1.59928  -1.39480  -1.19490  -1.08868  -1.08535
 Alpha  occ. eigenvalues --   -1.04896  -1.03626  -0.96071  -0.95697  -0.87082
 Alpha  occ. eigenvalues --   -0.86279  -0.82526  -0.79706  -0.78365  -0.77563
 Alpha  occ. eigenvalues --   -0.72122  -0.71256  -0.70580  -0.65185  -0.65128
 Alpha  occ. eigenvalues --   -0.64871  -0.62234  -0.61034  -0.59456  -0.57690
 Alpha  occ. eigenvalues --   -0.55386  -0.55344  -0.53299  -0.52966  -0.52734
 Alpha  occ. eigenvalues --   -0.52498  -0.50009  -0.48884  -0.48877  -0.48026
 Alpha  occ. eigenvalues --   -0.46753  -0.45889  -0.45780  -0.44872  -0.43871
 Alpha  occ. eigenvalues --   -0.37448  -0.36388
 Alpha virt. eigenvalues --    0.04944   0.11106   0.16414   0.21156   0.22780
 Alpha virt. eigenvalues --    0.24046   0.26472   0.26847   0.27406   0.27787
 Alpha virt. eigenvalues --    0.28501   0.30789   0.31381   0.31709   0.31773

 Mulliken charges:
               1
     1  C   -0.300924
     2  C   -0.299548
     3  C   -0.474967
     4  H    0.145994
     5  H    0.150604
     6  H    0.153030
     7  H    0.153370
     8  H    0.150722
     9  H    0.154023
    10  H    0.161418
    11  C   -0.297322
    12  C   -0.308832
    13  C   -0.474911
    14  H    0.149588
    15  H    0.152030
    16  H    0.145866
    17  H    0.157526
    18  H    0.161689
    19  H    0.153881
    20  H    0.159944
    21  C   -0.170643
    22  C   -0.219082
    23  C   -0.171419
    24  C    0.160814
    25  C   -0.175984
    26  C   -0.214357
    27  H    0.226896
    28  H    0.224177
    29  H    0.276038
    30  H    0.277290
    31  H    0.225224
    32  N    0.488128
    33  O   -0.460008
    34  O   -0.460257
 Sum of Mulliken charges =  -0.00000

 Dipole moment (field-independent basis, Debye):
    X=              2.6132    Y=             -3.5745    Z=              2.6041  Tot=              5.1368
 Quadrupole moment (field-independent basis, Debye-Ang):
   XX=           -107.6097   YY=            -90.9270   ZZ=            -91.8454
   XY=              7.7356   XZ=             -5.5339   YZ=              1.8656

 Normal termination of Gaussian 16 at Thu May  6 17:20:59 2021.
