 Gaussian 16, Revision A.03,
 Gaussian 16:  EM64L-G16RevA.03 25-Dec-2016

 -------------
 #p 6-31g* mp2
 -------------

 ------------------------------------------------------
 Input file generated by CHIRIPA (05-May-2021 14:57:21)
 ------------------------------------------------------
 Symbolic Z-matrix:
 Charge =  0 Multiplicity = 1

                         Standard orientation:
 ---------------------------------------------------------------------
 Center     Atomic      Atomic             Coordinates (Angstroms)
 Number     Number       Type             X           Y           Z
 ---------------------------------------------------------------------
      1          6           0       -3.573312    2.299782    0.915712
      2          6           0       -3.376505    2.198137   -0.465395
      3          6           0       -3.135191    0.955404   -1.058631
      4          6           0       -3.097187   -0.170168   -0.237087
      5          6           0       -3.289417   -0.101380    1.141901
      6          6           0       -3.529218    1.151723    1.713545
      7          1           0       -3.760183    3.269194    1.368166
      8          1           0       -3.410201    3.088045   -1.087467
      9          1           0       -2.979428    0.848052   -2.125229
     10          1           0       -3.250049   -1.006287    1.736047
     11          1           0       -3.681705    1.227657    2.786404
     12          7           0       -2.842520   -1.491283   -0.853690
     13          8           0       -2.813917   -2.467881   -0.107987
     14          8           0       -2.676336   -1.525158   -2.071012
     15          6           0        0.932221   -0.926855    0.985286
     16          6           0        0.977874   -0.166939   -0.188155
     17          6           0        2.195090    0.325374   -0.668321
     18          6           0        3.352518    0.037438    0.053305
     19          6           0        3.339595   -0.716788    1.225597
     20          6           0        2.111149   -1.198874    1.687179
     21          1           0       -0.017705   -1.305324    1.351072
     22          1           0        0.063890    0.045880   -0.735318
     23          1           0        2.259166    0.916232   -1.573968
     24          1           0        4.267431   -0.912450    1.749291
     25          1           0        2.078706   -1.788767    2.598781
     26          7           0        4.647076    0.553215   -0.445188
     27          8           0        5.652645    0.285625    0.208924
     28          8           0        4.631668    1.215304   -1.480581
 ---------------------------------------------------------------------

 SCF Done:  E(RHF) =  -868.338446816     A.U. after   16 cycles
 E2 =    -0.2601171551D+01 EUMP2 =    -0.87093961836754D+03

 The electronic state is 1-A.
 Alpha  occ. eigenvalues --  -20.62005 -20.61981 -20.60561 -20.60556 -15.87018
 Alpha  occ. eigenvalues --  -15.85613 -11.32356 -11.30910 -11.28886 -11.28848
 Alpha  occ. eigenvalues --  -11.28502 -11.27835 -11.27809 -11.27482 -11.27474
 Alpha  occ. eigenvalues --  -11.27160 -11.26471 -11.26441  -1.61064  -1.59638
 Alpha  occ. eigenvalues --   -1.40615  -1.39194  -1.20491  -1.19074  -1.09874
 Alpha  occ. eigenvalues --   -1.08474  -1.05856  -1.04473  -0.96716  -0.95323
 Alpha  occ. eigenvalues --   -0.87252  -0.85877  -0.83531  -0.82161  -0.78614
 Alpha  occ. eigenvalues --   -0.77231  -0.73212  -0.72440  -0.71830  -0.71530
 Alpha  occ. eigenvalues --   -0.70961  -0.70154  -0.66110  -0.65813  -0.64727
 Alpha  occ. eigenvalues --   -0.64484  -0.63192  -0.61837  -0.56294  -0.54956
 Alpha  occ. eigenvalues --   -0.54217  -0.53912  -0.52792  -0.52550  -0.49993
 Alpha  occ. eigenvalues --   -0.49973  -0.48592  -0.48587  -0.45997  -0.44615
 Alpha  occ. eigenvalues --   -0.38433  -0.37463  -0.37020  -0.36073
 Alpha virt. eigenvalues --    0.03866   0.05316   0.10038   0.11579   0.15410
 Alpha virt. eigenvalues --    0.16836   0.20302   0.21437   0.26115   0.26746
 Alpha virt. eigenvalues --    0.27411   0.28348   0.30276   0.30476   0.32382

 Mulliken charges:
               1
     1  C   -0.169632
     2  C   -0.216424
     3  C   -0.178008
     4  C    0.153760
     5  C   -0.177346
     6  C   -0.216497
     7  H    0.230631
     8  H    0.228564
     9  H    0.278203
    10  H    0.274908
    11  H    0.227223
    12  N    0.487438
    13  O   -0.460372
    14  O   -0.455378
    15  C   -0.171261
    16  C   -0.218293
    17  C   -0.172016
    18  C    0.158199
    19  C   -0.171348
    20  C   -0.219140
    21  H    0.227684
    22  H    0.222297
    23  H    0.274276
    24  H    0.274501
    25  H    0.222603
    26  N    0.488147
    27  O   -0.461258
    28  O   -0.461463
 Sum of Mulliken charges =  -0.00000

 Dipole moment (field-independent basis, Debye):
    X=             -5.7962    Y=              2.9678    Z=              3.9345  Tot=              7.6082
 Quadrupole moment (field-independent basis, Debye-Ang):
   XX=           -129.5476   YY=           -105.3274   ZZ=            -98.7980
   XY=            -22.3666   XZ=              0.7662   YZ=             -5.5006

 Normal termination of Gaussian 16 at Thu May  6 06:30:59 2021.
