 Gaussian 16, Revision A.03,
 Gaussian 16:  EM64L-G16RevA.03 25-Dec-2016

 -------------
 #p 6-31g* mp2
 -------------

 ------------------------------------------------------
 Input file generated by CHIRIPA (05-May-2021 14:53:18)
 ------------------------------------------------------
 Symbolic Z-matrix:
 Charge =  0 Multiplicity = 1

                         Standard orientation:
 ---------------------------------------------------------------------
 Center     Atomic      Atomic             Coordinates (Angstroms)
 Number     Number       Type             X           Y           Z
 ---------------------------------------------------------------------
      1          6           0       -5.296349    0.169218   -0.182593
      2          6           0       -5.721226   -1.299611   -0.180325
      3          6           0       -7.239655   -1.475721   -0.146370
      4          1           0       -5.704402    0.663731    0.709536
      5          1           0       -5.744215    0.671898   -1.050995
      6          1           0       -5.271569   -1.799697    0.687050
      7          1           0       -5.311954   -1.790732   -1.072464
      8          1           0       -7.701977   -1.002340   -1.018591
      9          1           0       -7.661362   -1.011356    0.750920
     10          1           0       -7.521222   -2.533350   -0.145296
     11          6           0       -3.781226    0.361546   -0.216389
     12          6           0       -3.356348    1.830375   -0.218657
     13          6           0       -1.837920    2.006485   -0.252611
     14          1           0       -3.333360   -0.141135    0.652014
     15          1           0       -3.373173   -0.132968   -1.108517
     16          1           0       -3.765621    2.321496    0.673483
     17          1           0       -3.806006    2.330461   -1.086031
     18          1           0       -1.416213    1.542120   -1.149901
     19          1           0       -1.375598    1.533104    0.619610
     20          1           0       -1.556353    3.064114   -0.253685
     21          6           0        1.249262    0.000813    1.179535
     22          6           0        1.994894    1.149199    0.893591
     23          6           0        3.268517    1.045821    0.326365
     24          6           0        3.767961   -0.227452    0.056886
     25          6           0        3.049473   -1.390347    0.330272
     26          6           0        1.777999   -1.263067    0.897460
     27          1           0        0.260716    0.090402    1.620155
     28          1           0        1.586799    2.132043    1.111585
     29          1           0        3.867292    1.918338    0.094843
     30          1           0        3.482936   -2.356413    0.101698
     31          1           0        1.201189   -2.156651    1.118463
     32          7           0        5.115151   -0.349545   -0.543591
     33          8           0        5.532658   -1.482853   -0.771490
     34          8           0        5.728061    0.690377   -0.774975
 ---------------------------------------------------------------------

 SCF Done:  E(RHF) =  -669.535186492     A.U. after   15 cycles
 E2 =    -0.2091321604D+01 EUMP2 =    -0.67162650809592D+03

 The electronic state is 1-A.
 Alpha  occ. eigenvalues --  -20.60717 -20.60712 -15.85771 -11.31123 -11.27695
 Alpha  occ. eigenvalues --  -11.27686 -11.27417 -11.26703 -11.26684 -11.22432
 Alpha  occ. eigenvalues --  -11.22183 -11.22163 -11.22116 -11.22002 -11.21534
 Alpha  occ. eigenvalues --   -1.59793  -1.39347  -1.19295  -1.09149  -1.08692
 Alpha  occ. eigenvalues --   -1.04696  -1.04252  -0.96720  -0.95530  -0.87739
 Alpha  occ. eigenvalues --   -0.86091  -0.82365  -0.80323  -0.78946  -0.77409
 Alpha  occ. eigenvalues --   -0.71989  -0.71116  -0.70434  -0.65779  -0.64948
 Alpha  occ. eigenvalues --   -0.64700  -0.62048  -0.61646  -0.60092  -0.58323
 Alpha  occ. eigenvalues --   -0.56071  -0.55180  -0.53419  -0.53213  -0.52918
 Alpha  occ. eigenvalues --   -0.52781  -0.50651  -0.48749  -0.48745  -0.48623
 Alpha  occ. eigenvalues --   -0.47345  -0.46490  -0.46402  -0.44756  -0.44502
 Alpha  occ. eigenvalues --   -0.37250  -0.36298
 Alpha virt. eigenvalues --    0.05112   0.11319   0.16566   0.19942   0.22416
 Alpha virt. eigenvalues --    0.23814   0.25391   0.26340   0.26629   0.27688
 Alpha virt. eigenvalues --    0.28838   0.30045   0.31069   0.31485   0.32008

 Mulliken charges:
               1
     1  C   -0.298731
     2  C   -0.299993
     3  C   -0.476069
     4  H    0.150391
     5  H    0.151786
     6  H    0.150587
     7  H    0.152868
     8  H    0.156464
     9  H    0.155697
    10  H    0.161573
    11  C   -0.297803
    12  C   -0.300396
    13  C   -0.477177
    14  H    0.143377
    15  H    0.151814
    16  H    0.152862
    17  H    0.156084
    18  H    0.161800
    19  H    0.143028
    20  H    0.161567
    21  C   -0.169713
    22  C   -0.218089
    23  C   -0.171481
    24  C    0.158307
    25  C   -0.171109
    26  C   -0.219472
    27  H    0.226494
    28  H    0.224595
    29  H    0.275383
    30  H    0.275304
    31  H    0.223245
    32  N    0.488094
    33  O   -0.460669
    34  O   -0.460617
 Sum of Mulliken charges =  -0.00000

 Dipole moment (field-independent basis, Debye):
    X=             -4.9356    Y=              0.4587    Z=              2.0255  Tot=              5.3548
 Quadrupole moment (field-independent basis, Debye-Ang):
   XX=           -131.7620   YY=            -89.9781   ZZ=            -94.3025
   XY=              2.9002   XZ=              8.0243   YZ=             -0.5600

 Normal termination of Gaussian 16 at Thu May  6 01:15:56 2021.
