 Gaussian 16, Revision A.03,
 Gaussian 16:  EM64L-G16RevA.03 25-Dec-2016

 -------------
 #p 6-31g* mp2
 -------------

 ------------------------------------------------------
 Input file generated by CHIRIPA (05-May-2021 14:55:23)
 ------------------------------------------------------
 Symbolic Z-matrix:
 Charge =  0 Multiplicity = 1

                         Standard orientation:
 ---------------------------------------------------------------------
 Center     Atomic      Atomic             Coordinates (Angstroms)
 Number     Number       Type             X           Y           Z
 ---------------------------------------------------------------------
      1          6           0       -3.413698    0.540875   -0.940568
      2          6           0       -2.991586   -0.685332   -1.464741
      3          6           0       -1.991962   -1.424501   -0.825265
      4          6           0       -1.433641   -0.905255    0.341762
      5          6           0       -1.832789    0.313276    0.888710
      6          6           0       -2.833974    1.035394    0.232416
      7          1           0       -4.190836    1.108457   -1.443861
      8          1           0       -3.440025   -1.071837   -2.375544
      9          1           0       -1.646283   -2.376587   -1.209266
     10          1           0       -1.366981    0.672694    1.798248
     11          1           0       -3.159811    1.987390    0.641780
     12          7           0       -0.374557   -1.678755    1.027648
     13          8           0        0.101468   -1.199457    2.054445
     14          8           0       -0.040526   -2.749674    0.525462
     15          6           0        1.520015    1.503265   -0.481728
     16          6           0        1.400390    2.658702    0.512576
     17          6           0        0.318957    3.666111    0.120879
     18          1           0        1.737845    1.907748   -1.479670
     19          1           0        0.550609    0.991382   -0.556704
     20          1           0        2.370107    3.167397    0.586695
     21          1           0        1.183009    2.251409    1.508304
     22          1           0       -0.659812    3.178693    0.065796
     23          1           0        0.534030    4.099886   -0.861050
     24          1           0        0.250539    4.483655    0.845310
     25          6           0        2.596953    0.487834   -0.103794
     26          6           0        2.716579   -0.667603   -1.098097
     27          6           0        3.798010   -1.675012   -0.706400
     28          1           0        3.566360    0.999717   -0.028817
     29          1           0        2.379123    0.083351    0.894148
     30          1           0        2.933959   -0.260310   -2.093825
     31          1           0        1.746862   -1.176299   -1.172216
     32          1           0        3.582938   -2.108787    0.275528
     33          1           0        4.776781   -1.187594   -0.651318
     34          1           0        3.866430   -2.492556   -1.430831
 ---------------------------------------------------------------------

 SCF Done:  E(RHF) =  -669.534885402     A.U. after   15 cycles
 E2 =    -0.2097652738D+01 EUMP2 =    -0.67163253813943D+03

 The electronic state is 1-A.
 Alpha  occ. eigenvalues --  -20.61148 -20.61142 -15.86122 -11.31373 -11.27967
 Alpha  occ. eigenvalues --  -11.27944 -11.27689 -11.26948 -11.26939 -11.21409
 Alpha  occ. eigenvalues --  -11.21154 -11.20918 -11.20769 -11.20503 -11.20051
 Alpha  occ. eigenvalues --   -1.60182  -1.39741  -1.19586  -1.08989  -1.07899
 Alpha  occ. eigenvalues --   -1.04968  -1.03017  -0.95836  -0.95473  -0.86527
 Alpha  occ. eigenvalues --   -0.86332  -0.82673  -0.79138  -0.77737  -0.77648
 Alpha  occ. eigenvalues --   -0.72363  -0.71573  -0.70677  -0.65231  -0.64958
 Alpha  occ. eigenvalues --   -0.64499  -0.62317  -0.60412  -0.58900  -0.57066
 Alpha  occ. eigenvalues --   -0.55458  -0.54799  -0.53350  -0.53047  -0.52197
 Alpha  occ. eigenvalues --   -0.51899  -0.49437  -0.49126  -0.49116  -0.47432
 Alpha  occ. eigenvalues --   -0.46258  -0.45582  -0.45173  -0.44459  -0.43238
 Alpha  occ. eigenvalues --   -0.37479  -0.36484
 Alpha virt. eigenvalues --    0.04699   0.10983   0.16042   0.20595   0.23276
 Alpha virt. eigenvalues --    0.24588   0.26632   0.27044   0.27483   0.28388
 Alpha virt. eigenvalues --    0.29006   0.30635   0.31530   0.31991   0.32777

 Mulliken charges:
               1
     1  C   -0.170982
     2  C   -0.217805
     3  C   -0.171672
     4  C    0.158048
     5  C   -0.172567
     6  C   -0.216236
     7  H    0.227090
     8  H    0.224623
     9  H    0.276616
    10  H    0.277563
    11  H    0.225793
    12  N    0.490019
    13  O   -0.458377
    14  O   -0.456907
    15  C   -0.302774
    16  C   -0.301165
    17  C   -0.479616
    18  H    0.146635
    19  H    0.149731
    20  H    0.153609
    21  H    0.153919
    22  H    0.148732
    23  H    0.155671
    24  H    0.157913
    25  C   -0.311264
    26  C   -0.300279
    27  C   -0.475559
    28  H    0.146195
    29  H    0.170652
    30  H    0.145337
    31  H    0.151668
    32  H    0.168256
    33  H    0.149730
    34  H    0.157403
 Sum of Mulliken charges =  -0.00000

 Dipole moment (field-independent basis, Debye):
    X=             -3.8847    Y=              2.4617    Z=             -2.2621  Tot=              5.1253
 Quadrupole moment (field-independent basis, Debye-Ang):
   XX=            -84.6794   YY=            -98.2775   ZZ=            -94.1352
   XY=              0.4498   XZ=              2.6525   YZ=              5.7539

 Normal termination of Gaussian 16 at Thu May  6 04:41:24 2021.
