 Gaussian 16, Revision A.03,
 Gaussian 16:  EM64L-G16RevA.03 25-Dec-2016

 -------------
 #p 6-31g* mp2
 -------------

 ------------------------------------------------------
 Input file generated by CHIRIPA (05-May-2021 14:55:22)
 ------------------------------------------------------
 Symbolic Z-matrix:
 Charge =  0 Multiplicity = 1

                         Standard orientation:
 ---------------------------------------------------------------------
 Center     Atomic      Atomic             Coordinates (Angstroms)
 Number     Number       Type             X           Y           Z
 ---------------------------------------------------------------------
      1          6           0        2.840675   -2.696707    0.446522
      2          6           0        1.587307   -2.076850    0.409520
      3          6           0        1.478940   -0.710100    0.136027
      4          6           0        2.649824    0.009714   -0.096760
      5          6           0        3.912995   -0.579179   -0.066840
      6          6           0        3.997479   -1.947214    0.208643
      7          1           0        2.915581   -3.758930    0.659751
      8          1           0        0.687223   -2.656426    0.593870
      9          1           0        0.521340   -0.204917    0.101253
     10          1           0        4.792379    0.024811   -0.254718
     11          1           0        4.972193   -2.425949    0.236737
     12          7           0        2.547743    1.457311   -0.387348
     13          8           0        3.594375    2.069314   -0.588964
     14          8           0        1.423031    1.952524   -0.407992
     15          6           0       -3.677000   -0.384157    0.297974
     16          6           0       -4.312150   -1.209964   -0.821228
     17          6           0       -4.834952   -2.561891   -0.334640
     18          1           0       -2.853934   -0.957431    0.746153
     19          1           0       -4.418045   -0.226850    1.093900
     20          1           0       -3.570548   -1.364492   -1.615435
     21          1           0       -5.133676   -0.634580   -1.266923
     22          1           0       -5.594018   -2.424431    0.442228
     23          1           0       -4.022009   -3.158490    0.091735
     24          1           0       -5.284875   -3.135709   -1.150827
     25          6           0       -3.149620    0.970059   -0.172872
     26          6           0       -2.514469    1.795867    0.946328
     27          6           0       -1.991668    3.147793    0.459741
     28          1           0       -2.408574    0.812752   -0.968800
     29          1           0       -3.972685    1.543333   -0.621053
     30          1           0       -1.692944    1.220482    1.392023
     31          1           0       -3.256071    1.950394    1.740535
     32          1           0       -2.804610    3.744393    0.033365
     33          1           0       -1.232601    3.010333   -0.317126
     34          1           0       -1.541745    3.721612    1.275928
 ---------------------------------------------------------------------

 SCF Done:  E(RHF) =  -669.535910260     A.U. after   15 cycles
 E2 =    -0.2091741615D+01 EUMP2 =    -0.67162765187568D+03

 The electronic state is 1-A.
 Alpha  occ. eigenvalues --  -20.60901 -20.60889 -15.85945 -11.31274 -11.27841
 Alpha  occ. eigenvalues --  -11.27835 -11.27576 -11.26850 -11.26840 -11.21772
 Alpha  occ. eigenvalues --  -11.21528 -11.21325 -11.21244 -11.21182 -11.20057
 Alpha  occ. eigenvalues --   -1.59965  -1.39522  -1.19443  -1.08845  -1.08373
 Alpha  occ. eigenvalues --   -1.04842  -1.03330  -0.95770  -0.95672  -0.86766
 Alpha  occ. eigenvalues --   -0.86241  -0.82523  -0.79441  -0.78142  -0.77575
 Alpha  occ. eigenvalues --   -0.72178  -0.71282  -0.70554  -0.65115  -0.65039
 Alpha  occ. eigenvalues --   -0.64822  -0.62192  -0.60710  -0.59195  -0.57360
 Alpha  occ. eigenvalues --   -0.55344  -0.55030  -0.53172  -0.52935  -0.52415
 Alpha  occ. eigenvalues --   -0.52172  -0.49697  -0.48923  -0.48899  -0.47723
 Alpha  occ. eigenvalues --   -0.46496  -0.45688  -0.45571  -0.44931  -0.43612
 Alpha  occ. eigenvalues --   -0.37422  -0.36444
 Alpha virt. eigenvalues --    0.04952   0.11199   0.16459   0.19083   0.22798
 Alpha virt. eigenvalues --    0.23940   0.25752   0.27202   0.27870   0.28322
 Alpha virt. eigenvalues --    0.29815   0.30290   0.31564   0.31865   0.32365

 Mulliken charges:
               1
     1  C   -0.170451
     2  C   -0.219524
     3  C   -0.174940
     4  C    0.157339
     5  C   -0.170331
     6  C   -0.218701
     7  H    0.226016
     8  H    0.223926
     9  H    0.280773
    10  H    0.275813
    11  H    0.223789
    12  N    0.494705
    13  O   -0.459130
    14  O   -0.467591
    15  C   -0.295970
    16  C   -0.299640
    17  C   -0.474703
    18  H    0.138658
    19  H    0.151224
    20  H    0.150514
    21  H    0.154546
    22  H    0.156473
    23  H    0.150153
    24  H    0.160907
    25  C   -0.300929
    26  C   -0.298920
    27  C   -0.480932
    28  H    0.150488
    29  H    0.151599
    30  H    0.146057
    31  H    0.149271
    32  H    0.148871
    33  H    0.180046
    34  H    0.160593
 Sum of Mulliken charges =  -0.00000

 Dipole moment (field-independent basis, Debye):
    X=              0.4826    Y=             -4.9676    Z=              0.9420  Tot=              5.0792
 Quadrupole moment (field-independent basis, Debye-Ang):
   XX=            -87.1727   YY=            -96.0851   ZZ=            -95.9237
   XY=            -14.3004   XZ=              2.3457   YZ=              0.5938

 Normal termination of Gaussian 16 at Thu May  6 14:14:56 2021.
