 Gaussian 16, Revision A.03,
 Gaussian 16:  EM64L-G16RevA.03 25-Dec-2016

 -------------
 #p 6-31g* mp2
 -------------

 ------------------------------------------------------
 Input file generated by CHIRIPA (05-May-2021 14:51:14)
 ------------------------------------------------------
 Symbolic Z-matrix:
 Charge =  0 Multiplicity = 1

                         Standard orientation:
 ---------------------------------------------------------------------
 Center     Atomic      Atomic             Coordinates (Angstroms)
 Number     Number       Type             X           Y           Z
 ---------------------------------------------------------------------
      1          6           0       -3.148471   -0.355717   -0.178914
      2          6           0       -2.662961   -1.439511    0.784234
      3          6           0       -2.911445   -2.853144    0.257268
      4          1           0       -4.221888   -0.495140   -0.366749
      5          1           0       -2.642931   -0.481516   -1.146385
      6          1           0       -3.168238   -1.310862    1.750030
      7          1           0       -1.590616   -1.297376    0.969948
      8          1           0       -2.393858   -3.005692   -0.695325
      9          1           0       -3.980444   -3.019254    0.089189
     10          1           0       -2.556762   -3.612214    0.961449
     11          6           0       -2.907019    1.062886    0.333916
     12          6           0       -3.392529    2.146681   -0.629233
     13          6           0       -3.144045    3.560313   -0.102266
     14          1           0       -3.412559    1.188686    1.301386
     15          1           0       -1.833602    1.202310    0.521750
     16          1           0       -4.464874    2.004546   -0.814946
     17          1           0       -2.887252    2.018031   -1.595028
     18          1           0       -2.075046    3.726424    0.065813
     19          1           0       -3.661632    3.712862    0.850327
     20          1           0       -3.498728    4.319384   -0.806448
     21          6           0        3.296227    0.261511    0.287201
     22          6           0        4.631980    0.759377   -0.265861
     23          6           0        5.156179    1.990454    0.474044
     24          1           0        2.556240    1.071138    0.225016
     25          1           0        3.413738    0.026732    1.354190
     26          1           0        4.512335    0.991833   -1.331819
     27          1           0        5.368822   -0.051591   -0.202528
     28          1           0        5.303759    1.767938    1.535791
     29          1           0        4.442407    2.817291    0.400085
     30          1           0        6.111942    2.329492    0.062425
     31          6           0        2.759263   -0.968680   -0.442203
     32          6           0        1.423510   -1.466546    0.110859
     33          6           0        0.899311   -2.697623   -0.629045
     34          1           0        2.641751   -0.733902   -1.509192
     35          1           0        3.499250   -1.778308   -0.380017
     36          1           0        0.686668   -0.655579    0.047527
     37          1           0        1.543154   -1.699004    1.176816
     38          1           0        1.613083   -3.524461   -0.555086
     39          1           0        0.751730   -2.475108   -1.690794
     40          1           0       -0.056452   -3.036662   -0.217427
 ---------------------------------------------------------------------

 SCF Done:  E(RHF) =  -470.732356920     A.U. after   11 cycles
 E2 =    -0.1584145960D+01 EUMP2 =    -0.47231650288001D+03

 The electronic state is 1-A.
 Alpha  occ. eigenvalues --  -11.21653 -11.21627 -11.21619 -11.21552 -11.21440
 Alpha  occ. eigenvalues --  -11.21415 -11.21380 -11.21352 -11.21090 -11.21089
 Alpha  occ. eigenvalues --  -11.21056 -11.21023  -1.08489  -1.08416  -1.03630
 Alpha  occ. eigenvalues --   -1.03474  -0.96084  -0.95919  -0.87090  -0.86942
 Alpha  occ. eigenvalues --   -0.79711  -0.79526  -0.78335  -0.78192  -0.65228
 Alpha  occ. eigenvalues --   -0.64989  -0.61220  -0.60877  -0.59448  -0.59192
 Alpha  occ. eigenvalues --   -0.57686  -0.57501  -0.55348  -0.55228  -0.52747
 Alpha  occ. eigenvalues --   -0.52604  -0.52413  -0.52376  -0.50007  -0.49874
 Alpha  occ. eigenvalues --   -0.47971  -0.47883  -0.46793  -0.46545  -0.45975
 Alpha  occ. eigenvalues --   -0.45769  -0.45752  -0.45487  -0.43808  -0.43759
 Alpha virt. eigenvalues --    0.20333   0.23161   0.23462   0.25094   0.25620
 Alpha virt. eigenvalues --    0.26707   0.26847   0.27387   0.28450   0.29172
 Alpha virt. eigenvalues --    0.30887   0.31349   0.31678   0.31789   0.32341

 Mulliken charges:
               1
     1  C   -0.297954
     2  C   -0.307639
     3  C   -0.480661
     4  H    0.149758
     5  H    0.149489
     6  H    0.151970
     7  H    0.161082
     8  H    0.157765
     9  H    0.156526
    10  H    0.159662
    11  C   -0.299625
    12  C   -0.299619
    13  C   -0.475656
    14  H    0.149854
    15  H    0.149891
    16  H    0.152149
    17  H    0.151692
    18  H    0.154943
    19  H    0.155342
    20  H    0.160296
    21  C   -0.298242
    22  C   -0.299665
    23  C   -0.475719
    24  H    0.149128
    25  H    0.149698
    26  H    0.151932
    27  H    0.152074
    28  H    0.155268
    29  H    0.155160
    30  H    0.160363
    31  C   -0.298184
    32  C   -0.302392
    33  C   -0.485022
    34  H    0.149472
    35  H    0.150014
    36  H    0.153002
    37  H    0.152091
    38  H    0.155279
    39  H    0.153905
    40  H    0.172576
 Sum of Mulliken charges =  -0.00000

 Dipole moment (field-independent basis, Debye):
    X=             -0.0002    Y=             -0.0170    Z=              0.0098  Tot=              0.0197
 Quadrupole moment (field-independent basis, Debye-Ang):
   XX=            -83.9846   YY=            -86.3410   ZZ=            -84.4185
   XY=             -0.8793   XZ=             -0.3033   YZ=             -1.0665

 Normal termination of Gaussian 16 at Thu May  6 02:24:56 2021.
