 Gaussian 16, Revision A.03,
 Gaussian 16:  EM64L-G16RevA.03 25-Dec-2016

 -------------
 #p 6-31g* mp2
 -------------

 ------------------------------------------------------
 Input file generated by CHIRIPA (05-May-2021 14:53:11)
 ------------------------------------------------------
 Symbolic Z-matrix:
 Charge =  0 Multiplicity = 1

                         Standard orientation:
 ---------------------------------------------------------------------
 Center     Atomic      Atomic             Coordinates (Angstroms)
 Number     Number       Type             X           Y           Z
 ---------------------------------------------------------------------
      1          6           0        3.056732   -0.176244    0.068615
      2          6           0        2.051859   -0.705494   -0.955157
      3          6           0        0.600601   -0.497429   -0.521160
      4          1           0        2.885676   -0.674908    1.032471
      5          1           0        2.872252    0.894353    0.233495
      6          1           0        2.239069   -1.774462   -1.119089
      7          1           0        2.225452   -0.205650   -1.916738
      8          1           0        0.390696    0.567257   -0.376296
      9          1           0        0.404391   -1.010469    0.425884
     10          1           0       -0.100861   -0.883023   -1.267570
     11          6           0        4.511833   -0.376985   -0.351043
     12          6           0        5.516707    0.152265    0.672728
     13          6           0        6.967965   -0.055800    0.238732
     14          1           0        4.696314   -1.447581   -0.515924
     15          1           0        4.682890    0.121680   -1.314899
     16          1           0        5.343114   -0.347578    1.634309
     17          1           0        5.329496    1.221234    0.836661
     18          1           0        7.164175    0.457241   -0.708312
     19          1           0        7.177870   -1.120485    0.093868
     20          1           0        7.669427    0.329795    0.985142
     21          6           0       -3.856795   -2.135242    0.273133
     22          6           0       -3.783518   -1.498252   -0.970006
     23          6           0       -3.286410   -0.195558   -1.072087
     24          6           0       -2.869431    0.443425    0.094583
     25          6           0       -2.929897   -0.164524    1.347593
     26          6           0       -3.430503   -1.467523    1.425932
     27          1           0       -4.244318   -3.147324    0.343210
     28          1           0       -4.113864   -2.014380   -1.866960
     29          1           0       -3.218614    0.321139   -2.021743
     30          1           0       -2.593041    0.375594    2.224073
     31          1           0       -3.486251   -1.959748    2.392706
     32          7           0       -2.341314    1.822690   -0.000918
     33          8           0       -1.980329    2.364007    1.041820
     34          8           0       -2.298362    2.336324   -1.116701
 ---------------------------------------------------------------------

 SCF Done:  E(RHF) =  -669.535372623     A.U. after   15 cycles
 E2 =    -0.2092651901D+01 EUMP2 =    -0.67162802452377D+03

 The electronic state is 1-A.
 Alpha  occ. eigenvalues --  -20.60761 -20.60756 -15.85802 -11.31136 -11.27723
 Alpha  occ. eigenvalues --  -11.27719 -11.27476 -11.26754 -11.26743 -11.21377
 Alpha  occ. eigenvalues --  -11.21370 -11.21159 -11.21079 -11.20885 -11.20846
 Alpha  occ. eigenvalues --   -1.59838  -1.39390  -1.19330  -1.08732  -1.08189
 Alpha  occ. eigenvalues --   -1.04739  -1.03309  -0.95768  -0.95570  -0.86795
 Alpha  occ. eigenvalues --   -0.86136  -0.82406  -0.79390  -0.78001  -0.77453
 Alpha  occ. eigenvalues --   -0.72032  -0.71164  -0.70448  -0.64990  -0.64814
 Alpha  occ. eigenvalues --   -0.64747  -0.62089  -0.60700  -0.59147  -0.57376
 Alpha  occ. eigenvalues --   -0.55246  -0.55045  -0.53278  -0.52835  -0.52274
 Alpha  occ. eigenvalues --   -0.52166  -0.49700  -0.48789  -0.48788  -0.47700
 Alpha  occ. eigenvalues --   -0.46402  -0.45547  -0.45457  -0.44800  -0.43563
 Alpha  occ. eigenvalues --   -0.37267  -0.36320
 Alpha virt. eigenvalues --    0.05066   0.11297   0.16566   0.21414   0.23115
 Alpha virt. eigenvalues --    0.24487   0.26889   0.27316   0.27629   0.27909
 Alpha virt. eigenvalues --    0.28473   0.30925   0.31561   0.31809   0.32025

 Mulliken charges:
               1
     1  C   -0.299091
     2  C   -0.299891
     3  C   -0.481545
     4  H    0.147471
     5  H    0.155174
     6  H    0.148673
     7  H    0.153768
     8  H    0.163004
     9  H    0.152284
    10  H    0.157846
    11  C   -0.298228
    12  C   -0.299680
    13  C   -0.475607
    14  H    0.147555
    15  H    0.150315
    16  H    0.150920
    17  H    0.153895
    18  H    0.155461
    19  H    0.154027
    20  H    0.159960
    21  C   -0.170528
    22  C   -0.218794
    23  C   -0.171980
    24  C    0.164599
    25  C   -0.171103
    26  C   -0.218652
    27  H    0.225371
    28  H    0.223228
    29  H    0.275444
    30  H    0.275545
    31  H    0.223173
    32  N    0.488550
    33  O   -0.460667
    34  O   -0.460498
 Sum of Mulliken charges =  -0.00000

 Dipole moment (field-independent basis, Debye):
    X=             -1.9099    Y=             -4.7885    Z=              0.3431  Tot=              5.1668
 Quadrupole moment (field-independent basis, Debye-Ang):
   XX=            -86.1346   YY=            -99.0323   ZZ=            -89.6543
   XY=             13.6665   XZ=             -0.1415   YZ=             -0.7401

 Normal termination of Gaussian 16 at Wed May  5 18:27:58 2021.
