 Gaussian 16, Revision A.03,
 Gaussian 16:  EM64L-G16RevA.03 25-Dec-2016

 -------------
 #p 6-31g* mp2
 -------------

 ------------------------------------------------------
 Input file generated by CHIRIPA (05-May-2021 14:53:16)
 ------------------------------------------------------
 Symbolic Z-matrix:
 Charge =  0 Multiplicity = 1

                         Standard orientation:
 ---------------------------------------------------------------------
 Center     Atomic      Atomic             Coordinates (Angstroms)
 Number     Number       Type             X           Y           Z
 ---------------------------------------------------------------------
      1          6           0        2.680778    1.230202   -0.450037
      2          6           0        2.053855    2.230916    0.521315
      3          6           0        1.474990    3.457183   -0.185068
      4          1           0        3.471898    1.732129   -1.023747
      5          1           0        1.921610    0.911104   -1.177523
      6          1           0        2.813613    2.546981    1.247598
      7          1           0        1.264265    1.726498    1.092914
      8          1           0        0.697768    3.160630   -0.896815
      9          1           0        2.255920    3.985775   -0.741252
     10          1           0        1.031939    4.159377    0.528016
     11          6           0        3.263820   -0.001085    0.241136
     12          6           0        3.890742   -1.001799   -0.730216
     13          6           0        4.469608   -2.228066   -0.023833
     14          1           0        4.022987    0.318013    0.968623
     15          1           0        2.472700   -0.503012    0.814846
     16          1           0        4.680333   -0.497381   -1.301815
     17          1           0        3.130985   -1.317864   -1.456499
     18          1           0        3.688678   -2.756658    0.532351
     19          1           0        5.246830   -1.931513    0.687914
     20          1           0        4.912659   -2.930261   -0.736917
     21          6           0       -4.663205    0.234571   -0.530279
     22          6           0       -3.770791   -0.168516   -1.529097
     23          6           0       -2.471217   -0.566547   -1.201643
     24          6           0       -2.095779   -0.549218    0.140757
     25          6           0       -2.961837   -0.152882    1.158672
     26          6           0       -4.256597    0.241091    0.808058
     27          1           0       -5.670876    0.542196   -0.793650
     28          1           0       -4.083824   -0.174581   -2.569299
     29          1           0       -1.759977   -0.883255   -1.954804
     30          1           0       -2.620869   -0.157396    2.186844
     31          1           0       -4.947523    0.553646    1.585860
     32          7           0       -0.722528   -0.968447    0.499676
     33          8           0       -0.416185   -0.944266    1.689721
     34          8           0        0.021482   -1.313283   -0.415842
 ---------------------------------------------------------------------

 SCF Done:  E(RHF) =  -669.537266150     A.U. after   15 cycles
 E2 =    -0.2093511591D+01 EUMP2 =    -0.67163077774166D+03

 The electronic state is 1-A.
 Alpha  occ. eigenvalues --  -20.61306 -20.61292 -15.86264 -11.31469 -11.28011
 Alpha  occ. eigenvalues --  -11.28005 -11.27725 -11.26987 -11.26977 -11.20524
 Alpha  occ. eigenvalues --  -11.20383 -11.19985 -11.19974 -11.19637 -11.19487
 Alpha  occ. eigenvalues --   -1.60318  -1.39878  -1.19619  -1.09049  -1.06963
 Alpha  occ. eigenvalues --   -1.04994  -1.02244  -0.95910  -0.94702  -0.86401
 Alpha  occ. eigenvalues --   -0.85735  -0.82748  -0.78332  -0.77824  -0.76713
 Alpha  occ. eigenvalues --   -0.72483  -0.71628  -0.70727  -0.65278  -0.65003
 Alpha  occ. eigenvalues --   -0.63544  -0.62342  -0.59637  -0.58121  -0.56319
 Alpha  occ. eigenvalues --   -0.55507  -0.54006  -0.53321  -0.53084  -0.51492
 Alpha  occ. eigenvalues --   -0.51150  -0.49339  -0.49256  -0.48557  -0.46658
 Alpha  occ. eigenvalues --   -0.45629  -0.45059  -0.44263  -0.43982  -0.42425
 Alpha  occ. eigenvalues --   -0.37587  -0.36587
 Alpha virt. eigenvalues --    0.04659   0.11067   0.16145   0.21174   0.24196
 Alpha virt. eigenvalues --    0.25532   0.27127   0.27682   0.28462   0.28856
 Alpha virt. eigenvalues --    0.29264   0.30981   0.32258   0.32506   0.32706

 Mulliken charges:
               1
     1  C   -0.298705
     2  C   -0.302638
     3  C   -0.474156
     4  H    0.141585
     5  H    0.152699
     6  H    0.149730
     7  H    0.156005
     8  H    0.149541
     9  H    0.153419
    10  H    0.155612
    11  C   -0.303913
    12  C   -0.298368
    13  C   -0.476218
    14  H    0.139314
    15  H    0.177838
    16  H    0.142173
    17  H    0.158940
    18  H    0.162359
    19  H    0.149725
    20  H    0.153306
    21  C   -0.170026
    22  C   -0.218539
    23  C   -0.170641
    24  C    0.159635
    25  C   -0.170285
    26  C   -0.218555
    27  H    0.226764
    28  H    0.224560
    29  H    0.275964
    30  H    0.276309
    31  H    0.224552
    32  N    0.489113
    33  O   -0.458326
    34  O   -0.458774
 Sum of Mulliken charges =  -0.00000

 Dipole moment (field-independent basis, Debye):
    X=             -5.3087    Y=              1.2197    Z=             -1.1794  Tot=              5.5732
 Quadrupole moment (field-independent basis, Debye-Ang):
   XX=            -75.5816   YY=            -98.5608   ZZ=            -90.6092
   XY=             -0.0997   XZ=              1.1063   YZ=              2.2424

 Normal termination of Gaussian 16 at Wed May  5 20:21:03 2021.
