 Gaussian 16, Revision A.03,
 Gaussian 16:  EM64L-G16RevA.03 25-Dec-2016

 -------------
 #p 6-31g* mp2
 -------------

 ------------------------------------------------------
 Input file generated by CHIRIPA (05-May-2021 14:53:11)
 ------------------------------------------------------
 Symbolic Z-matrix:
 Charge =  0 Multiplicity = 1

                         Standard orientation:
 ---------------------------------------------------------------------
 Center     Atomic      Atomic             Coordinates (Angstroms)
 Number     Number       Type             X           Y           Z
 ---------------------------------------------------------------------
      1          6           0       -4.795433   -0.479596    0.171429
      2          6           0       -6.185863   -0.178727   -0.389078
      3          6           0       -7.276131   -1.050271    0.235037
      4          1           0       -4.560685   -1.539550    0.003100
      5          1           0       -4.806548   -0.330977    1.260090
      6          1           0       -6.171766   -0.326532   -1.476539
      7          1           0       -6.417250    0.880680   -0.219567
      8          1           0       -7.319260   -0.896541    1.318138
      9          1           0       -7.072382   -2.110612    0.054025
     10          1           0       -8.261974   -0.818560   -0.180034
     11          6           0       -3.694846    0.383680   -0.442730
     12          6           0       -2.304416    0.082811    0.117776
     13          6           0       -1.214149    0.954356   -0.506339
     14          1           0       -3.683732    0.235061   -1.531392
     15          1           0       -3.929595    1.443635   -0.274402
     16          1           0       -2.073030   -0.976596   -0.051735
     17          1           0       -2.318513    0.230616    1.205237
     18          1           0       -1.417898    2.014696   -0.325326
     19          1           0       -1.171019    0.800625   -1.589440
     20          1           0       -0.228306    0.722645   -0.091268
     21          6           0        2.061884    2.180635    0.551688
     22          6           0        2.731735    2.001319   -0.663083
     23          6           0        3.430096    0.817936   -0.920857
     24          6           0        3.437809   -0.169726    0.062888
     25          6           0        2.780185   -0.020858    1.282994
     26          6           0        2.088202    1.170754    1.519143
     27          1           0        1.521858    3.103111    0.743534
     28          1           0        2.713009    2.783894   -1.416257
     29          1           0        3.957287    0.652832   -1.852644
     30          1           0        2.816889   -0.819002    2.014456
     31          1           0        1.568890    1.307259    2.463457
     32          7           0        4.173756   -1.426877   -0.198559
     33          8           0        4.165324   -2.281783    0.684448
     34          8           0        4.745088   -1.533520   -1.281539
 ---------------------------------------------------------------------

 SCF Done:  E(RHF) =  -669.534239220     A.U. after   15 cycles
 E2 =    -0.2092659869D+01 EUMP2 =    -0.67162689908882D+03

 The electronic state is 1-A.
 Alpha  occ. eigenvalues --  -20.60797 -20.60792 -15.85853 -11.31235 -11.27825
 Alpha  occ. eigenvalues --  -11.27819 -11.27528 -11.26796 -11.26786 -11.21898
 Alpha  occ. eigenvalues --  -11.21795 -11.21654 -11.21577 -11.21279 -11.21230
 Alpha  occ. eigenvalues --   -1.59873  -1.39426  -1.19427  -1.08820  -1.08667
 Alpha  occ. eigenvalues --   -1.04825  -1.03769  -0.96227  -0.95632  -0.87243
 Alpha  occ. eigenvalues --   -0.86214  -0.82464  -0.79844  -0.78488  -0.77510
 Alpha  occ. eigenvalues --   -0.72070  -0.71198  -0.70516  -0.65308  -0.65065
 Alpha  occ. eigenvalues --   -0.64813  -0.62163  -0.61175  -0.59658  -0.57869
 Alpha  occ. eigenvalues --   -0.55533  -0.55294  -0.53750  -0.52904  -0.52700
 Alpha  occ. eigenvalues --   -0.52224  -0.50172  -0.48830  -0.48824  -0.48145
 Alpha  occ. eigenvalues --   -0.46883  -0.46029  -0.45957  -0.44829  -0.44027
 Alpha  occ. eigenvalues --   -0.37271  -0.36429
 Alpha virt. eigenvalues --    0.05017   0.11169   0.16487   0.21171   0.22679
 Alpha virt. eigenvalues --    0.24172   0.26354   0.26989   0.27307   0.27598
 Alpha virt. eigenvalues --    0.28648   0.30585   0.31317   0.31847   0.32146

 Mulliken charges:
               1
     1  C   -0.298392
     2  C   -0.299713
     3  C   -0.475820
     4  H    0.151102
     5  H    0.148632
     6  H    0.152489
     7  H    0.151214
     8  H    0.154944
     9  H    0.156066
    10  H    0.160657
    11  C   -0.298100
    12  C   -0.298716
    13  C   -0.484805
    14  H    0.150505
    15  H    0.147746
    16  H    0.154883
    17  H    0.147574
    18  H    0.145451
    19  H    0.155454
    20  H    0.173746
    21  C   -0.168583
    22  C   -0.216474
    23  C   -0.170568
    24  C    0.158489
    25  C   -0.170394
    26  C   -0.222042
    27  H    0.226811
    28  H    0.224073
    29  H    0.275990
    30  H    0.276081
    31  H    0.224238
    32  N    0.488143
    33  O   -0.460353
    34  O   -0.460329
 Sum of Mulliken charges =  -0.00000

 Dipole moment (field-independent basis, Debye):
    X=             -2.5173    Y=              4.4158    Z=              0.9094  Tot=              5.1636
 Quadrupole moment (field-independent basis, Debye-Ang):
   XX=           -113.8280   YY=            -96.0883   ZZ=            -90.3144
   XY=             15.9773   XZ=              1.8579   YZ=             -0.9035

 Normal termination of Gaussian 16 at Wed May  5 18:28:10 2021.
