 Gaussian 16, Revision A.03,
 Gaussian 16:  EM64L-G16RevA.03 25-Dec-2016

 -------------
 #p 6-31g* mp2
 -------------

 ------------------------------------------------------
 Input file generated by CHIRIPA (05-May-2021 14:55:22)
 ------------------------------------------------------
 Symbolic Z-matrix:
 Charge =  0 Multiplicity = 1

                         Standard orientation:
 ---------------------------------------------------------------------
 Center     Atomic      Atomic             Coordinates (Angstroms)
 Number     Number       Type             X           Y           Z
 ---------------------------------------------------------------------
      1          6           0        1.869774    1.557945    1.019492
      2          6           0        1.948738    0.181165    1.253504
      3          6           0        2.969458   -0.579808    0.675923
      4          6           0        3.898557    0.071412   -0.134002
      5          6           0        3.846625    1.441454   -0.386148
      6          6           0        2.817299    2.182594    0.201854
      7          1           0        1.073512    2.141384    1.472219
      8          1           0        1.214260   -0.306616    1.888057
      9          1           0        3.054186   -1.647146    0.840327
     10          1           0        4.593353    1.899566   -1.023289
     11          1           0        2.758447    3.251665    0.018361
     12          7           0        4.983702   -0.723698   -0.750978
     13          8           0        5.789944   -0.126222   -1.460649
     14          8           0        5.007451   -1.929326   -0.513209
     15          6           0       -5.329197    0.233629   -0.092876
     16          6           0       -6.452020   -0.353742   -0.948591
     17          6           0       -7.580975    0.644110   -1.208484
     18          1           0       -5.746532    0.574803    0.864401
     19          1           0       -4.924491    1.124579   -0.592691
     20          1           0       -6.853558   -1.244119   -0.447981
     21          1           0       -6.031931   -0.693731   -1.903865
     22          1           0       -7.200800    1.528869   -1.729318
     23          1           0       -8.027095    0.975354   -0.265162
     24          1           0       -8.372952    0.203437   -1.822029
     25          6           0       -4.193263   -0.751916    0.175608
     26          6           0       -3.070441   -0.164544    1.031324
     27          6           0       -1.941486   -1.162397    1.291215
     28          1           0       -4.597970   -1.642866    0.675423
     29          1           0       -3.775930   -1.093088   -0.781669
     30          1           0       -3.490531    0.175445    1.986598
     31          1           0       -2.668904    0.725834    0.530713
     32          1           0       -1.495365   -1.493640    0.347894
     33          1           0       -2.321661   -2.047156    1.812051
     34          1           0       -1.149509   -0.721723    1.904762
 ---------------------------------------------------------------------

 SCF Done:  E(RHF) =  -669.535392453     A.U. after   15 cycles
 E2 =    -0.2090840535D+01 EUMP2 =    -0.67162623298830D+03

 The electronic state is 1-A.
 Alpha  occ. eigenvalues --  -20.60735 -20.60730 -15.85788 -11.31149 -11.27718
 Alpha  occ. eigenvalues --  -11.27703 -11.27456 -11.26737 -11.26695 -11.22396
 Alpha  occ. eigenvalues --  -11.22040 -11.21997 -11.21974 -11.21860 -11.21409
 Alpha  occ. eigenvalues --   -1.59810  -1.39364  -1.19319  -1.09005  -1.08716
 Alpha  occ. eigenvalues --   -1.04721  -1.04136  -0.96595  -0.95552  -0.87621
 Alpha  occ. eigenvalues --   -0.86118  -0.82383  -0.80208  -0.78788  -0.77432
 Alpha  occ. eigenvalues --   -0.72006  -0.71133  -0.70429  -0.65627  -0.64971
 Alpha  occ. eigenvalues --   -0.64759  -0.62110  -0.61516  -0.59983  -0.58195
 Alpha  occ. eigenvalues --   -0.55858  -0.55228  -0.53441  -0.53049  -0.53038
 Alpha  occ. eigenvalues --   -0.52658  -0.50512  -0.48768  -0.48761  -0.48515
 Alpha  occ. eigenvalues --   -0.47220  -0.46338  -0.46239  -0.44770  -0.44388
 Alpha  occ. eigenvalues --   -0.37300  -0.36317
 Alpha virt. eigenvalues --    0.05101   0.11291   0.16587   0.20123   0.22498
 Alpha virt. eigenvalues --    0.23867   0.25833   0.26103   0.26892   0.28079
 Alpha virt. eigenvalues --    0.28487   0.29997   0.30863   0.31490   0.31969

 Mulliken charges:
               1
     1  C   -0.172505
     2  C   -0.220582
     3  C   -0.172543
     4  C    0.158750
     5  C   -0.171305
     6  C   -0.218612
     7  H    0.225366
     8  H    0.229399
     9  H    0.275979
    10  H    0.275403
    11  H    0.223170
    12  N    0.488006
    13  O   -0.460627
    14  O   -0.460414
    15  C   -0.298638
    16  C   -0.300168
    17  C   -0.475990
    18  H    0.149862
    19  H    0.149360
    20  H    0.152805
    21  H    0.153091
    22  H    0.155310
    23  H    0.155346
    24  H    0.161711
    25  C   -0.299308
    26  C   -0.299423
    27  C   -0.478010
    28  H    0.151290
    29  H    0.151903
    30  H    0.152629
    31  H    0.150122
    32  H    0.160284
    33  H    0.159612
    34  H    0.148730
 Sum of Mulliken charges =  -0.00000

 Dipole moment (field-independent basis, Debye):
    X=             -4.0136    Y=              2.7606    Z=              2.1224  Tot=              5.3136
 Quadrupole moment (field-independent basis, Debye-Ang):
   XX=           -124.5811   YY=            -91.3321   ZZ=            -94.5326
   XY=             13.2455   XZ=              7.5596   YZ=             -2.4101

 Normal termination of Gaussian 16 at Thu May  6 17:34:18 2021.
