 Gaussian 16, Revision A.03,
 Gaussian 16:  EM64L-G16RevA.03 25-Dec-2016

 -------------
 #p 6-31g* mp2
 -------------

 ------------------------------------------------------
 Input file generated by CHIRIPA (05-May-2021 14:55:24)
 ------------------------------------------------------
 Symbolic Z-matrix:
 Charge =  0 Multiplicity = 1

                         Standard orientation:
 ---------------------------------------------------------------------
 Center     Atomic      Atomic             Coordinates (Angstroms)
 Number     Number       Type             X           Y           Z
 ---------------------------------------------------------------------
      1          6           0        2.568583    2.103568    0.313491
      2          6           0        3.789280    2.134096   -0.368777
      3          6           0        4.544400    0.968007   -0.525546
      4          6           0        4.046551   -0.216532    0.015106
      5          6           0        2.834022   -0.279173    0.700043
      6          6           0        2.095684    0.899154    0.844787
      7          1           0        1.988506    3.014167    0.430602
      8          1           0        4.159007    3.068031   -0.782434
      9          1           0        5.492670    0.963207   -1.049166
     10          1           0        2.491468   -1.225220    1.101376
     11          1           0        1.148016    0.872465    1.375124
     12          7           0        4.837080   -1.457497   -0.144493
     13          8           0        4.376517   -2.488367    0.341126
     14          8           0        5.902291   -1.375797   -0.752184
     15          6           0       -4.469605    0.521631   -0.232032
     16          6           0       -3.103070    0.180723    0.363242
     17          6           0       -2.026762    1.202806   -0.003774
     18          1           0       -4.380564    0.585990   -1.325135
     19          1           0       -4.775071    1.518139    0.115901
     20          1           0       -2.800899   -0.815426    0.015396
     21          1           0       -3.195415    0.116979    1.455041
     22          1           0       -2.302190    2.198889    0.357555
     23          1           0       -1.905432    1.261187   -1.090270
     24          1           0       -1.057942    0.939686    0.432131
     25          6           0       -5.556028   -0.490894    0.126023
     26          6           0       -6.922562   -0.149986   -0.469251
     27          6           0       -7.998869   -1.172070   -0.102234
     28          1           0       -5.250561   -1.487402   -0.221910
     29          1           0       -5.645069   -0.555254    1.219126
     30          1           0       -6.830217   -0.086243   -1.561050
     31          1           0       -7.224733    0.846162   -0.121405
     32          1           0       -8.120200   -1.230450    0.984261
     33          1           0       -7.723442   -2.168153   -0.463564
     34          1           0       -8.967691   -0.908949   -0.538140
 ---------------------------------------------------------------------

 SCF Done:  E(RHF) =  -669.535432802     A.U. after   15 cycles
 E2 =    -0.2090818095D+01 EUMP2 =    -0.67162625089671D+03

 The electronic state is 1-A.
 Alpha  occ. eigenvalues --  -20.60750 -20.60745 -15.85804 -11.31169 -11.27745
 Alpha  occ. eigenvalues --  -11.27741 -11.27480 -11.26751 -11.26737 -11.22251
 Alpha  occ. eigenvalues --  -11.21952 -11.21917 -11.21886 -11.21751 -11.21321
 Alpha  occ. eigenvalues --   -1.59826  -1.39379  -1.19345  -1.08903  -1.08737
 Alpha  occ. eigenvalues --   -1.04751  -1.04037  -0.96501  -0.95571  -0.87526
 Alpha  occ. eigenvalues --   -0.86146  -0.82406  -0.80104  -0.78688  -0.77456
 Alpha  occ. eigenvalues --   -0.72022  -0.71149  -0.70445  -0.65526  -0.64996
 Alpha  occ. eigenvalues --   -0.64790  -0.62138  -0.61423  -0.59884  -0.58101
 Alpha  occ. eigenvalues --   -0.55772  -0.55244  -0.53377  -0.53045  -0.52979
 Alpha  occ. eigenvalues --   -0.52648  -0.50426  -0.48783  -0.48777  -0.48414
 Alpha  occ. eigenvalues --   -0.47119  -0.46238  -0.46140  -0.44785  -0.44288
 Alpha  occ. eigenvalues --   -0.37315  -0.36345
 Alpha virt. eigenvalues --    0.05086   0.11210   0.16544   0.20402   0.22535
 Alpha virt. eigenvalues --    0.23828   0.26036   0.26216   0.27057   0.28129
 Alpha virt. eigenvalues --    0.28495   0.30070   0.30933   0.31603   0.32054

 Mulliken charges:
               1
     1  C   -0.171295
     2  C   -0.218756
     3  C   -0.170766
     4  C    0.158498
     5  C   -0.171848
     6  C   -0.219789
     7  H    0.226435
     8  H    0.223412
     9  H    0.275582
    10  H    0.275640
    11  H    0.226921
    12  N    0.488089
    13  O   -0.460479
    14  O   -0.460516
    15  C   -0.298933
    16  C   -0.299618
    17  C   -0.479400
    18  H    0.151060
    19  H    0.149563
    20  H    0.154761
    21  H    0.151676
    22  H    0.154644
    23  H    0.159813
    24  H    0.151984
    25  C   -0.298799
    26  C   -0.300009
    27  C   -0.476000
    28  H    0.150987
    29  H    0.149975
    30  H    0.152589
    31  H    0.151901
    32  H    0.155454
    33  H    0.156079
    34  H    0.161146
 Sum of Mulliken charges =  -0.00000

 Dipole moment (field-independent basis, Debye):
    X=             -2.9214    Y=              4.3683    Z=              0.5151  Tot=              5.2803
 Quadrupole moment (field-independent basis, Debye-Ang):
   XX=           -115.3431   YY=            -95.9498   ZZ=            -93.4875
   XY=             19.9330   XZ=              0.2456   YZ=             -1.0056

 Normal termination of Gaussian 16 at Thu May  6 16:01:31 2021.
