 Gaussian 16, Revision A.03,
 Gaussian 16:  EM64L-G16RevA.03 25-Dec-2016

 -------------
 #p 6-31g* mp2
 -------------

 ------------------------------------------------------
 Input file generated by CHIRIPA (05-May-2021 14:53:11)
 ------------------------------------------------------
 Symbolic Z-matrix:
 Charge =  0 Multiplicity = 1

                         Standard orientation:
 ---------------------------------------------------------------------
 Center     Atomic      Atomic             Coordinates (Angstroms)
 Number     Number       Type             X           Y           Z
 ---------------------------------------------------------------------
      1          6           0       -2.188280    1.049202    0.026066
      2          6           0       -2.169369    2.516632   -0.403209
      3          6           0       -0.837581    3.204006   -0.100467
      4          1           0       -1.977703    0.985908    1.102447
      5          1           0       -1.374592    0.514803   -0.483567
      6          1           0       -2.983712    3.047804    0.106023
      7          1           0       -2.380205    2.576453   -1.478656
      8          1           0       -0.016815    2.699878   -0.620850
      9          1           0       -0.623751    3.173907    0.972833
     10          1           0       -0.846040    4.252136   -0.415447
     11          6           0       -3.513030    0.348412   -0.270006
     12          6           0       -3.531941   -1.119018    0.159269
     13          6           0       -4.863729   -1.806392   -0.143473
     14          1           0       -4.326718    0.882811    0.239627
     15          1           0       -3.723607    0.411706   -1.346387
     16          1           0       -3.321105   -1.178839    1.234715
     17          1           0       -2.717598   -1.650190   -0.349963
     18          1           0       -5.077559   -1.776293   -1.216773
     19          1           0       -5.684495   -1.302264    0.376910
     20          1           0       -4.855270   -2.854521    0.171507
     21          6           0        1.153806   -2.829364    0.098339
     22          6           0        0.548783   -1.770602    0.783534
     23          6           0        1.134518   -0.501180    0.788642
     24          6           0        2.330833   -0.325190    0.094994
     25          6           0        2.957990   -1.360110   -0.597036
     26          6           0        2.354363   -2.621106   -0.588548
     27          1           0        0.691844   -3.812209    0.099652
     28          1           0       -0.383601   -1.929425    1.317838
     29          1           0        0.687620    0.336082    1.310844
     30          1           0        3.887269   -1.171085   -1.120609
     31          1           0        2.826485   -3.441508   -1.121545
     32          7           0        2.960397    1.014230    0.093205
     33          8           0        4.014493    1.143355   -0.525539
     34          8           0        2.387831    1.909580    0.710581
 ---------------------------------------------------------------------

 SCF Done:  E(RHF) =  -669.534971249     A.U. after   15 cycles
 E2 =    -0.2094464930D+01 EUMP2 =    -0.67162943617829D+03

 The electronic state is 1-A.
 Alpha  occ. eigenvalues --  -20.60826 -20.60805 -15.85843 -11.31168 -11.27748
 Alpha  occ. eigenvalues --  -11.27688 -11.27478 -11.26751 -11.26691 -11.22262
 Alpha  occ. eigenvalues --  -11.21770 -11.21652 -11.21615 -11.21451 -11.20424
 Alpha  occ. eigenvalues --   -1.59884  -1.39438  -1.19349  -1.08761  -1.08723
 Alpha  occ. eigenvalues --   -1.04737  -1.03699  -0.96096  -0.95590  -0.87115
 Alpha  occ. eigenvalues --   -0.86133  -0.82421  -0.79811  -0.78629  -0.77395
 Alpha  occ. eigenvalues --   -0.72066  -0.71206  -0.70449  -0.65366  -0.64996
 Alpha  occ. eigenvalues --   -0.64733  -0.62080  -0.61090  -0.59561  -0.57719
 Alpha  occ. eigenvalues --   -0.55370  -0.55245  -0.53147  -0.52875  -0.52745
 Alpha  occ. eigenvalues --   -0.52444  -0.50052  -0.48849  -0.48827  -0.48056
 Alpha  occ. eigenvalues --   -0.46875  -0.46072  -0.45986  -0.44699  -0.43966
 Alpha  occ. eigenvalues --   -0.37336  -0.36261
 Alpha virt. eigenvalues --    0.05027   0.11190   0.16426   0.20407   0.22834
 Alpha virt. eigenvalues --    0.23512   0.24945   0.26444   0.27315   0.28412
 Alpha virt. eigenvalues --    0.29731   0.30354   0.31388   0.31592   0.32116

 Mulliken charges:
               1
     1  C   -0.305406
     2  C   -0.300916
     3  C   -0.475142
     4  H    0.140753
     5  H    0.154129
     6  H    0.150565
     7  H    0.151500
     8  H    0.163610
     9  H    0.157123
    10  H    0.160839
    11  C   -0.296551
    12  C   -0.303519
    13  C   -0.475285
    14  H    0.151603
    15  H    0.152265
    16  H    0.146278
    17  H    0.149804
    18  H    0.157549
    19  H    0.157848
    20  H    0.158262
    21  C   -0.172123
    22  C   -0.221073
    23  C   -0.172094
    24  C    0.156078
    25  C   -0.171048
    26  C   -0.218812
    27  H    0.225746
    28  H    0.228650
    29  H    0.281219
    30  H    0.275353
    31  H    0.223240
    32  N    0.487660
    33  O   -0.460019
    34  O   -0.458089
 Sum of Mulliken charges =  -0.00000

 Dipole moment (field-independent basis, Debye):
    X=             -2.1588    Y=             -4.5955    Z=             -0.0450  Tot=              5.0774
 Quadrupole moment (field-independent basis, Debye-Ang):
   XX=           -103.3466   YY=            -91.6585   ZZ=            -92.9383
   XY=            -12.4227   XZ=             -2.8851   YZ=              0.8659

 Normal termination of Gaussian 16 at Wed May  5 16:56:54 2021.
