 Gaussian 16, Revision A.03,
 Gaussian 16:  EM64L-G16RevA.03 25-Dec-2016

 -------------
 #p 6-31g* mp2
 -------------

 ------------------------------------------------------
 Input file generated by CHIRIPA (05-May-2021 14:57:26)
 ------------------------------------------------------
 Symbolic Z-matrix:
 Charge =  0 Multiplicity = 1

                         Standard orientation:
 ---------------------------------------------------------------------
 Center     Atomic      Atomic             Coordinates (Angstroms)
 Number     Number       Type             X           Y           Z
 ---------------------------------------------------------------------
      1          6           0        4.622291    1.458994   -1.316787
      2          6           0        3.351155    1.854794   -0.887746
      3          6           0        2.553684    0.987301   -0.135387
      4          6           0        3.061077   -0.274361    0.171293
      5          6           0        4.323404   -0.697848   -0.241597
      6          6           0        5.103511    0.186180   -0.992914
      7          1           0        5.235041    2.139306   -1.900832
      8          1           0        2.974850    2.842679   -1.137790
      9          1           0        1.565963    1.268003    0.209621
     10          1           0        4.671293   -1.688931    0.023255
     11          1           0        6.090309   -0.123899   -1.324764
     12          7           0        2.226022   -1.201489    0.967230
     13          8           0        2.696025   -2.307688    1.224249
     14          8           0        1.117314   -0.804419    1.318995
     15          6           0       -2.665914    2.143150    1.372413
     16          6           0       -2.133331    0.894217    1.708634
     17          6           0       -2.421800   -0.232734    0.933190
     18          6           0       -3.250212   -0.073881   -0.176671
     19          6           0       -3.796084    1.157031   -0.537462
     20          6           0       -3.494130    2.270346    0.252413
     21          1           0       -2.436587    3.013297    1.980401
     22          1           0       -1.489829    0.792464    2.577884
     23          1           0       -2.022945   -1.211466    1.170710
     24          1           0       -4.434401    1.227157   -1.409844
     25          1           0       -3.909151    3.239041   -0.011088
     26          7           0       -3.562738   -1.259716   -1.005237
     27          8           0       -4.295237   -1.093335   -1.978069
     28          8           0       -3.069282   -2.333101   -0.666146
 ---------------------------------------------------------------------

 SCF Done:  E(RHF) =  -868.339415166     A.U. after   16 cycles
 E2 =    -0.2599415750D+01 EUMP2 =    -0.87093883091605D+03

 The electronic state is 1-A.
 Alpha  occ. eigenvalues --  -20.61289 -20.61225 -20.60135 -20.60102 -15.86303
 Alpha  occ. eigenvalues --  -15.85170 -11.31510 -11.30468 -11.28079 -11.28044
 Alpha  occ. eigenvalues --  -11.27782 -11.27141 -11.27061 -11.27030 -11.26879
 Alpha  occ. eigenvalues --  -11.26873 -11.26180 -11.25943  -1.60316  -1.59201
 Alpha  occ. eigenvalues --   -1.39880  -1.38752  -1.19669  -1.18668  -1.09093
 Alpha  occ. eigenvalues --   -1.08100  -1.05053  -1.04023  -0.95957  -0.94925
 Alpha  occ. eigenvalues --   -0.86459  -0.85446  -0.82808  -0.81727  -0.77866
 Alpha  occ. eigenvalues --   -0.76760  -0.72551  -0.71618  -0.71388  -0.70781
 Alpha  occ. eigenvalues --   -0.70527  -0.69790  -0.65333  -0.65059  -0.64308
 Alpha  occ. eigenvalues --   -0.64022  -0.62404  -0.61327  -0.55560  -0.54611
 Alpha  occ. eigenvalues --   -0.53386  -0.53148  -0.52415  -0.52098  -0.49294
 Alpha  occ. eigenvalues --   -0.49256  -0.48158  -0.48132  -0.45317  -0.44169
 Alpha  occ. eigenvalues --   -0.37639  -0.36729  -0.36648  -0.35608
 Alpha virt. eigenvalues --    0.04652   0.05734   0.11009   0.11984   0.16182
 Alpha virt. eigenvalues --    0.17176   0.21105   0.22138   0.27016   0.27672
 Alpha virt. eigenvalues --    0.28399   0.29015   0.30684   0.31623   0.32227

 Mulliken charges:
               1
     1  C   -0.170052
     2  C   -0.218379
     3  C   -0.170885
     4  C    0.158591
     5  C   -0.169969
     6  C   -0.218449
     7  H    0.226661
     8  H    0.223166
     9  H    0.273587
    10  H    0.276897
    11  H    0.224902
    12  N    0.492424
    13  O   -0.454926
    14  O   -0.472797
    15  C   -0.175820
    16  C   -0.220661
    17  C   -0.165003
    18  C    0.154541
    19  C   -0.173014
    20  C   -0.220534
    21  H    0.221149
    22  H    0.231809
    23  H    0.289121
    24  H    0.272527
    25  H    0.218971
    26  N    0.487765
    27  O   -0.465001
    28  O   -0.456620
 Sum of Mulliken charges =  -0.00000

 Dipole moment (field-independent basis, Debye):
    X=              4.4126    Y=              7.1783    Z=              0.2047  Tot=              8.4286
 Quadrupole moment (field-independent basis, Debye-Ang):
   XX=            -90.9066   YY=           -104.2356   ZZ=           -106.2523
   XY=             -8.6653   XZ=            -16.7354   YZ=             -1.6962

 Normal termination of Gaussian 16 at Fri May  7 03:32:20 2021.
