 Gaussian 16, Revision A.03,
 Gaussian 16:  EM64L-G16RevA.03 25-Dec-2016

 -------------
 #p 6-31g* mp2
 -------------

 ------------------------------------------------------
 Input file generated by CHIRIPA (05-May-2021 14:53:16)
 ------------------------------------------------------
 Symbolic Z-matrix:
 Charge =  0 Multiplicity = 1

                         Standard orientation:
 ---------------------------------------------------------------------
 Center     Atomic      Atomic             Coordinates (Angstroms)
 Number     Number       Type             X           Y           Z
 ---------------------------------------------------------------------
      1          6           0       -3.196081    0.754990   -0.107191
      2          6           0       -3.263199    2.109670    0.598728
      3          6           0       -1.949949    2.887773    0.510844
      4          1           0       -2.384954    0.159035    0.333100
      5          1           0       -2.931603    0.911786   -1.162114
      6          1           0       -3.528828    1.950466    1.651682
      7          1           0       -4.074384    2.702396    0.156834
      8          1           0       -1.682754    3.075787   -0.534076
      9          1           0       -1.134097    2.319585    0.969265
     10          1           0       -2.020217    3.852987    1.022005
     11          6           0       -4.501388   -0.034716   -0.028042
     12          6           0       -4.434270   -1.389396   -0.733961
     13          6           0       -5.747520   -2.167500   -0.646077
     14          1           0       -4.765866   -0.191512    1.026880
     15          1           0       -5.312515    0.561239   -0.468333
     16          1           0       -3.623084   -1.982122   -0.292067
     17          1           0       -4.168641   -1.230192   -1.786915
     18          1           0       -6.563371   -1.599312   -1.104498
     19          1           0       -6.014715   -2.355514    0.398843
     20          1           0       -5.677252   -3.132713   -1.157238
     21          6           0        0.662654   -0.706771    0.883376
     22          6           0        0.893264    0.267955   -0.092969
     23          6           0        2.187975    0.512159   -0.560557
     24          6           0        3.233449   -0.240230   -0.027469
     25          6           0        3.035801   -1.218217    0.946064
     26          6           0        1.732772   -1.445443    1.398868
     27          1           0       -0.346339   -0.889880    1.240867
     28          1           0        0.064112    0.843136   -0.495111
     29          1           0        2.394841    1.260719   -1.315727
     30          1           0        3.882523   -1.775574    1.327942
     31          1           0        1.556647   -2.203060    2.157182
     32          7           0        4.608504    0.009312   -0.514658
     33          8           0        5.512530   -0.667062   -0.028970
     34          8           0        4.756210    0.876552   -1.372979
 ---------------------------------------------------------------------

 SCF Done:  E(RHF) =  -669.534611106     A.U. after   15 cycles
 E2 =    -0.2093070430D+01 EUMP2 =    -0.67162768153636D+03

 The electronic state is 1-A.
 Alpha  occ. eigenvalues --  -20.60708 -20.60703 -15.85759 -11.31117 -11.27682
 Alpha  occ. eigenvalues --  -11.27654 -11.27410 -11.26707 -11.26588 -11.22705
 Alpha  occ. eigenvalues --  -11.22642 -11.22478 -11.22357 -11.22154 -11.21771
 Alpha  occ. eigenvalues --   -1.59783  -1.39337  -1.19281  -1.09508  -1.08680
 Alpha  occ. eigenvalues --   -1.04691  -1.04497  -0.96973  -0.95523  -0.87986
 Alpha  occ. eigenvalues --   -0.86088  -0.82350  -0.80588  -0.79350  -0.77386
 Alpha  occ. eigenvalues --   -0.71979  -0.71106  -0.70425  -0.66156  -0.64927
 Alpha  occ. eigenvalues --   -0.64693  -0.62112  -0.61831  -0.60304  -0.58594
 Alpha  occ. eigenvalues --   -0.56308  -0.55188  -0.53604  -0.53468  -0.52983
 Alpha  occ. eigenvalues --   -0.52734  -0.50904  -0.48900  -0.48735  -0.48686
 Alpha  occ. eigenvalues --   -0.47611  -0.46825  -0.46764  -0.44782  -0.44745
 Alpha  occ. eigenvalues --   -0.37261  -0.36266
 Alpha virt. eigenvalues --    0.05127   0.11245   0.16619   0.19333   0.22337
 Alpha virt. eigenvalues --    0.23436   0.24433   0.25869   0.26623   0.28472
 Alpha virt. eigenvalues --    0.29834   0.30129   0.30833   0.31313   0.31729

 Mulliken charges:
               1
     1  C   -0.305939
     2  C   -0.298719
     3  C   -0.484590
     4  H    0.141477
     5  H    0.151426
     6  H    0.154384
     7  H    0.157142
     8  H    0.153799
     9  H    0.155179
    10  H    0.167988
    11  C   -0.298564
    12  C   -0.299774
    13  C   -0.476360
    14  H    0.150885
    15  H    0.154163
    16  H    0.148010
    17  H    0.154268
    18  H    0.157401
    19  H    0.155818
    20  H    0.162842
    21  C   -0.177580
    22  C   -0.223255
    23  C   -0.173258
    24  C    0.158633
    25  C   -0.171182
    26  C   -0.218040
    27  H    0.228141
    28  H    0.234830
    29  H    0.275664
    30  H    0.275247
    31  H    0.223061
    32  N    0.488038
    33  O   -0.460676
    34  O   -0.460460
 Sum of Mulliken charges =  -0.00000

 Dipole moment (field-independent basis, Debye):
    X=             -5.1229    Y=             -0.8024    Z=              1.6890  Tot=              5.4535
 Quadrupole moment (field-independent basis, Debye-Ang):
   XX=           -125.6578   YY=            -92.0943   ZZ=            -92.6669
   XY=             -3.9926   XZ=              7.2864   YZ=             -3.2310

 Normal termination of Gaussian 16 at Wed May  5 15:41:37 2021.
