 Gaussian 16, Revision A.03,
 Gaussian 16:  EM64L-G16RevA.03 25-Dec-2016

 -------------
 #p 6-31g* mp2
 -------------

 ------------------------------------------------------
 Input file generated by CHIRIPA (05-May-2021 14:55:20)
 ------------------------------------------------------
 Symbolic Z-matrix:
 Charge =  0 Multiplicity = 1

                         Standard orientation:
 ---------------------------------------------------------------------
 Center     Atomic      Atomic             Coordinates (Angstroms)
 Number     Number       Type             X           Y           Z
 ---------------------------------------------------------------------
      1          6           0        1.133339    0.055157    2.465518
      2          6           0        0.725670   -0.933276    1.563672
      3          6           0        1.339516   -1.050125    0.313037
      4          6           0        2.362391   -0.157787   -0.004375
      5          6           0        2.790950    0.837521    0.872545
      6          6           0        2.162863    0.935848    2.117690
      7          1           0        0.650957    0.138735    3.434909
      8          1           0       -0.073607   -1.618608    1.831105
      9          1           0        1.043668   -1.806065   -0.404212
     10          1           0        3.590502    1.506190    0.577558
     11          1           0        2.481535    1.704450    2.816077
     12          7           0        3.019781   -0.271686   -1.325460
     13          8           0        3.918578    0.526710   -1.581126
     14          8           0        2.623799   -1.157199   -2.080245
     15          6           0       -3.059233    0.828784   -0.633011
     16          6           0       -2.408443    2.061714   -0.005046
     17          6           0       -2.766114    3.356037   -0.736206
     18          1           0       -2.750655    0.754733   -1.684791
     19          1           0       -4.150188    0.959952   -0.635832
     20          1           0       -1.319115    1.927656   -0.002152
     21          1           0       -2.718454    2.132732    1.045413
     22          1           0       -3.849004    3.516878   -0.727344
     23          1           0       -2.441714    3.310638   -1.780861
     24          1           0       -2.290278    4.224771   -0.270651
     25          6           0       -2.711123   -0.472904    0.086820
     26          6           0       -3.361914   -1.705835   -0.541144
     27          6           0       -3.004242   -3.000158    0.190015
     28          1           0       -1.620168   -0.604072    0.089641
     29          1           0       -3.019702   -0.398853    1.138599
     30          1           0       -3.051902   -1.776852   -1.591604
     31          1           0       -4.451242   -1.571777   -0.544039
     32          1           0       -3.328642   -2.954758    1.234670
     33          1           0       -1.921352   -3.160999    0.181153
     34          1           0       -3.480078   -3.868891   -0.275540
 ---------------------------------------------------------------------

 SCF Done:  E(RHF) =  -669.534635753     A.U. after   15 cycles
 E2 =    -0.2093707616D+01 EUMP2 =    -0.67162834336907D+03

 The electronic state is 1-A.
 Alpha  occ. eigenvalues --  -20.60819 -20.60814 -15.85873 -11.31254 -11.27801
 Alpha  occ. eigenvalues --  -11.27794 -11.27521 -11.26830 -11.26785 -11.22074
 Alpha  occ. eigenvalues --  -11.21851 -11.21812 -11.21789 -11.21658 -11.21248
 Alpha  occ. eigenvalues --   -1.59895  -1.39448  -1.19421  -1.08850  -1.08778
 Alpha  occ. eigenvalues --   -1.04831  -1.03935  -0.96398  -0.95640  -0.87417
 Alpha  occ. eigenvalues --   -0.86212  -0.82488  -0.80001  -0.78664  -0.77502
 Alpha  occ. eigenvalues --   -0.72089  -0.71219  -0.70511  -0.65494  -0.65050
 Alpha  occ. eigenvalues --   -0.64807  -0.62189  -0.61308  -0.59765  -0.58015
 Alpha  occ. eigenvalues --   -0.55718  -0.55303  -0.53269  -0.53043  -0.52912
 Alpha  occ. eigenvalues --   -0.52791  -0.50350  -0.48851  -0.48845  -0.48314
 Alpha  occ. eigenvalues --   -0.47030  -0.46166  -0.46073  -0.44848  -0.44168
 Alpha  occ. eigenvalues --   -0.37379  -0.36317
 Alpha virt. eigenvalues --    0.04976   0.11207   0.16370   0.19616   0.22807
 Alpha virt. eigenvalues --    0.23615   0.25686   0.26389   0.27547   0.28151
 Alpha virt. eigenvalues --    0.28946   0.30568   0.31213   0.31372   0.32202

 Mulliken charges:
               1
     1  C   -0.171856
     2  C   -0.217855
     3  C   -0.173583
     4  C    0.158602
     5  C   -0.171738
     6  C   -0.218273
     7  H    0.226246
     8  H    0.229701
     9  H    0.275608
    10  H    0.275768
    11  H    0.223821
    12  N    0.488058
    13  O   -0.460123
    14  O   -0.460437
    15  C   -0.298040
    16  C   -0.301039
    17  C   -0.475996
    18  H    0.153500
    19  H    0.149832
    20  H    0.155272
    21  H    0.147897
    22  H    0.155100
    23  H    0.158153
    24  H    0.159737
    25  C   -0.306590
    26  C   -0.299933
    27  C   -0.476904
    28  H    0.154756
    29  H    0.143752
    30  H    0.156571
    31  H    0.154144
    32  H    0.153468
    33  H    0.146452
    34  H    0.165928
 Sum of Mulliken charges =  -0.00000

 Dipole moment (field-independent basis, Debye):
    X=             -2.3280    Y=              0.4379    Z=              4.6058  Tot=              5.1793
 Quadrupole moment (field-independent basis, Debye-Ang):
   XX=           -103.7504   YY=            -93.2523   ZZ=            -94.8129
   XY=              4.1899   XZ=             11.6277   YZ=              0.8347

 Normal termination of Gaussian 16 at Thu May  6 12:26:35 2021.
