 Gaussian 16, Revision A.03,
 Gaussian 16:  EM64L-G16RevA.03 25-Dec-2016

 -------------
 #p 6-31g* mp2
 -------------

 ------------------------------------------------------
 Input file generated by CHIRIPA (05-May-2021 14:55:25)
 ------------------------------------------------------
 Symbolic Z-matrix:
 Charge =  0 Multiplicity = 1

                         Standard orientation:
 ---------------------------------------------------------------------
 Center     Atomic      Atomic             Coordinates (Angstroms)
 Number     Number       Type             X           Y           Z
 ---------------------------------------------------------------------
      1          6           0       -4.485582    0.243405   -1.032588
      2          6           0       -3.912818   -1.001149   -1.314630
      3          6           0       -2.760343   -1.420805   -0.643631
      4          6           0       -2.204455   -0.566813    0.307671
      5          6           0       -2.751621    0.678965    0.610883
      6          6           0       -3.904181    1.078018   -0.072425
      7          1           0       -5.380886    0.561401   -1.558617
      8          1           0       -4.362180   -1.651397   -2.059812
      9          1           0       -2.296197   -2.379181   -0.842384
     10          1           0       -2.280892    1.305289    1.358914
     11          1           0       -4.346825    2.045091    0.148666
     12          7           0       -0.984337   -1.000178    1.024543
     13          8           0       -0.513833   -0.229342    1.858254
     14          8           0       -0.521614   -2.102481    0.739142
     15          6           0        2.461986    0.933847    0.093201
     16          6           0        2.036199    2.274338   -0.506611
     17          6           0        0.800217    2.861357    0.175701
     18          1           0        1.627281    0.223625    0.017046
     19          1           0        2.662336    1.066914    1.165372
     20          1           0        1.838048    2.139076   -1.577618
     21          1           0        2.872078    2.981394   -0.429193
     22          1           0        0.989668    3.024805    1.241533
     23          1           0       -0.050238    2.177703    0.086581
     24          1           0        0.513305    3.819498   -0.268716
     25          6           0        3.696211    0.334349   -0.578378
     26          6           0        4.121998   -1.006142    0.021435
     27          6           0        5.357979   -1.593162   -0.660879
     28          1           0        3.495861    0.201283   -1.650548
     29          1           0        4.530915    1.044570   -0.502223
     30          1           0        3.286118   -1.713197   -0.055984
     31          1           0        4.320149   -0.870880    1.092442
     32          1           0        6.208434   -0.909507   -0.571758
     33          1           0        5.168529   -1.756610   -1.726709
     34          1           0        5.644892   -2.551302   -0.216460
 ---------------------------------------------------------------------

 SCF Done:  E(RHF) =  -669.535571805     A.U. after   15 cycles
 E2 =    -0.2093480422D+01 EUMP2 =    -0.67162905222750D+03

 The electronic state is 1-A.
 Alpha  occ. eigenvalues --  -20.60983 -20.60959 -15.85972 -11.31317 -11.27874
 Alpha  occ. eigenvalues --  -11.27857 -11.27606 -11.26881 -11.26866 -11.20894
 Alpha  occ. eigenvalues --  -11.20530 -11.20497 -11.20433 -11.20249 -11.20224
 Alpha  occ. eigenvalues --   -1.60029  -1.39581  -1.19483  -1.08885  -1.07485
 Alpha  occ. eigenvalues --   -1.04875  -1.02697  -0.95725  -0.95159  -0.86298
 Alpha  occ. eigenvalues --   -0.86166  -0.82557  -0.78756  -0.77614  -0.77243
 Alpha  occ. eigenvalues --   -0.72200  -0.71358  -0.70585  -0.65133  -0.64874
 Alpha  occ. eigenvalues --   -0.64123  -0.62225  -0.60110  -0.58522  -0.56754
 Alpha  occ. eigenvalues --   -0.55378  -0.54486  -0.53202  -0.52965  -0.51906
 Alpha  occ. eigenvalues --   -0.51576  -0.49185  -0.48976  -0.48888  -0.47095
 Alpha  occ. eigenvalues --   -0.45827  -0.45167  -0.44734  -0.44429  -0.42917
 Alpha  occ. eigenvalues --   -0.37456  -0.36460
 Alpha virt. eigenvalues --    0.04879   0.11067   0.16370   0.21264   0.23720
 Alpha virt. eigenvalues --    0.24986   0.26855   0.27486   0.27815   0.28631
 Alpha virt. eigenvalues --    0.28952   0.30945   0.31673   0.32321   0.32529

 Mulliken charges:
               1
     1  C   -0.170526
     2  C   -0.218355
     3  C   -0.171025
     4  C    0.158081
     5  C   -0.171463
     6  C   -0.219178
     7  H    0.226186
     8  H    0.223932
     9  H    0.275743
    10  H    0.278161
    11  H    0.224505
    12  N    0.485916
    13  O   -0.455394
    14  O   -0.460022
    15  C   -0.296331
    16  C   -0.300350
    17  C   -0.474580
    18  H    0.157582
    19  H    0.155077
    20  H    0.146896
    21  H    0.149151
    22  H    0.158978
    23  H    0.150908
    24  H    0.152182
    25  C   -0.298443
    26  C   -0.300851
    27  C   -0.475248
    28  H    0.144569
    29  H    0.145177
    30  H    0.162209
    31  H    0.153203
    32  H    0.151969
    33  H    0.152099
    34  H    0.159240
 Sum of Mulliken charges =  -0.00000

 Dipole moment (field-independent basis, Debye):
    X=             -4.5031    Y=              1.3627    Z=             -2.3385  Tot=              5.2539
 Quadrupole moment (field-independent basis, Debye-Ang):
   XX=            -77.4196   YY=            -93.6216   ZZ=            -95.3140
   XY=             -0.3686   XZ=              5.7026   YZ=              4.7915

 Normal termination of Gaussian 16 at Thu May  6 00:04:34 2021.
