 Gaussian 16, Revision A.03,
 Gaussian 16:  EM64L-G16RevA.03 25-Dec-2016

 -------------
 #p 6-31g* mp2
 -------------

 ------------------------------------------------------
 Input file generated by CHIRIPA (05-May-2021 14:57:23)
 ------------------------------------------------------
 Symbolic Z-matrix:
 Charge =  0 Multiplicity = 1

                         Standard orientation:
 ---------------------------------------------------------------------
 Center     Atomic      Atomic             Coordinates (Angstroms)
 Number     Number       Type             X           Y           Z
 ---------------------------------------------------------------------
      1          6           0       -4.566777   -1.223189    0.527322
      2          6           0       -4.683337    0.095310    0.979534
      3          6           0       -3.721841    1.050857    0.637474
      4          6           0       -2.651945    0.651525   -0.161991
      5          6           0       -2.507977   -0.654336   -0.628135
      6          6           0       -3.481383   -1.593151   -0.273657
      7          1           0       -5.318316   -1.958981    0.797866
      8          1           0       -5.525204    0.385470    1.601718
      9          1           0       -3.787516    2.078470    0.973802
     10          1           0       -1.657547   -0.913635   -1.246965
     11          1           0       -3.388287   -2.616394   -0.626293
     12          7           0       -1.627748    1.654263   -0.530688
     13          8           0       -0.694637    1.277168   -1.236195
     14          8           0       -1.777487    2.798317   -0.107185
     15          6           0        4.571241    1.275049    0.547848
     16          6           0        3.961023    0.608106    1.615248
     17          6           0        2.989865   -0.369577    1.379586
     18          6           0        2.651513   -0.656538    0.058047
     19          6           0        3.241458   -0.009469   -1.026644
     20          6           0        4.210147    0.964681   -0.767373
     21          1           0        5.324700    2.033164    0.740086
     22          1           0        4.239472    0.847083    2.637695
     23          1           0        2.501545   -0.901276    2.187210
     24          1           0        2.943016   -0.269393   -2.035004
     25          1           0        4.682382    1.481026   -1.598291
     26          7           0        1.624698   -1.689698   -0.203934
     27          8           0        1.344231   -1.924191   -1.377385
     28          8           0        1.119793   -2.245432    0.769136
 ---------------------------------------------------------------------

 SCF Done:  E(RHF) =  -868.340736082     A.U. after   16 cycles
 E2 =    -0.2599159627D+01 EUMP2 =    -0.87093989570948D+03

 The electronic state is 1-A.
 Alpha  occ. eigenvalues --  -20.60603 -20.60580 -20.60326 -20.60317 -15.85605
 Alpha  occ. eigenvalues --  -15.85364 -11.30619 -11.30449 -11.27219 -11.27135
 Alpha  occ. eigenvalues --  -11.27089 -11.26912 -11.26851 -11.26763 -11.26178
 Alpha  occ. eigenvalues --  -11.26108 -11.26064 -11.25885  -1.59649  -1.59404
 Alpha  occ. eigenvalues --   -1.39211  -1.38962  -1.18775  -1.18619  -1.08250
 Alpha  occ. eigenvalues --   -1.08085  -1.04147  -1.03966  -0.95143  -0.94951
 Alpha  occ. eigenvalues --   -0.85570  -0.85393  -0.81999  -0.81784  -0.77070
 Alpha  occ. eigenvalues --   -0.76847  -0.71855  -0.71614  -0.70938  -0.70684
 Alpha  occ. eigenvalues --   -0.69930  -0.69735  -0.64459  -0.64277  -0.64184
 Alpha  occ. eigenvalues --   -0.63974  -0.61515  -0.61295  -0.54707  -0.54529
 Alpha  occ. eigenvalues --   -0.52471  -0.52329  -0.52265  -0.52049  -0.48618
 Alpha  occ. eigenvalues --   -0.48591  -0.48351  -0.48328  -0.44697  -0.44422
 Alpha  occ. eigenvalues --   -0.36744  -0.36620  -0.35710  -0.35548
 Alpha virt. eigenvalues --    0.05441   0.05641   0.11943   0.12085   0.16978
 Alpha virt. eigenvalues --    0.17178   0.21955   0.22258   0.27891   0.28178
 Alpha virt. eigenvalues --    0.28785   0.29196   0.31449   0.31779   0.33001

 Mulliken charges:
               1
     1  C   -0.170596
     2  C   -0.219599
     3  C   -0.172007
     4  C    0.155106
     5  C   -0.171659
     6  C   -0.218192
     7  H    0.223666
     8  H    0.220048
     9  H    0.271770
    10  H    0.289996
    11  H    0.228119
    12  N    0.488047
    13  O   -0.463396
    14  O   -0.464426
    15  C   -0.168918
    16  C   -0.218300
    17  C   -0.170921
    18  C    0.162304
    19  C   -0.160686
    20  C   -0.217519
    21  H    0.224442
    22  H    0.221203
    23  H    0.272160
    24  H    0.276612
    25  H    0.223275
    26  N    0.489619
    27  O   -0.464031
    28  O   -0.466118
 Sum of Mulliken charges =  -0.00000

 Dipole moment (field-independent basis, Debye):
    X=              0.1718    Y=              0.0237    Z=              2.0612  Tot=              2.0685
 Quadrupole moment (field-independent basis, Debye-Ang):
   XX=            -66.8132   YY=           -113.0442   ZZ=            -99.6402
   XY=             13.5371   XZ=             -2.3842   YZ=              2.3503

 Normal termination of Gaussian 16 at Fri May  7 09:26:47 2021.
