 Gaussian 16, Revision A.03,
 Gaussian 16:  EM64L-G16RevA.03 25-Dec-2016

 -------------
 #p 6-31g* mp2
 -------------

 ------------------------------------------------------
 Input file generated by CHIRIPA (05-May-2021 14:57:27)
 ------------------------------------------------------
 Symbolic Z-matrix:
 Charge =  0 Multiplicity = 1

                         Standard orientation:
 ---------------------------------------------------------------------
 Center     Atomic      Atomic             Coordinates (Angstroms)
 Number     Number       Type             X           Y           Z
 ---------------------------------------------------------------------
      1          6           0        3.435655   -2.162779   -0.145678
      2          6           0        3.115228   -1.542574    1.066425
      3          6           0        2.810618   -0.178726    1.107397
      4          6           0        2.836063    0.537862   -0.088071
      5          6           0        3.151444   -0.051462   -1.311396
      6          6           0        3.452710   -1.416559   -1.328634
      7          1           0        3.670984   -3.222734   -0.168287
      8          1           0        3.101201   -2.119612    1.986684
      9          1           0        2.559142    0.326653    2.031935
     10          1           0        3.157189    0.549963   -2.212325
     11          1           0        3.701200   -1.895573   -2.271419
     12          7           0        2.515356    1.982368   -0.057259
     13          8           0        2.544727    2.591558   -1.124340
     14          8           0        2.240687    2.478030    1.033389
     15          6           0       -0.639547   -1.141631    0.866166
     16          6           0       -1.049889   -1.352597   -0.454301
     17          6           0       -2.294114   -0.890549   -0.893578
     18          6           0       -3.106380   -0.218403    0.018418
     19          6           0       -2.725793    0.007310    1.340346
     20          6           0       -1.477332   -0.463547    1.757704
     21          1           0        0.328641   -1.503982    1.198893
     22          1           0       -0.401330   -1.878887   -1.148877
     23          1           0       -2.636711   -1.040174   -1.910267
     24          1           0       -3.394179    0.535301    2.009603
     25          1           0       -1.161267   -0.298272    2.783780
     26          7           0       -4.425828    0.275408   -0.435022
     27          8           0       -5.122971    0.864734    0.387974
     28          8           0       -4.737884    0.063782   -1.604840
 ---------------------------------------------------------------------

 SCF Done:  E(RHF) =  -868.336031158     A.U. after   16 cycles
 E2 =    -0.2602944103D+01 EUMP2 =    -0.87093897526114D+03

 The electronic state is 1-A.
 Alpha  occ. eigenvalues --  -20.61540 -20.61527 -20.60583 -20.60576 -15.86604
 Alpha  occ. eigenvalues --  -15.85639 -11.32259 -11.31015 -11.28919 -11.28853
 Alpha  occ. eigenvalues --  -11.28688 -11.27962 -11.27903 -11.27622 -11.27595
 Alpha  occ. eigenvalues --  -11.27246 -11.26630 -11.26611  -1.60603  -1.59657
 Alpha  occ. eigenvalues --   -1.40150  -1.39210  -1.20508  -1.19199  -1.09818
 Alpha  occ. eigenvalues --   -1.08595  -1.05963  -1.04615  -0.96600  -0.95425
 Alpha  occ. eigenvalues --   -0.87304  -0.86015  -0.83436  -0.82265  -0.78425
 Alpha  occ. eigenvalues --   -0.77306  -0.72817  -0.71935  -0.71858  -0.71559
 Alpha  occ. eigenvalues --   -0.70977  -0.70363  -0.66129  -0.65911  -0.64855
 Alpha  occ. eigenvalues --   -0.64650  -0.63260  -0.61974  -0.56387  -0.55575
 Alpha  occ. eigenvalues --   -0.54002  -0.53879  -0.52883  -0.52712  -0.49595
 Alpha  occ. eigenvalues --   -0.49554  -0.48620  -0.48610  -0.45493  -0.44614
 Alpha  occ. eigenvalues --   -0.38555  -0.37660  -0.36971  -0.36216
 Alpha virt. eigenvalues --    0.04093   0.05232   0.09967   0.11430   0.15419
 Alpha virt. eigenvalues --    0.16744   0.20111   0.21867   0.25899   0.26984
 Alpha virt. eigenvalues --    0.27609   0.29233   0.29790   0.31303   0.32080

 Mulliken charges:
               1
     1  C   -0.171911
     2  C   -0.232254
     3  C   -0.175688
     4  C    0.165614
     5  C   -0.169914
     6  C   -0.221923
     7  H    0.229709
     8  H    0.225888
     9  H    0.276910
    10  H    0.280392
    11  H    0.227765
    12  N    0.488770
    13  O   -0.456031
    14  O   -0.458701
    15  C   -0.172726
    16  C   -0.223452
    17  C   -0.169869
    18  C    0.158583
    19  C   -0.168473
    20  C   -0.219418
    21  H    0.227565
    22  H    0.219753
    23  H    0.274561
    24  H    0.276284
    25  H    0.221342
    26  N    0.488258
    27  O   -0.459883
    28  O   -0.461150
 Sum of Mulliken charges =  -0.00000

 Dipole moment (field-independent basis, Debye):
    X=              6.0128    Y=             -6.6308    Z=              1.3674  Tot=              9.0549
 Quadrupole moment (field-independent basis, Debye-Ang):
   XX=           -127.8573   YY=           -110.1349   ZZ=            -95.6938
   XY=             -9.9139   XZ=             -7.4518   YZ=              1.7494

 Normal termination of Gaussian 16 at Wed May  5 19:39:11 2021.
