 Gaussian 16, Revision A.03,
 Gaussian 16:  EM64L-G16RevA.03 25-Dec-2016

 -------------
 #p 6-31g* mp2
 -------------

 ------------------------------------------------------
 Input file generated by CHIRIPA (05-May-2021 14:55:22)
 ------------------------------------------------------
 Symbolic Z-matrix:
 Charge =  0 Multiplicity = 1

                         Standard orientation:
 ---------------------------------------------------------------------
 Center     Atomic      Atomic             Coordinates (Angstroms)
 Number     Number       Type             X           Y           Z
 ---------------------------------------------------------------------
      1          6           0       -0.629077    0.280781    0.177435
      2          6           0       -1.292637   -0.428195    1.184194
      3          6           0       -2.667474   -0.666367    1.096771
      4          6           0       -3.350723   -0.179000   -0.016303
      5          6           0       -2.717902    0.530698   -1.035694
      6          6           0       -1.342570    0.757125   -0.927348
      7          1           0        0.439122    0.461237    0.253474
      8          1           0       -0.741083   -0.799311    2.043325
      9          1           0       -3.206152   -1.212297    1.861759
     10          1           0       -3.294638    0.888195   -1.880081
     11          1           0       -0.829858    1.308032   -1.710720
     12          7           0       -4.806464   -0.424925   -0.119929
     13          8           0       -5.385679    0.014958   -1.110712
     14          8           0       -5.340694   -1.052907    0.791594
     15          6           0        4.611052   -0.240298   -0.115736
     16          6           0        4.334902   -1.741648   -0.203327
     17          6           0        5.603503   -2.563643   -0.433041
     18          1           0        5.101394    0.090499   -1.041524
     19          1           0        5.323389   -0.052527    0.699562
     20          1           0        3.622233   -1.926386   -1.017324
     21          1           0        3.844987   -2.068873    0.722699
     22          1           0        6.316053   -2.408739    0.383585
     23          1           0        6.092033   -2.265443   -1.366325
     24          1           0        5.383049   -3.634029   -0.492471
     25          6           0        3.352594    0.594776    0.113750
     26          6           0        3.628743    2.096127    0.201341
     27          6           0        2.360141    2.918121    0.431056
     28          1           0        2.640256    0.407005   -0.701548
     29          1           0        2.862251    0.263979    1.039539
     30          1           0        4.118658    2.423351   -0.724685
     31          1           0        4.341412    2.280865    1.015338
     32          1           0        1.871611    2.619921    1.364339
     33          1           0        1.647593    2.763218   -0.385571
     34          1           0        2.580597    3.988508    0.490486
 ---------------------------------------------------------------------

 SCF Done:  E(RHF) =  -669.534916940     A.U. after   15 cycles
 E2 =    -0.2092548925D+01 EUMP2 =    -0.67162746586508D+03

 The electronic state is 1-A.
 Alpha  occ. eigenvalues --  -20.60663 -20.60658 -15.85718 -11.31046 -11.27633
 Alpha  occ. eigenvalues --  -11.27627 -11.27216 -11.26614 -11.26597 -11.22815
 Alpha  occ. eigenvalues --  -11.22751 -11.22481 -11.22392 -11.22333 -11.21759
 Alpha  occ. eigenvalues --   -1.59741  -1.39295  -1.19217  -1.09582  -1.08602
 Alpha  occ. eigenvalues --   -1.04625  -1.04574  -0.97042  -0.95449  -0.88052
 Alpha  occ. eigenvalues --   -0.86018  -0.82311  -0.80658  -0.79432  -0.77352
 Alpha  occ. eigenvalues --   -0.71935  -0.71065  -0.70297  -0.66197  -0.64863
 Alpha  occ. eigenvalues --   -0.64641  -0.62010  -0.61923  -0.60435  -0.58660
 Alpha  occ. eigenvalues --   -0.56341  -0.55132  -0.53662  -0.53499  -0.52924
 Alpha  occ. eigenvalues --   -0.52714  -0.50978  -0.48924  -0.48693  -0.48684
 Alpha  occ. eigenvalues --   -0.47696  -0.46863  -0.46827  -0.44850  -0.44709
 Alpha  occ. eigenvalues --   -0.37162  -0.36241
 Alpha virt. eigenvalues --    0.05181   0.11388   0.16632   0.19627   0.22312
 Alpha virt. eigenvalues --    0.23869   0.24205   0.26083   0.26624   0.27611
 Alpha virt. eigenvalues --    0.29522   0.29672   0.30517   0.31364   0.31630

 Mulliken charges:
               1
     1  C   -0.178151
     2  C   -0.223724
     3  C   -0.170375
     4  C    0.157587
     5  C   -0.170428
     6  C   -0.224665
     7  H    0.246477
     8  H    0.222482
     9  H    0.274939
    10  H    0.274979
    11  H    0.221991
    12  N    0.488044
    13  O   -0.460946
    14  O   -0.460921
    15  C   -0.296824
    16  C   -0.300842
    17  C   -0.476447
    18  H    0.153176
    19  H    0.153099
    20  H    0.152735
    21  H    0.150901
    22  H    0.156635
    23  H    0.156880
    24  H    0.163054
    25  C   -0.307250
    26  C   -0.298920
    27  C   -0.480604
    28  H    0.145451
    29  H    0.145483
    30  H    0.156159
    31  H    0.156958
    32  H    0.155585
    33  H    0.149216
    34  H    0.168264
 Sum of Mulliken charges =  -0.00000

 Dipole moment (field-independent basis, Debye):
    X=              5.5109    Y=              0.9110    Z=              0.3728  Tot=              5.5981
 Quadrupole moment (field-independent basis, Debye-Ang):
   XX=           -129.2871   YY=            -94.5203   ZZ=            -90.1873
   XY=             -3.1857   XZ=             -0.9681   YZ=             -2.6639

 Normal termination of Gaussian 16 at Thu May  6 15:53:23 2021.
