 Gaussian 16, Revision A.03,
 Gaussian 16:  EM64L-G16RevA.03 25-Dec-2016

 -------------
 #p 6-31g* mp2
 -------------

 ------------------------------------------------------
 Input file generated by CHIRIPA (05-May-2021 14:55:19)
 ------------------------------------------------------
 Symbolic Z-matrix:
 Charge =  0 Multiplicity = 1

                         Standard orientation:
 ---------------------------------------------------------------------
 Center     Atomic      Atomic             Coordinates (Angstroms)
 Number     Number       Type             X           Y           Z
 ---------------------------------------------------------------------
      1          6           0        0.794670   -0.269154    2.552461
      2          6           0        1.492456    0.856658    2.102834
      3          6           0        2.090721    0.863357    0.839275
      4          6           0        1.970940   -0.278020    0.047945
      5          6           0        1.282367   -1.415109    0.467689
      6          6           0        0.692033   -1.399451    1.734895
      7          1           0        0.333004   -0.265674    3.535440
      8          1           0        1.573785    1.735871    2.735618
      9          1           0        2.636789    1.721321    0.466280
     10          1           0        1.218369   -2.276706   -0.185742
     11          1           0        0.150738   -2.275197    2.081469
     12          7           0        2.600098   -0.282762   -1.291659
     13          8           0        2.480155   -1.300849   -1.969706
     14          8           0        3.201262    0.731699   -1.638227
     15          6           0       -2.575056    1.080919   -0.492496
     16          6           0       -1.476708    2.075735   -0.115726
     17          6           0       -1.861610    3.524103   -0.418834
     18          1           0       -2.803959    1.184854   -1.561957
     19          1           0       -3.495056    1.338116    0.050500
     20          1           0       -0.558662    1.815906   -0.658218
     21          1           0       -1.250259    1.969287    0.952920
     22          1           0       -2.763329    3.806833    0.133949
     23          1           0       -2.067802    3.652581   -1.486345
     24          1           0       -1.062168    4.218350   -0.141758
     25          6           0       -2.205096   -0.371190   -0.195447
     26          6           0       -3.303445   -1.366005   -0.572217
     27          6           0       -2.918543   -2.814373   -0.269109
     28          1           0       -1.285096   -0.628386   -0.738443
     29          1           0       -1.976193   -0.475124    0.874014
     30          1           0       -3.529894   -1.259557   -1.640864
     31          1           0       -4.221491   -1.106177   -0.029725
     32          1           0       -2.712350   -2.942852    0.798402
     33          1           0       -2.016824   -3.097104   -0.821892
     34          1           0       -3.717985   -3.508621   -0.546185
 ---------------------------------------------------------------------

 SCF Done:  E(RHF) =  -669.533301499     A.U. after   15 cycles
 E2 =    -0.2096621394D+01 EUMP2 =    -0.67162992289291D+03

 The electronic state is 1-A.
 Alpha  occ. eigenvalues --  -20.60834 -20.60829 -15.85885 -11.31225 -11.27782
 Alpha  occ. eigenvalues --  -11.27760 -11.27520 -11.26809 -11.26771 -11.21831
 Alpha  occ. eigenvalues --  -11.21635 -11.21545 -11.21479 -11.21415 -11.21167
 Alpha  occ. eigenvalues --   -1.59911  -1.39464  -1.19408  -1.08816  -1.08571
 Alpha  occ. eigenvalues --   -1.04812  -1.03725  -0.96192  -0.95644  -0.87213
 Alpha  occ. eigenvalues --   -0.86211  -0.82473  -0.79795  -0.78423  -0.77510
 Alpha  occ. eigenvalues --   -0.72102  -0.71238  -0.70518  -0.65245  -0.65055
 Alpha  occ. eigenvalues --   -0.64785  -0.62154  -0.61132  -0.59568  -0.57826
 Alpha  occ. eigenvalues --   -0.55492  -0.55311  -0.53429  -0.52899  -0.52768
 Alpha  occ. eigenvalues --   -0.52598  -0.50147  -0.48861  -0.48859  -0.48172
 Alpha  occ. eigenvalues --   -0.46822  -0.45923  -0.45731  -0.44867  -0.43949
 Alpha  occ. eigenvalues --   -0.37303  -0.36237
 Alpha virt. eigenvalues --    0.04977   0.11047   0.16408   0.20424   0.22992
 Alpha virt. eigenvalues --    0.23595   0.25716   0.26552   0.27254   0.28110
 Alpha virt. eigenvalues --    0.28977   0.29758   0.31201   0.31637   0.32159

 Mulliken charges:
               1
     1  C   -0.172580
     2  C   -0.215007
     3  C   -0.169820
     4  C    0.160180
     5  C   -0.172133
     6  C   -0.212863
     7  H    0.225408
     8  H    0.223605
     9  H    0.275566
    10  H    0.275613
    11  H    0.224874
    12  N    0.487380
    13  O   -0.460851
    14  O   -0.460243
    15  C   -0.298870
    16  C   -0.300845
    17  C   -0.475427
    18  H    0.151831
    19  H    0.147156
    20  H    0.154473
    21  H    0.148128
    22  H    0.153438
    23  H    0.158109
    24  H    0.157650
    25  C   -0.299531
    26  C   -0.299113
    27  C   -0.476282
    28  H    0.152872
    29  H    0.146148
    30  H    0.155293
    31  H    0.151013
    32  H    0.146763
    33  H    0.154701
    34  H    0.163368
 Sum of Mulliken charges =  -0.00000

 Dipole moment (field-independent basis, Debye):
    X=             -2.1386    Y=              0.0008    Z=              4.6908  Tot=              5.1553
 Quadrupole moment (field-independent basis, Debye-Ang):
   XX=           -103.7454   YY=            -91.9901   ZZ=            -93.8962
   XY=              2.6187   XZ=              9.4033   YZ=             -0.2364

 Normal termination of Gaussian 16 at Thu May  6 10:47:11 2021.
