 Gaussian 16, Revision A.03,
 Gaussian 16:  EM64L-G16RevA.03 25-Dec-2016

 -------------
 #p 6-31g* mp2
 -------------

 ------------------------------------------------------
 Input file generated by CHIRIPA (05-May-2021 14:55:20)
 ------------------------------------------------------
 Symbolic Z-matrix:
 Charge =  0 Multiplicity = 1

                         Standard orientation:
 ---------------------------------------------------------------------
 Center     Atomic      Atomic             Coordinates (Angstroms)
 Number     Number       Type             X           Y           Z
 ---------------------------------------------------------------------
      1          6           0        4.883882   -2.007473   -0.189307
      2          6           0        3.486292   -2.055218   -0.220672
      3          6           0        2.735072   -0.876242   -0.205463
      4          6           0        3.417157    0.338599   -0.158437
      5          6           0        4.808487    0.418982   -0.126338
      6          6           0        5.539364   -0.772703   -0.142323
      7          1           0        5.459547   -2.928266   -0.201423
      8          1           0        2.974553   -3.012733   -0.257180
      9          1           0        1.652113   -0.884250   -0.228995
     10          1           0        5.290338    1.388481   -0.090154
     11          1           0        6.624646   -0.732589   -0.117886
     12          7           0        2.632643    1.593455   -0.141925
     13          8           0        3.257433    2.651067   -0.100318
     14          8           0        1.407804    1.495639   -0.170903
     15          6           0       -5.142137   -0.514725   -0.110689
     16          6           0       -6.334357    0.418603   -0.323984
     17          6           0       -7.532291   -0.288250   -0.958892
     18          1           0       -4.845354   -0.946603   -1.076269
     19          1           0       -5.452545   -1.355183    0.525450
     20          1           0       -6.021425    1.257778   -0.958394
     21          1           0       -6.628215    0.848457    0.642189
     22          1           0       -7.872106   -1.114290   -0.325816
     23          1           0       -7.261869   -0.702644   -1.935493
     24          1           0       -8.373231    0.397387   -1.102357
     25          6           0       -3.936788    0.177359    0.523253
     26          6           0       -2.744568   -0.755968    0.736549
     27          6           0       -1.546634   -0.049116    1.371456
     28          1           0       -3.626380    1.017818   -0.112885
     29          1           0       -4.233571    0.609238    1.488834
     30          1           0       -2.450710   -1.185823   -0.229624
     31          1           0       -3.057499   -1.595142    1.370959
     32          1           0       -1.817056    0.365279    2.348057
     33          1           0       -1.206819    0.776924    0.738381
     34          1           0       -0.705694   -0.734752    1.514922
 ---------------------------------------------------------------------

 SCF Done:  E(RHF) =  -669.535831780     A.U. after   15 cycles
 E2 =    -0.2091057281D+01 EUMP2 =    -0.67162688906109D+03

 The electronic state is 1-A.
 Alpha  occ. eigenvalues --  -20.60830 -20.60825 -15.85877 -11.31217 -11.27787
 Alpha  occ. eigenvalues --  -11.27773 -11.27530 -11.26801 -11.26790 -11.21283
 Alpha  occ. eigenvalues --  -11.21144 -11.21040 -11.20905 -11.20821 -11.20296
 Alpha  occ. eigenvalues --   -1.59899  -1.39454  -1.19389  -1.08791  -1.08023
 Alpha  occ. eigenvalues --   -1.04790  -1.03100  -0.95646  -0.95512  -0.86538
 Alpha  occ. eigenvalues --   -0.86188  -0.82465  -0.79169  -0.77840  -0.77503
 Alpha  occ. eigenvalues --   -0.72109  -0.71216  -0.70500  -0.65049  -0.64796
 Alpha  occ. eigenvalues --   -0.64648  -0.62141  -0.60482  -0.58932  -0.57160
 Alpha  occ. eigenvalues --   -0.55295  -0.54782  -0.53121  -0.52893  -0.52231
 Alpha  occ. eigenvalues --   -0.51940  -0.49457  -0.48857  -0.48821  -0.47475
 Alpha  occ. eigenvalues --   -0.46191  -0.45380  -0.45294  -0.44840  -0.43367
 Alpha  occ. eigenvalues --   -0.37372  -0.36392
 Alpha virt. eigenvalues --    0.05010   0.11246   0.16505   0.20923   0.23178
 Alpha virt. eigenvalues --    0.24161   0.26758   0.27101   0.27715   0.27933
 Alpha virt. eigenvalues --    0.29301   0.30922   0.31568   0.31931   0.32240

 Mulliken charges:
               1
     1  C   -0.170574
     2  C   -0.219216
     3  C   -0.173367
     4  C    0.157529
     5  C   -0.170674
     6  C   -0.218676
     7  H    0.225703
     8  H    0.223742
     9  H    0.279961
    10  H    0.275630
    11  H    0.223529
    12  N    0.492852
    13  O   -0.459943
    14  O   -0.464887
    15  C   -0.297834
    16  C   -0.299596
    17  C   -0.475473
    18  H    0.148394
    19  H    0.147667
    20  H    0.153143
    21  H    0.151856
    22  H    0.154161
    23  H    0.154519
    24  H    0.159813
    25  C   -0.298629
    26  C   -0.299739
    27  C   -0.481043
    28  H    0.153894
    29  H    0.149524
    30  H    0.147319
    31  H    0.147322
    32  H    0.153298
    33  H    0.182306
    34  H    0.147490
 Sum of Mulliken charges =  -0.00000

 Dipole moment (field-independent basis, Debye):
    X=              2.8863    Y=             -4.2649    Z=             -0.0950  Tot=              5.1506
 Quadrupole moment (field-independent basis, Debye-Ang):
   XX=            -73.6056   YY=            -96.9403   ZZ=            -95.1485
   XY=            -12.4618   XZ=             -1.1980   YZ=              0.5305

 Normal termination of Gaussian 16 at Thu May  6 06:07:27 2021.
