 Gaussian 16, Revision A.03,
 Gaussian 16:  EM64L-G16RevA.03 25-Dec-2016

 -------------
 #p 6-31g* mp2
 -------------

 ------------------------------------------------------
 Input file generated by CHIRIPA (05-May-2021 14:55:25)
 ------------------------------------------------------
 Symbolic Z-matrix:
 Charge =  0 Multiplicity = 1

                         Standard orientation:
 ---------------------------------------------------------------------
 Center     Atomic      Atomic             Coordinates (Angstroms)
 Number     Number       Type             X           Y           Z
 ---------------------------------------------------------------------
      1          6           0        1.161408   -2.152562   -0.863460
      2          6           0        2.530296   -2.392919   -0.705676
      3          6           0        3.383429   -1.376776   -0.265034
      4          6           0        2.831415   -0.126588    0.009921
      5          6           0        1.471859    0.143928   -0.137452
      6          6           0        0.637483   -0.887136   -0.579346
      7          1           0        0.505959   -2.947722   -1.206248
      8          1           0        2.939959   -3.374686   -0.925573
      9          1           0        4.446971   -1.535463   -0.134208
     10          1           0        1.092737    1.132919    0.089660
     11          1           0       -0.425216   -0.697601   -0.700974
     12          7           0        3.724661    0.957055    0.477072
     13          8           0        3.213641    2.049762    0.712631
     14          8           0        4.918892    0.693189    0.598819
     15          6           0       -3.412121   -0.211955    0.554630
     16          6           0       -4.219849   -1.406990    0.047236
     17          6           0       -4.162787   -2.604727    0.995901
     18          1           0       -2.366910   -0.518333    0.698200
     19          1           0       -3.789752    0.083813    1.543220
     20          1           0       -3.841712   -1.699544   -0.940712
     21          1           0       -5.263218   -1.097680   -0.095324
     22          1           0       -4.559156   -2.335673    1.980330
     23          1           0       -3.129572   -2.940955    1.130141
     24          1           0       -4.746947   -3.447702    0.613790
     25          6           0       -3.459426    0.993230   -0.382930
     26          6           0       -2.651696    2.188265    0.124465
     27          6           0       -2.708759    3.386002   -0.824200
     28          1           0       -3.081792    0.697462   -1.371520
     29          1           0       -4.504636    1.299609   -0.526499
     30          1           0       -1.608327    1.878956    0.267026
     31          1           0       -3.029834    2.480819    1.112412
     32          1           0       -3.741973    3.722231   -0.958440
     33          1           0       -2.312389    3.116948   -1.808630
     34          1           0       -2.124598    4.228978   -0.442089
 ---------------------------------------------------------------------

 SCF Done:  E(RHF) =  -669.535313524     A.U. after   15 cycles
 E2 =    -0.2092203221D+01 EUMP2 =    -0.67162751674474D+03

 The electronic state is 1-A.
 Alpha  occ. eigenvalues --  -20.60762 -20.60757 -15.85815 -11.31189 -11.27765
 Alpha  occ. eigenvalues --  -11.27760 -11.27509 -11.26777 -11.26749 -11.22449
 Alpha  occ. eigenvalues --  -11.22369 -11.22287 -11.22205 -11.21825 -11.21566
 Alpha  occ. eigenvalues --   -1.59837  -1.39390  -1.19365  -1.09277  -1.08757
 Alpha  occ. eigenvalues --   -1.04771  -1.04279  -0.96711  -0.95591  -0.87719
 Alpha  occ. eigenvalues --   -0.86170  -0.82428  -0.80343  -0.79086  -0.77469
 Alpha  occ. eigenvalues --   -0.72034  -0.71160  -0.70478  -0.66053  -0.65017
 Alpha  occ. eigenvalues --   -0.64713  -0.62110  -0.61678  -0.60068  -0.58312
 Alpha  occ. eigenvalues --   -0.56030  -0.55266  -0.53364  -0.53148  -0.53090
 Alpha  occ. eigenvalues --   -0.52829  -0.50657  -0.48797  -0.48790  -0.48639
 Alpha  occ. eigenvalues --   -0.47402  -0.46595  -0.46557  -0.44794  -0.44549
 Alpha  occ. eigenvalues --   -0.37345  -0.36367
 Alpha virt. eigenvalues --    0.05062   0.11219   0.16486   0.18090   0.22686
 Alpha virt. eigenvalues --    0.23246   0.25105   0.25831   0.26930   0.27887
 Alpha virt. eigenvalues --    0.29395   0.30887   0.31208   0.31421   0.32346

 Mulliken charges:
               1
     1  C   -0.172162
     2  C   -0.218576
     3  C   -0.170495
     4  C    0.159664
     5  C   -0.176511
     6  C   -0.225123
     7  H    0.225854
     8  H    0.223514
     9  H    0.275686
    10  H    0.278817
    11  H    0.232220
    12  N    0.488131
    13  O   -0.460297
    14  O   -0.460489
    15  C   -0.303600
    16  C   -0.300177
    17  C   -0.475711
    18  H    0.143895
    19  H    0.155793
    20  H    0.147471
    21  H    0.156246
    22  H    0.158929
    23  H    0.152260
    24  H    0.162197
    25  C   -0.300837
    26  C   -0.301521
    27  C   -0.476598
    28  H    0.145634
    29  H    0.154862
    30  H    0.144873
    31  H    0.157464
    32  H    0.157368
    33  H    0.155028
    34  H    0.166189
 Sum of Mulliken charges =  -0.00000

 Dipole moment (field-independent basis, Debye):
    X=             -3.3358    Y=             -3.7233    Z=             -1.5915  Tot=              5.2463
 Quadrupole moment (field-independent basis, Debye-Ang):
   XX=           -108.1074   YY=            -92.5013   ZZ=            -95.7069
   XY=            -13.9422   XZ=             -5.5903   YZ=              1.1013

 Normal termination of Gaussian 16 at Thu May  6 11:08:10 2021.
