 Gaussian 16, Revision A.03,
 Gaussian 16:  EM64L-G16RevA.03 25-Dec-2016

 -------------
 #p 6-31g* mp2
 -------------

 ------------------------------------------------------
 Input file generated by CHIRIPA (05-May-2021 14:51:14)
 ------------------------------------------------------
 Symbolic Z-matrix:
 Charge =  0 Multiplicity = 1

                         Standard orientation:
 ---------------------------------------------------------------------
 Center     Atomic      Atomic             Coordinates (Angstroms)
 Number     Number       Type             X           Y           Z
 ---------------------------------------------------------------------
      1          6           0       -2.668135   -0.895385    0.767126
      2          6           0       -1.198219   -1.228281    0.509225
      3          6           0       -0.531389   -1.920394    1.698389
      4          1           0       -2.741656   -0.253148    1.655423
      5          1           0       -3.210246   -1.821095    1.004973
      6          1           0       -0.659323   -0.302400    0.270579
      7          1           0       -1.128173   -1.869644   -0.378673
      8          1           0       -1.043257   -2.858926    1.934503
      9          1           0       -0.571743   -1.282778    2.587444
     10          1           0        0.518877   -2.149267    1.492429
     11          6           0       -3.348521   -0.203150   -0.412540
     12          6           0       -4.818437    0.129746   -0.154639
     13          6           0       -5.485267    0.821859   -1.343803
     14          1           0       -2.806411    0.722560   -0.650387
     15          1           0       -3.275001   -0.845388   -1.300837
     16          1           0       -4.888483    0.771108    0.733259
     17          1           0       -5.357334   -0.796135    0.084007
     18          1           0       -5.444914    0.184243   -2.232858
     19          1           0       -4.973399    1.760391   -1.579917
     20          1           0       -6.535533    1.050731   -1.137843
     21          6           0        3.467388    0.118839   -0.610222
     22          6           0        3.390786   -1.371955   -0.279088
     23          6           0        4.314838   -2.219999   -1.153584
     24          1           0        3.210829    0.266603   -1.668186
     25          1           0        4.504424    0.461367   -0.489288
     26          1           0        2.353942   -1.711258   -0.399273
     27          1           0        3.647370   -1.516167    0.778260
     28          1           0        5.357026   -1.909469   -1.027029
     29          1           0        4.056248   -2.105669   -2.211252
     30          1           0        4.244185   -3.282331   -0.899972
     31          6           0        2.549268    0.979696    0.255635
     32          6           0        2.625871    2.470491   -0.075498
     33          6           0        1.701819    3.318534    0.798998
     34          1           0        1.512232    0.637168    0.134702
     35          1           0        2.805827    0.831933    1.313600
     36          1           0        2.369287    2.614701   -1.132846
     37          1           0        3.662715    2.809794    0.044687
     38          1           0        1.960408    3.204204    1.856666
     39          1           0        0.659631    3.008004    0.672443
     40          1           0        1.772472    4.380866    0.545386
 ---------------------------------------------------------------------

 SCF Done:  E(RHF) =  -470.733143443     A.U. after   11 cycles
 E2 =    -0.1583701662D+01 EUMP2 =    -0.47231684510443D+03

 The electronic state is 1-A.
 Alpha  occ. eigenvalues --  -11.21617 -11.21617 -11.21616 -11.21616 -11.21425
 Alpha  occ. eigenvalues --  -11.21402 -11.21365 -11.21336 -11.21109 -11.21084
 Alpha  occ. eigenvalues --  -11.21082 -11.21022  -1.08470  -1.08420  -1.03551
 Alpha  occ. eigenvalues --   -1.03537  -0.96002  -0.95974  -0.87025  -0.86984
 Alpha  occ. eigenvalues --   -0.79655  -0.79569  -0.78353  -0.78175  -0.65183
 Alpha  occ. eigenvalues --   -0.64986  -0.61010  -0.60882  -0.59436  -0.59287
 Alpha  occ. eigenvalues --   -0.57628  -0.57579  -0.55330  -0.55222  -0.52742
 Alpha  occ. eigenvalues --   -0.52635  -0.52454  -0.52370  -0.49987  -0.49887
 Alpha  occ. eigenvalues --   -0.48065  -0.47804  -0.46819  -0.46561  -0.46012
 Alpha  occ. eigenvalues --   -0.45781  -0.45760  -0.45307  -0.43806  -0.43773
 Alpha virt. eigenvalues --    0.20684   0.23019   0.23601   0.24066   0.25862
 Alpha virt. eigenvalues --    0.26595   0.26814   0.27574   0.28169   0.29585
 Alpha virt. eigenvalues --    0.29889   0.31364   0.31637   0.31912   0.32273

 Mulliken charges:
               1
     1  C   -0.297604
     2  C   -0.306285
     3  C   -0.479767
     4  H    0.149945
     5  H    0.149730
     6  H    0.156664
     7  H    0.151306
     8  H    0.154844
     9  H    0.155289
    10  H    0.165249
    11  C   -0.298278
    12  C   -0.299673
    13  C   -0.475740
    14  H    0.148923
    15  H    0.149601
    16  H    0.152107
    17  H    0.152041
    18  H    0.155144
    19  H    0.155181
    20  H    0.160364
    21  C   -0.297428
    22  C   -0.304377
    23  C   -0.475560
    24  H    0.149542
    25  H    0.149568
    26  H    0.156435
    27  H    0.152037
    28  H    0.155303
    29  H    0.155258
    30  H    0.160272
    31  C   -0.308114
    32  C   -0.299123
    33  C   -0.475635
    34  H    0.159392
    35  H    0.149672
    36  H    0.151821
    37  H    0.152077
    38  H    0.155381
    39  H    0.153983
    40  H    0.160455
 Sum of Mulliken charges =  -0.00000

 Dipole moment (field-independent basis, Debye):
    X=              0.0118    Y=             -0.0059    Z=              0.0022  Tot=              0.0133
 Quadrupole moment (field-independent basis, Debye-Ang):
   XX=            -84.8944   YY=            -84.7719   ZZ=            -85.0672
   XY=              1.0950   XZ=              0.4829   YZ=              0.4149

 Normal termination of Gaussian 16 at Thu May  6 05:36:54 2021.
