 Gaussian 16, Revision A.03,
 Gaussian 16:  EM64L-G16RevA.03 25-Dec-2016

 -------------
 #p 6-31g* mp2
 -------------

 ------------------------------------------------------
 Input file generated by CHIRIPA (05-May-2021 14:57:23)
 ------------------------------------------------------
 Symbolic Z-matrix:
 Charge =  0 Multiplicity = 1

                         Standard orientation:
 ---------------------------------------------------------------------
 Center     Atomic      Atomic             Coordinates (Angstroms)
 Number     Number       Type             X           Y           Z
 ---------------------------------------------------------------------
      1          6           0        1.986450   -2.154603    1.486760
      2          6           0        2.295143   -0.973962    2.170365
      3          6           0        2.571530    0.202222    1.466979
      4          6           0        2.530134    0.161702    0.074164
      5          6           0        2.225836   -0.998882   -0.635582
      6          6           0        1.952841   -2.163280    0.088434
      7          1           0        1.773064   -3.063713    2.041180
      8          1           0        2.321976   -0.964275    3.256289
      9          1           0        2.813387    1.130105    1.970920
     10          1           0        2.206797   -0.977474   -1.718447
     11          1           0        1.713408   -3.078728   -0.445112
     12          7           0        2.820937    1.400636   -0.681399
     13          8           0        2.777958    1.338711   -1.908166
     14          8           0        3.086341    2.410178   -0.032537
     15          6           0       -3.213483    2.208339    0.869138
     16          6           0       -2.110413    2.189269    0.009258
     17          6           0       -1.696303    0.994969   -0.587995
     18          6           0       -2.411509   -0.166896   -0.301924
     19          6           0       -3.514514   -0.180203    0.550422
     20          6           0       -3.910784    1.025627    1.136505
     21          1           0       -3.528243    3.140578    1.328759
     22          1           0       -1.566986    3.106253   -0.200204
     23          1           0       -0.845863    0.951701   -1.257545
     24          1           0       -4.036281   -1.110377    0.740036
     25          1           0       -4.767811    1.037449    1.803894
     26          7           0       -1.982553   -1.437351   -0.928295
     27          8           0       -2.629491   -2.447382   -0.660067
     28          8           0       -1.007522   -1.399047   -1.675613
 ---------------------------------------------------------------------

 SCF Done:  E(RHF) =  -868.340296207     A.U. after   16 cycles
 E2 =    -0.2600763139D+01 EUMP2 =    -0.87094105934617D+03

 The electronic state is 1-A.
 Alpha  occ. eigenvalues --  -20.61163 -20.61141 -20.60719 -20.60699 -15.86170
 Alpha  occ. eigenvalues --  -15.85740 -11.31284 -11.30767 -11.27855 -11.27761
 Alpha  occ. eigenvalues --  -11.27519 -11.27375 -11.27179 -11.26978 -11.26824
 Alpha  occ. eigenvalues --  -11.26711 -11.26329 -11.26071  -1.60215  -1.59800
 Alpha  occ. eigenvalues --   -1.39778  -1.39354  -1.19432  -1.18918  -1.08878
 Alpha  occ. eigenvalues --   -1.08385  -1.04789  -1.04229  -0.95759  -0.95262
 Alpha  occ. eigenvalues --   -0.86201  -0.85661  -0.82605  -0.82077  -0.77676
 Alpha  occ. eigenvalues --   -0.77163  -0.72433  -0.71955  -0.71522  -0.71139
 Alpha  occ. eigenvalues --   -0.70535  -0.70010  -0.65088  -0.64782  -0.64549
 Alpha  occ. eigenvalues --   -0.64215  -0.62131  -0.61564  -0.55310  -0.54776
 Alpha  occ. eigenvalues --   -0.53146  -0.52882  -0.52617  -0.52303  -0.49179
 Alpha  occ. eigenvalues --   -0.49151  -0.48731  -0.48689  -0.45249  -0.44823
 Alpha  occ. eigenvalues --   -0.37414  -0.36948  -0.36362  -0.35731
 Alpha virt. eigenvalues --    0.04740   0.05389   0.11248   0.11813   0.16282
 Alpha virt. eigenvalues --    0.16975   0.21395   0.22020   0.27252   0.27832
 Alpha virt. eigenvalues --    0.28246   0.28904   0.30940   0.31518   0.32161

 Mulliken charges:
               1
     1  C   -0.173535
     2  C   -0.219740
     3  C   -0.173602
     4  C    0.149231
     5  C   -0.160672
     6  C   -0.214628
     7  H    0.225922
     8  H    0.220303
     9  H    0.271248
    10  H    0.281110
    11  H    0.233578
    12  N    0.485898
    13  O   -0.460733
    14  O   -0.464784
    15  C   -0.170664
    16  C   -0.219749
    17  C   -0.172584
    18  C    0.158281
    19  C   -0.172017
    20  C   -0.219065
    21  H    0.226784
    22  H    0.230977
    23  H    0.279660
    24  H    0.273776
    25  H    0.222917
    26  N    0.489408
    27  O   -0.462464
    28  O   -0.464856
 Sum of Mulliken charges =  -0.00000

 Dipole moment (field-independent basis, Debye):
    X=             -2.6316    Y=             -0.0283    Z=              4.7112  Tot=              5.3964
 Quadrupole moment (field-independent basis, Debye-Ang):
   XX=           -101.4760   YY=           -105.8415   ZZ=           -101.9673
   XY=            -20.3208   XZ=              0.0353   YZ=             -0.3432

 Normal termination of Gaussian 16 at Fri May  7 01:50:56 2021.
