 Gaussian 16, Revision A.03,
 Gaussian 16:  EM64L-G16RevA.03 25-Dec-2016

 -------------
 #p 6-31g* mp2
 -------------

 ------------------------------------------------------
 Input file generated by CHIRIPA (05-May-2021 14:51:11)
 ------------------------------------------------------
 Symbolic Z-matrix:
 Charge =  0 Multiplicity = 1

                         Standard orientation:
 ---------------------------------------------------------------------
 Center     Atomic      Atomic             Coordinates (Angstroms)
 Number     Number       Type             X           Y           Z
 ---------------------------------------------------------------------
      1          6           0        4.530712   -0.635101    0.346737
      2          6           0        5.526358   -0.883757   -0.786772
      3          6           0        6.374434   -2.136414   -0.564483
      4          1           0        5.078879   -0.545074    1.294551
      5          1           0        3.874154   -1.510437    0.447302
      6          1           0        6.179948   -0.007643   -0.886079
      7          1           0        4.975773   -0.973012   -1.732026
      8          1           0        5.737935   -3.023810   -0.487032
      9          1           0        6.948952   -2.052957    0.363722
     10          1           0        7.079249   -2.295155   -1.386613
     11          6           0        3.675614    0.613637    0.138917
     12          6           0        2.679967    0.862294    1.272426
     13          6           0        1.831892    2.114951    1.050137
     14          1           0        4.332172    1.488974    0.038352
     15          1           0        3.127446    0.523611   -0.808898
     16          1           0        3.230553    0.951548    2.217679
     17          1           0        2.026378   -0.013820    1.371732
     18          1           0        1.257374    2.031493    0.121932
     19          1           0        2.468391    3.002347    0.972686
     20          1           0        1.127076    2.273691    1.872267
     21          6           0       -4.726246   -0.397675   -0.411360
     22          6           0       -5.216301   -1.263293    0.749906
     23          6           0       -6.463533   -2.074404    0.397336
     24          1           0       -5.532487    0.282077   -0.719349
     25          1           0       -4.513501   -1.042083   -1.275578
     26          1           0       -5.426741   -0.617597    1.612117
     27          1           0       -4.408736   -1.940931    1.055291
     28          1           0       -6.263021   -2.741933   -0.446938
     29          1           0       -7.286810   -1.411081    0.113050
     30          1           0       -6.796664   -2.685947    1.241671
     31          6           0       -3.480080    0.419138   -0.074294
     32          6           0       -2.990024    1.284756   -1.235559
     33          6           0       -1.742792    2.095867   -0.882991
     34          1           0       -3.692825    1.063547    0.789924
     35          1           0       -2.673839   -0.260613    0.233695
     36          1           0       -3.797590    1.962394   -1.540946
     37          1           0       -2.779585    0.639061   -2.097771
     38          1           0       -0.919515    1.432544   -0.598705
     39          1           0       -1.943304    2.763397   -0.038715
     40          1           0       -1.409662    2.707410   -1.727324
 ---------------------------------------------------------------------

 SCF Done:  E(RHF) =  -470.733062156     A.U. after   11 cycles
 E2 =    -0.1582312387D+01 EUMP2 =    -0.47231537454359D+03

 The electronic state is 1-A.
 Alpha  occ. eigenvalues --  -11.21607 -11.21596 -11.21595 -11.21565 -11.21409
 Alpha  occ. eigenvalues --  -11.21391 -11.21350 -11.21331 -11.21076 -11.21068
 Alpha  occ. eigenvalues --  -11.21043 -11.20954  -1.08434  -1.08409  -1.03542
 Alpha  occ. eigenvalues --   -1.03489  -0.96015  -0.95914  -0.87061  -0.86903
 Alpha  occ. eigenvalues --   -0.79654  -0.79506  -0.78253  -0.78215  -0.65087
 Alpha  occ. eigenvalues --   -0.65025  -0.61030  -0.60820  -0.59353  -0.59309
 Alpha  occ. eigenvalues --   -0.57616  -0.57543  -0.55448  -0.55088  -0.52719
 Alpha  occ. eigenvalues --   -0.52643  -0.52463  -0.52268  -0.50101  -0.49709
 Alpha  occ. eigenvalues --   -0.47976  -0.47801  -0.46717  -0.46482  -0.45822
 Alpha  occ. eigenvalues --   -0.45736  -0.45714  -0.45637  -0.43785  -0.43755
 Alpha virt. eigenvalues --    0.22091   0.23020   0.23644   0.24811   0.26282
 Alpha virt. eigenvalues --    0.26739   0.27090   0.27517   0.27677   0.29102
 Alpha virt. eigenvalues --    0.30409   0.31336   0.31759   0.31980   0.32144

 Mulliken charges:
               1
     1  C   -0.298218
     2  C   -0.299632
     3  C   -0.475685
     4  H    0.149688
     5  H    0.149263
     6  H    0.151974
     7  H    0.151851
     8  H    0.155090
     9  H    0.155195
    10  H    0.160226
    11  C   -0.298200
    12  C   -0.300004
    13  C   -0.480616
    14  H    0.149648
    15  H    0.149296
    16  H    0.151846
    17  H    0.151065
    18  H    0.162227
    19  H    0.154651
    20  H    0.160080
    21  C   -0.298270
    22  C   -0.299636
    23  C   -0.475704
    24  H    0.149717
    25  H    0.149427
    26  H    0.151975
    27  H    0.151853
    28  H    0.155149
    29  H    0.155212
    30  H    0.160266
    31  C   -0.298239
    32  C   -0.300023
    33  C   -0.478056
    34  H    0.149636
    35  H    0.149426
    36  H    0.151896
    37  H    0.151543
    38  H    0.158115
    39  H    0.156059
    40  H    0.159910
 Sum of Mulliken charges =  -0.00000

 Dipole moment (field-independent basis, Debye):
    X=             -0.0131    Y=              0.0183    Z=             -0.0034  Tot=              0.0227
 Quadrupole moment (field-independent basis, Debye-Ang):
   XX=            -85.3013   YY=            -85.0419   ZZ=            -84.4985
   XY=             -0.0556   XZ=              0.0080   YZ=              0.4840

 Normal termination of Gaussian 16 at Thu May  6 00:40:57 2021.
