 Gaussian 16, Revision A.03,
 Gaussian 16:  EM64L-G16RevA.03 25-Dec-2016

 -------------
 #p 6-31g* mp2
 -------------

 ------------------------------------------------------
 Input file generated by CHIRIPA (05-May-2021 14:53:14)
 ------------------------------------------------------
 Symbolic Z-matrix:
 Charge =  0 Multiplicity = 1

                         Standard orientation:
 ---------------------------------------------------------------------
 Center     Atomic      Atomic             Coordinates (Angstroms)
 Number     Number       Type             X           Y           Z
 ---------------------------------------------------------------------
      1          6           0        3.785739   -0.003469    0.539358
      2          6           0        4.646166   -0.934343   -0.315700
      3          6           0        5.334615   -2.024231    0.506478
      4          1           0        4.414532    0.460060    1.311825
      5          1           0        3.028419   -0.598489    1.068331
      6          1           0        5.400757   -0.337572   -0.843975
      7          1           0        4.015291   -1.395563   -1.086342
      8          1           0        4.593668   -2.644158    1.021540
      9          1           0        5.987006   -1.580157    1.265284
     10          1           0        5.944447   -2.678262   -0.124559
     11          6           0        3.090979    1.091366   -0.268339
     12          6           0        2.230552    2.022240    0.586718
     13          6           0        1.542103    3.112128   -0.235460
     14          1           0        3.848299    1.686386   -0.797313
     15          1           0        2.462186    0.627837   -1.040807
     16          1           0        2.861427    2.483460    1.357360
     17          1           0        1.475961    1.425469    1.114993
     18          1           0        0.889712    2.668054   -0.994265
     19          1           0        2.283050    3.732055   -0.750522
     20          1           0        0.932271    3.766159    0.395577
     21          6           0       -4.979563    0.453577    0.472636
     22          6           0       -3.967127    1.339012    0.088581
     23          6           0       -2.692690    0.863417   -0.234173
     24          6           0       -2.464506   -0.509893   -0.161794
     25          6           0       -3.452493   -1.417312    0.217368
     26          6           0       -4.719473   -0.919339    0.535692
     27          1           0       -5.966680    0.831723    0.721638
     28          1           0       -4.166253    2.405740    0.038727
     29          1           0       -1.890606    1.526623   -0.534567
     30          1           0       -3.223831   -2.475378    0.257753
     31          1           0       -5.503827   -1.609314    0.833632
     32          7           0       -1.119263   -1.025230   -0.501135
     33          8           0       -0.943697   -2.239595   -0.429506
     34          8           0       -0.265902   -0.205028   -0.832313
 ---------------------------------------------------------------------

 SCF Done:  E(RHF) =  -669.536547949     A.U. after   15 cycles
 E2 =    -0.2092209655D+01 EUMP2 =    -0.67162875760390D+03

 The electronic state is 1-A.
 Alpha  occ. eigenvalues --  -20.61094 -20.61089 -15.86113 -11.31356 -11.27914
 Alpha  occ. eigenvalues --  -11.27900 -11.27639 -11.26905 -11.26891 -11.20506
 Alpha  occ. eigenvalues --  -11.20451 -11.20308 -11.20130 -11.20103 -11.19918
 Alpha  occ. eigenvalues --   -1.60147  -1.39706  -1.19519  -1.08940  -1.07195
 Alpha  occ. eigenvalues --   -1.04903  -1.02464  -0.95794  -0.94931  -0.86309
 Alpha  occ. eigenvalues --   -0.85962  -0.82633  -0.78532  -0.77696  -0.77002
 Alpha  occ. eigenvalues --   -0.72363  -0.71454  -0.70628  -0.65189  -0.64907
 Alpha  occ. eigenvalues --   -0.63750  -0.62253  -0.59825  -0.58322  -0.56558
 Alpha  occ. eigenvalues --   -0.55413  -0.54211  -0.53240  -0.52989  -0.51705
 Alpha  occ. eigenvalues --   -0.51387  -0.49197  -0.49087  -0.48749  -0.46867
 Alpha  occ. eigenvalues --   -0.45557  -0.45105  -0.44544  -0.44376  -0.42676
 Alpha  occ. eigenvalues --   -0.37496  -0.36500
 Alpha virt. eigenvalues --    0.04813   0.11150   0.16306   0.20777   0.23695
 Alpha virt. eigenvalues --    0.24708   0.26979   0.27530   0.28269   0.28895
 Alpha virt. eigenvalues --    0.29277   0.30802   0.31632   0.32471   0.32867

 Mulliken charges:
               1
     1  C   -0.297483
     2  C   -0.300052
     3  C   -0.475359
     4  H    0.142494
     5  H    0.154266
     6  H    0.147322
     7  H    0.158873
     8  H    0.156638
     9  H    0.151284
    10  H    0.157146
    11  C   -0.303870
    12  C   -0.294056
    13  C   -0.481337
    14  H    0.140785
    15  H    0.174385
    16  H    0.144641
    17  H    0.154471
    18  H    0.162416
    19  H    0.152643
    20  H    0.149593
    21  C   -0.170166
    22  C   -0.219464
    23  C   -0.172126
    24  C    0.156655
    25  C   -0.170140
    26  C   -0.218807
    27  H    0.226288
    28  H    0.224587
    29  H    0.279582
    30  H    0.275828
    31  H    0.224006
    32  N    0.493610
    33  O   -0.458335
    34  O   -0.466315
 Sum of Mulliken charges =  -0.00000

 Dipole moment (field-independent basis, Debye):
    X=             -5.0698    Y=              1.5884    Z=              1.0706  Tot=              5.4196
 Quadrupole moment (field-independent basis, Debye-Ang):
   XX=            -72.2254   YY=            -93.4897   ZZ=            -96.1228
   XY=              0.1265   XZ=             -3.1598   YZ=             -1.5505

 Normal termination of Gaussian 16 at Thu May  6 07:23:41 2021.
