 Gaussian 16, Revision A.03,
 Gaussian 16:  EM64L-G16RevA.03 25-Dec-2016

 -------------
 #p 6-31g* mp2
 -------------

 ------------------------------------------------------
 Input file generated by CHIRIPA (05-May-2021 14:57:24)
 ------------------------------------------------------
 Symbolic Z-matrix:
 Charge =  0 Multiplicity = 1

                         Standard orientation:
 ---------------------------------------------------------------------
 Center     Atomic      Atomic             Coordinates (Angstroms)
 Number     Number       Type             X           Y           Z
 ---------------------------------------------------------------------
      1          6           0       -2.012713    1.525014    0.109083
      2          6           0       -3.088950    1.990019   -0.653810
      3          6           0       -4.288353    1.273218   -0.700483
      4          6           0       -4.377262    0.090041    0.031281
      5          6           0       -3.322779   -0.399245    0.800667
      6          6           0       -2.132851    0.333966    0.832611
      7          1           0       -1.084669    2.088216    0.139619
      8          1           0       -2.998498    2.914679   -1.216719
      9          1           0       -5.137244    1.610275   -1.282886
     10          1           0       -3.442951   -1.324398    1.351184
     11          1           0       -1.298677   -0.029567    1.425943
     12          7           0       -5.642001   -0.677490   -0.010333
     13          8           0       -5.694999   -1.716995    0.643316
     14          8           0       -6.556357   -0.225043   -0.695812
     15          6           0        6.568831    0.558230    0.036635
     16          6           0        6.259373   -0.715664   -0.451165
     17          6           0        4.933093   -1.155446   -0.497225
     18          6           0        3.936793   -0.291442   -0.045368
     19          6           0        4.213232    0.983427    0.446141
     20          6           0        5.546575    1.402222    0.482945
     21          1           0        7.601861    0.891712    0.068820
     22          1           0        7.051217   -1.373257   -0.798440
     23          1           0        4.665389   -2.136662   -0.870009
     24          1           0        3.402248    1.616422    0.785317
     25          1           0        5.783956    2.392069    0.862286
     26          7           0        2.528981   -0.745910   -0.089230
     27          8           0        1.669506    0.034297    0.314769
     28          8           0        2.311671   -1.873724   -0.526778
 ---------------------------------------------------------------------

 SCF Done:  E(RHF) =  -868.339982757     A.U. after   16 cycles
 E2 =    -0.2598491990D+01 EUMP2 =    -0.87093847474731D+03

 The electronic state is 1-A.
 Alpha  occ. eigenvalues --  -20.61814 -20.61747 -20.59890 -20.59879 -15.86818
 Alpha  occ. eigenvalues --  -15.84931 -11.31942 -11.30085 -11.28511 -11.28449
 Alpha  occ. eigenvalues --  -11.28161 -11.27447 -11.27411 -11.26670 -11.26543
 Alpha  occ. eigenvalues --  -11.26227 -11.25657 -11.25378  -1.60837  -1.58967
 Alpha  occ. eigenvalues --   -1.40403  -1.38526  -1.20086  -1.18212  -1.09522
 Alpha  occ. eigenvalues --   -1.07627  -1.05455  -1.03575  -0.96400  -0.94509
 Alpha  occ. eigenvalues --   -0.86863  -0.84966  -0.83247  -0.81350  -0.78323
 Alpha  occ. eigenvalues --   -0.76440  -0.73059  -0.72139  -0.71190  -0.71155
 Alpha  occ. eigenvalues --   -0.70286  -0.69288  -0.65745  -0.65452  -0.63850
 Alpha  occ. eigenvalues --   -0.63536  -0.62808  -0.60922  -0.55954  -0.54035
 Alpha  occ. eigenvalues --   -0.53792  -0.53543  -0.51926  -0.51648  -0.49807
 Alpha  occ. eigenvalues --   -0.49757  -0.47923  -0.47888  -0.45858  -0.43980
 Alpha  occ. eigenvalues --   -0.38045  -0.37046  -0.36153  -0.35174
 Alpha virt. eigenvalues --    0.04195   0.06071   0.10612   0.12488   0.15738
 Alpha virt. eigenvalues --    0.17644   0.20745   0.22635   0.26686   0.27535
 Alpha virt. eigenvalues --    0.28602   0.29357   0.30457   0.31805   0.32389

 Mulliken charges:
               1
     1  C   -0.169481
     2  C   -0.219649
     3  C   -0.173146
     4  C    0.157870
     5  C   -0.173225
     6  C   -0.214935
     7  H    0.227979
     8  H    0.218029
     9  H    0.271301
    10  H    0.273463
    11  H    0.237524
    12  N    0.488224
    13  O   -0.462237
    14  O   -0.464091
    15  C   -0.169860
    16  C   -0.218380
    17  C   -0.170137
    18  C    0.158104
    19  C   -0.170594
    20  C   -0.218277
    21  H    0.228110
    22  H    0.226117
    23  H    0.277451
    24  H    0.271618
    25  H    0.224815
    26  N    0.491220
    27  O   -0.473949
    28  O   -0.453865
 Sum of Mulliken charges =  -0.00000

 Dipole moment (field-independent basis, Debye):
    X=             10.0747    Y=              4.1738    Z=              0.3311  Tot=             10.9101
 Quadrupole moment (field-independent basis, Debye-Ang):
   XX=           -105.0153   YY=            -99.7085   ZZ=           -103.5283
   XY=             -9.5092   XZ=              0.2731   YZ=             -0.3205

 Normal termination of Gaussian 16 at Thu May  6 03:25:55 2021.
