 Gaussian 16, Revision A.03,
 Gaussian 16:  EM64L-G16RevA.03 25-Dec-2016

 -------------
 #p 6-31g* mp2
 -------------

 ------------------------------------------------------
 Input file generated by CHIRIPA (05-May-2021 14:53:13)
 ------------------------------------------------------
 Symbolic Z-matrix:
 Charge =  0 Multiplicity = 1

                         Standard orientation:
 ---------------------------------------------------------------------
 Center     Atomic      Atomic             Coordinates (Angstroms)
 Number     Number       Type             X           Y           Z
 ---------------------------------------------------------------------
      1          6           0       -2.497650    1.436977    0.160521
      2          6           0       -1.462881    2.324530   -0.531928
      3          6           0       -1.233678    3.647037    0.200354
      4          1           0       -3.447204    1.983999    0.238364
      5          1           0       -2.167891    1.235276    1.189099
      6          1           0       -1.793815    2.523358   -1.559336
      7          1           0       -0.515735    1.775261   -0.608303
      8          1           0       -0.879938    3.466228    1.220538
      9          1           0       -2.165279    4.218575    0.264102
     10          1           0       -0.490339    4.265926   -0.311781
     11          6           0       -2.737706    0.111298   -0.559671
     12          6           0       -3.772475   -0.776256    0.132779
     13          6           0       -4.001678   -2.098762   -0.599503
     14          1           0       -3.067465    0.312998   -1.588248
     15          1           0       -1.788152   -0.435724   -0.637514
     16          1           0       -4.719621   -0.226986    0.209154
     17          1           0       -3.441542   -0.975083    1.160186
     18          1           0       -3.070077   -2.670301   -0.663252
     19          1           0       -4.355419   -1.917953   -1.619688
     20          1           0       -4.745017   -2.717652   -0.087368
     21          6           0        3.717420    1.210470   -0.367490
     22          6           0        3.846957   -0.051629   -0.956429
     23          6           0        2.926209   -1.064955   -0.673691
     24          6           0        1.883384   -0.780288    0.206519
     25          6           0        1.727418    0.467023    0.809163
     26          6           0        2.659928    1.465318    0.511876
     27          1           0        4.437247    1.991807   -0.592779
     28          1           0        4.667221   -0.252392   -1.639733
     29          1           0        3.002752   -2.050985   -1.115625
     30          1           0        0.899232    0.637180    1.486343
     31          1           0        2.556840    2.444541    0.970722
     32          7           0        0.902403   -1.845095    0.513542
     33          8           0       -0.007458   -1.568996    1.292362
     34          8           0        1.061946   -2.935627   -0.030447
 ---------------------------------------------------------------------

 SCF Done:  E(RHF) =  -669.535994203     A.U. after   15 cycles
 E2 =    -0.2094103832D+01 EUMP2 =    -0.67163009803582D+03

 The electronic state is 1-A.
 Alpha  occ. eigenvalues --  -20.61056 -20.61045 -15.86066 -11.31354 -11.27911
 Alpha  occ. eigenvalues --  -11.27906 -11.27631 -11.26903 -11.26892 -11.21487
 Alpha  occ. eigenvalues --  -11.21318 -11.20962 -11.20621 -11.20556 -11.20004
 Alpha  occ. eigenvalues --   -1.60108  -1.39664  -1.19523  -1.08927  -1.07894
 Alpha  occ. eigenvalues --   -1.04912  -1.03014  -0.95778  -0.95489  -0.86521
 Alpha  occ. eigenvalues --   -0.86302  -0.82610  -0.79146  -0.77689  -0.77602
 Alpha  occ. eigenvalues --   -0.72296  -0.71433  -0.70629  -0.65176  -0.64931
 Alpha  occ. eigenvalues --   -0.64496  -0.62252  -0.60393  -0.58953  -0.57070
 Alpha  occ. eigenvalues --   -0.55408  -0.54780  -0.53252  -0.52991  -0.52228
 Alpha  occ. eigenvalues --   -0.51911  -0.49443  -0.49059  -0.49041  -0.47441
 Alpha  occ. eigenvalues --   -0.46181  -0.45487  -0.45097  -0.44631  -0.43247
 Alpha  occ. eigenvalues --   -0.37488  -0.36454
 Alpha virt. eigenvalues --    0.04809   0.11089   0.16266   0.20040   0.23143
 Alpha virt. eigenvalues --    0.24641   0.26446   0.27269   0.27674   0.28394
 Alpha virt. eigenvalues --    0.29462   0.31081   0.31468   0.31934   0.32602

 Mulliken charges:
               1
     1  C   -0.299302
     2  C   -0.305848
     3  C   -0.475110
     4  H    0.147961
     5  H    0.151216
     6  H    0.152651
     7  H    0.151737
     8  H    0.147224
     9  H    0.158683
    10  H    0.155847
    11  C   -0.296938
    12  C   -0.298917
    13  C   -0.478294
    14  H    0.143882
    15  H    0.155280
    16  H    0.145276
    17  H    0.162050
    18  H    0.167311
    19  H    0.149009
    20  H    0.157630
    21  C   -0.170286
    22  C   -0.218389
    23  C   -0.170485
    24  C    0.157379
    25  C   -0.171707
    26  C   -0.218871
    27  H    0.226490
    28  H    0.224151
    29  H    0.276032
    30  H    0.278357
    31  H    0.225860
    32  N    0.487797
    33  O   -0.459573
    34  O   -0.458103
 Sum of Mulliken charges =  -0.00000

 Dipole moment (field-independent basis, Debye):
    X=              3.6357    Y=              3.5295    Z=             -1.0169  Tot=              5.1682
 Quadrupole moment (field-independent basis, Debye-Ang):
   XX=            -80.7865   YY=           -100.0995   ZZ=            -93.8755
   XY=              2.3539   XZ=             -3.1457   YZ=              3.0847

 Normal termination of Gaussian 16 at Thu May  6 13:45:25 2021.
