 Gaussian 16, Revision A.03,
 Gaussian 16:  EM64L-G16RevA.03 25-Dec-2016

 -------------
 #p 6-31g* mp2
 -------------

 ------------------------------------------------------
 Input file generated by CHIRIPA (05-May-2021 14:57:23)
 ------------------------------------------------------
 Symbolic Z-matrix:
 Charge =  0 Multiplicity = 1

                         Standard orientation:
 ---------------------------------------------------------------------
 Center     Atomic      Atomic             Coordinates (Angstroms)
 Number     Number       Type             X           Y           Z
 ---------------------------------------------------------------------
      1          6           0        4.723787    1.428591    1.206001
      2          6           0        3.922392    2.036862    0.234253
      3          6           0        3.031958    1.276337   -0.529472
      4          6           0        2.968397   -0.096178   -0.293991
      5          6           0        3.753666   -0.731382    0.666820
      6          6           0        4.637019    0.048842    1.418808
      7          1           0        5.412747    2.027036    1.794722
      8          1           0        3.987661    3.108193    0.066815
      9          1           0        2.399915    1.721504   -1.288265
     10          1           0        3.666297   -1.801445    0.810871
     11          1           0        5.258173   -0.426247    2.172799
     12          7           0        2.029482   -0.911739   -1.096300
     13          8           0        1.992317   -2.119148   -0.869541
     14          8           0        1.348504   -0.328124   -1.936716
     15          6           0       -2.168171   -2.340763    0.552045
     16          6           0       -1.865550   -1.647648   -0.624617
     17          6           0       -2.389061   -0.371314   -0.851454
     18          6           0       -3.215464    0.184363    0.124030
     19          6           0       -3.535443   -0.480999    1.306483
     20          6           0       -3.000684   -1.756258    1.512147
     21          1           0       -1.757127   -3.331833    0.720034
     22          1           0       -1.219292   -2.099117   -1.371994
     23          1           0       -2.171079    0.187512   -1.753460
     24          1           0       -4.182638   -0.004952    2.033076
     25          1           0       -3.237412   -2.292209    2.426893
     26          7           0       -3.775636    1.534992   -0.104905
     27          8           0       -4.501190    2.002592    0.770057
     28          8           0       -3.478538    2.100440   -1.154971
 ---------------------------------------------------------------------

 SCF Done:  E(RHF) =  -868.341245953     A.U. after   16 cycles
 E2 =    -0.2599159938D+01 EUMP2 =    -0.87094040589077D+03

 The electronic state is 1-A.
 Alpha  occ. eigenvalues --  -20.61659 -20.61643 -20.60085 -20.60074 -15.86645
 Alpha  occ. eigenvalues --  -15.85122 -11.31672 -11.30244 -11.28223 -11.28167
 Alpha  occ. eigenvalues --  -11.27884 -11.27158 -11.27110 -11.26847 -11.26627
 Alpha  occ. eigenvalues --  -11.26424 -11.25844 -11.25462  -1.60699  -1.59164
 Alpha  occ. eigenvalues --   -1.40261  -1.38722  -1.19812  -1.18378  -1.09275
 Alpha  occ. eigenvalues --   -1.07817  -1.05162  -1.03704  -0.96167  -0.94694
 Alpha  occ. eigenvalues --   -0.86577  -0.85115  -0.83013  -0.81510  -0.78094
 Alpha  occ. eigenvalues --   -0.76592  -0.72890  -0.71981  -0.71346  -0.70919
 Alpha  occ. eigenvalues --   -0.70486  -0.69470  -0.65470  -0.65166  -0.64004
 Alpha  occ. eigenvalues --   -0.63655  -0.62512  -0.61024  -0.55683  -0.54222
 Alpha  occ. eigenvalues --   -0.53510  -0.53250  -0.52107  -0.51762  -0.49657
 Alpha  occ. eigenvalues --   -0.49607  -0.48113  -0.48076  -0.45740  -0.44181
 Alpha  occ. eigenvalues --   -0.37775  -0.36748  -0.36373  -0.35301
 Alpha virt. eigenvalues --    0.04394   0.05884   0.10912   0.12326   0.15955
 Alpha virt. eigenvalues --    0.17442   0.21076   0.22629   0.27020   0.27907
 Alpha virt. eigenvalues --    0.28732   0.29332   0.30691   0.32160   0.32208

 Mulliken charges:
               1
     1  C   -0.169547
     2  C   -0.218483
     3  C   -0.169626
     4  C    0.158778
     5  C   -0.170663
     6  C   -0.218682
     7  H    0.227772
     8  H    0.226845
     9  H    0.278267
    10  H    0.274044
    11  H    0.224377
    12  N    0.490533
    13  O   -0.466189
    14  O   -0.463638
    15  C   -0.173220
    16  C   -0.222555
    17  C   -0.172701
    18  C    0.156363
    19  C   -0.174143
    20  C   -0.219799
    21  H    0.226077
    22  H    0.245308
    23  H    0.279664
    24  H    0.271070
    25  H    0.218594
    26  N    0.487949
    27  O   -0.464659
    28  O   -0.461734
 Sum of Mulliken charges =  -0.00000

 Dipole moment (field-independent basis, Debye):
    X=              5.7448    Y=             -1.8746    Z=              3.4647  Tot=              6.9657
 Quadrupole moment (field-independent basis, Debye-Ang):
   XX=            -98.1580   YY=           -104.4712   ZZ=           -102.0152
   XY=             23.4682   XZ=              4.4351   YZ=             -3.8824

 Normal termination of Gaussian 16 at Wed May  5 21:03:36 2021.
