 Gaussian 16, Revision A.03,
 Gaussian 16:  EM64L-G16RevA.03 25-Dec-2016

 -------------
 #p 6-31g* mp2
 -------------

 ------------------------------------------------------
 Input file generated by CHIRIPA (05-May-2021 14:57:26)
 ------------------------------------------------------
 Symbolic Z-matrix:
 Charge =  0 Multiplicity = 1

                         Standard orientation:
 ---------------------------------------------------------------------
 Center     Atomic      Atomic             Coordinates (Angstroms)
 Number     Number       Type             X           Y           Z
 ---------------------------------------------------------------------
      1          6           0       -1.548121   -2.098723    0.608581
      2          6           0       -1.451397   -1.488823   -0.646484
      3          6           0       -2.344853   -0.478963   -1.015897
      4          6           0       -3.327225   -0.102006   -0.101490
      5          6           0       -3.449300   -0.690574    1.156276
      6          6           0       -2.545006   -1.698358    1.504376
      7          1           0       -0.849854   -2.882400    0.887272
      8          1           0       -0.678206   -1.797723   -1.344195
      9          1           0       -2.292655    0.010046   -1.981072
     10          1           0       -4.230629   -0.361268    1.830443
     11          1           0       -2.622501   -2.170248    2.479752
     12          7           0       -4.278823    0.965988   -0.481290
     13          8           0       -5.135367    1.280038    0.342326
     14          8           0       -4.150125    1.468810   -1.595401
     15          6           0        3.586322   -2.142930   -0.537216
     16          6           0        4.632983   -1.217485   -0.604848
     17          6           0        4.414036    0.126444   -0.287888
     18          6           0        3.130178    0.512074    0.094591
     19          6           0        2.066892   -0.386140    0.171555
     20          6           0        2.308870   -1.725040   -0.149914
     21          1           0        3.765351   -3.184973   -0.785190
     22          1           0        5.626097   -1.539182   -0.905318
     23          1           0        5.206263    0.863918   -0.331793
     24          1           0        1.087725   -0.035514    0.474393
     25          1           0        1.494126   -2.441549   -0.096503
     26          7           0        2.886199    1.932169    0.432529
     27          8           0        1.745987    2.246630    0.766694
     28          8           0        3.839801    2.703890    0.356840
 ---------------------------------------------------------------------

 SCF Done:  E(RHF) =  -868.335905049     A.U. after   16 cycles
 E2 =    -0.2602062355D+01 EUMP2 =    -0.87093796740441D+03

 The electronic state is 1-A.
 Alpha  occ. eigenvalues --  -20.61107 -20.61100 -20.60940 -20.60934 -15.86169
 Alpha  occ. eigenvalues --  -15.86002 -11.31694 -11.31612 -11.28310 -11.28295
 Alpha  occ. eigenvalues --  -11.28229 -11.28181 -11.28154 -11.28153 -11.27493
 Alpha  occ. eigenvalues --  -11.27381 -11.27325 -11.27288  -1.60180  -1.60006
 Alpha  occ. eigenvalues --   -1.39728  -1.39554  -1.19932  -1.19833  -1.09302
 Alpha  occ. eigenvalues --   -1.09221  -1.05408  -1.05232  -0.96086  -0.96002
 Alpha  occ. eigenvalues --   -0.86791  -0.86661  -0.82930  -0.82817  -0.77992
 Alpha  occ. eigenvalues --   -0.77743  -0.72382  -0.72224  -0.71511  -0.71324
 Alpha  occ. eigenvalues --   -0.71066  -0.70988  -0.65710  -0.65556  -0.65455
 Alpha  occ. eigenvalues --   -0.65115  -0.62828  -0.62435  -0.55931  -0.55826
 Alpha  occ. eigenvalues --   -0.53720  -0.53643  -0.53422  -0.53282  -0.49158
 Alpha  occ. eigenvalues --   -0.49123  -0.49000  -0.48956  -0.45097  -0.44904
 Alpha  occ. eigenvalues --   -0.37926  -0.37884  -0.37094  -0.36727
 Alpha virt. eigenvalues --    0.04531   0.04794   0.10588   0.10719   0.15830
 Alpha virt. eigenvalues --    0.16242   0.18852   0.22043   0.25169   0.27026
 Alpha virt. eigenvalues --    0.27814   0.28665   0.30160   0.31292   0.31776

 Mulliken charges:
               1
     1  C   -0.178395
     2  C   -0.226461
     3  C   -0.167323
     4  C    0.160992
     5  C   -0.168363
     6  C   -0.216297
     7  H    0.220108
     8  H    0.222461
     9  H    0.279602
    10  H    0.278867
    11  H    0.225975
    12  N    0.488400
    13  O   -0.458149
    14  O   -0.457459
    15  C   -0.170586
    16  C   -0.219020
    17  C   -0.168811
    18  C    0.159101
    19  C   -0.174552
    20  C   -0.225483
    21  H    0.225996
    22  H    0.225488
    23  H    0.277971
    24  H    0.282101
    25  H    0.212458
    26  N    0.487955
    27  O   -0.457672
    28  O   -0.458905
 Sum of Mulliken charges =  -0.00000

 Dipole moment (field-independent basis, Debye):
    X=              4.0390    Y=             -8.4640    Z=              0.1681  Tot=              9.3798
 Quadrupole moment (field-independent basis, Debye-Ang):
   XX=           -115.0177   YY=           -110.6598   ZZ=           -101.9828
   XY=             -1.7044   XZ=            -11.9792   YZ=             -1.5722

 Normal termination of Gaussian 16 at Thu May  6 18:09:13 2021.
