 Gaussian 16, Revision A.03,
 Gaussian 16:  EM64L-G16RevA.03 25-Dec-2016

 -------------
 #p 6-31g* mp2
 -------------

 ------------------------------------------------------
 Input file generated by CHIRIPA (05-May-2021 14:57:25)
 ------------------------------------------------------
 Symbolic Z-matrix:
 Charge =  0 Multiplicity = 1

                         Standard orientation:
 ---------------------------------------------------------------------
 Center     Atomic      Atomic             Coordinates (Angstroms)
 Number     Number       Type             X           Y           Z
 ---------------------------------------------------------------------
      1          6           0        6.498951    0.853176   -0.379056
      2          6           0        6.284770   -0.149167    0.572761
      3          6           0        4.993915   -0.621129    0.828680
      4          6           0        3.935501   -0.065860    0.111236
      5          6           0        4.116659    0.933815   -0.843291
      6          6           0        5.416121    1.390520   -1.082804
      7          1           0        7.505061    1.213882   -0.571488
      8          1           0        7.123820   -0.568316    1.120807
      9          1           0        4.799659   -1.396213    1.560067
     10          1           0        3.260335    1.332250   -1.373742
     11          1           0        5.579475    2.169047   -1.822572
     12          7           0        2.564375   -0.557430    0.373482
     13          8           0        1.648725   -0.051863   -0.271984
     14          8           0        2.431299   -1.438980    1.219529
     15          6           0       -6.355586    1.124153    0.435764
     16          6           0       -6.339918   -0.085067   -0.267132
     17          6           0       -5.130074   -0.725192   -0.551848
     18          6           0       -3.949361   -0.125301   -0.116719
     19          6           0       -3.932194    1.078772    0.585568
     20          6           0       -5.153791    1.701195    0.859124
     21          1           0       -7.299988    1.614542    0.652604
     22          1           0       -7.271706   -0.535515   -0.597152
     23          1           0       -5.089023   -1.661951   -1.094265
     24          1           0       -2.987100    1.503466    0.901561
     25          1           0       -5.162928    2.640226    1.405184
     26          7           0       -2.662331   -0.793603   -0.412228
     27          8           0       -1.635833   -0.244554   -0.017913
     28          8           0       -2.704424   -1.853812   -1.032566
 ---------------------------------------------------------------------

 SCF Done:  E(RHF) =  -868.334228996     A.U. after   16 cycles
 E2 =    -0.2600492743D+01 EUMP2 =    -0.87093472173964D+03

 The electronic state is 1-A.
 Alpha  occ. eigenvalues --  -20.59595 -20.59523 -20.59511 -20.59409 -15.84636
 Alpha  occ. eigenvalues --  -15.84526 -11.30418 -11.30329 -11.27043 -11.27032
 Alpha  occ. eigenvalues --  -11.26964 -11.26939 -11.26865 -11.26789 -11.26153
 Alpha  occ. eigenvalues --  -11.26143 -11.26076 -11.26063  -1.58634  -1.58542
 Alpha  occ. eigenvalues --   -1.38182  -1.38081  -1.18633  -1.18549  -1.07950
 Alpha  occ. eigenvalues --   -1.07863  -1.04098  -1.04016  -0.94719  -0.94608
 Alpha  occ. eigenvalues --   -0.85477  -0.85394  -0.81559  -0.81430  -0.76524
 Alpha  occ. eigenvalues --   -0.76423  -0.70960  -0.70561  -0.69998  -0.69902
 Alpha  occ. eigenvalues --   -0.69740  -0.69655  -0.64277  -0.64184  -0.64103
 Alpha  occ. eigenvalues --   -0.64024  -0.61442  -0.61358  -0.54590  -0.54510
 Alpha  occ. eigenvalues --   -0.52406  -0.52324  -0.52197  -0.52115  -0.47824
 Alpha  occ. eigenvalues --   -0.47597  -0.47502  -0.47164  -0.43501  -0.43395
 Alpha  occ. eigenvalues --   -0.36640  -0.36558  -0.35722  -0.35641
 Alpha virt. eigenvalues --    0.06020   0.06115   0.11926   0.12007   0.17438
 Alpha virt. eigenvalues --    0.17528   0.22005   0.22083   0.27887   0.27961
 Alpha virt. eigenvalues --    0.28933   0.29021   0.31525   0.31600   0.33197

 Mulliken charges:
               1
     1  C   -0.172244
     2  C   -0.218532
     3  C   -0.171714
     4  C    0.159244
     5  C   -0.171793
     6  C   -0.218576
     7  H    0.222723
     8  H    0.220967
     9  H    0.274852
    10  H    0.275970
    11  H    0.220883
    12  N    0.486250
    13  O   -0.445437
    14  O   -0.462336
    15  C   -0.172303
    16  C   -0.218588
    17  C   -0.171769
    18  C    0.159176
    19  C   -0.171706
    20  C   -0.218661
    21  H    0.222395
    22  H    0.220627
    23  H    0.274533
    24  H    0.277124
    25  H    0.220663
    26  N    0.486354
    27  O   -0.442878
    28  O   -0.465225
 Sum of Mulliken charges =  -0.00000

 Dipole moment (field-independent basis, Debye):
    X=              0.3398    Y=              4.0613    Z=              0.1089  Tot=              4.0769
 Quadrupole moment (field-independent basis, Debye-Ang):
   XX=            -33.8432   YY=           -102.0607   ZZ=           -103.1781
   XY=             -1.5240   XZ=             -4.1088   YZ=             -0.7185

 Normal termination of Gaussian 16 at Wed May  5 19:29:36 2021.
