 Gaussian 16, Revision A.03,
 Gaussian 16:  EM64L-G16RevA.03 25-Dec-2016

 -------------
 #p 6-31g* mp2
 -------------

 ------------------------------------------------------
 Input file generated by CHIRIPA (05-May-2021 14:53:15)
 ------------------------------------------------------
 Symbolic Z-matrix:
 Charge =  0 Multiplicity = 1

                         Standard orientation:
 ---------------------------------------------------------------------
 Center     Atomic      Atomic             Coordinates (Angstroms)
 Number     Number       Type             X           Y           Z
 ---------------------------------------------------------------------
      1          6           0       -5.078391    0.490959    0.160911
      2          6           0       -6.235021   -0.066560   -0.669369
      3          6           0       -7.342642    0.960810   -0.904914
      4          1           0       -5.465270    0.843152    1.126949
      5          1           0       -4.661400    1.370834   -0.348337
      6          1           0       -6.648813   -0.945946   -0.159397
      7          1           0       -5.845313   -0.417642   -1.633467
      8          1           0       -6.950797    1.835144   -1.434630
      9          1           0       -7.758862    1.303838    0.047815
     10          1           0       -8.159384    0.541201   -1.500498
     11          6           0       -3.963280   -0.524291    0.404882
     12          6           0       -2.806649    0.033227    1.235162
     13          6           0       -1.699028   -0.994143    1.470707
     14          1           0       -4.380271   -1.404167    0.914130
     15          1           0       -3.576400   -0.876485   -0.561156
     16          1           0       -3.196357    0.384309    2.199260
     17          1           0       -2.392857    0.912613    0.725190
     18          1           0       -1.282808   -1.337171    0.517978
     19          1           0       -2.090873   -1.868477    2.000424
     20          1           0       -0.882286   -0.574534    2.066292
     21          6           0        5.821298    1.001355    0.163417
     22          6           0        4.687449    1.818416    0.221023
     23          6           0        3.413987    1.281608    0.009644
     24          6           0        3.310572   -0.082528   -0.258178
     25          6           0        4.421235   -0.922546   -0.322136
     26          6           0        5.684813   -0.364111   -0.107501
     27          1           0        6.806715    1.426760    0.328885
     28          1           0        4.790433    2.879196    0.431227
     29          1           0        2.519416    1.891243    0.048450
     30          1           0        4.286834   -1.976388   -0.533725
     31          1           0        6.563616   -1.001053   -0.152846
     32          7           0        1.967647   -0.662270   -0.483679
     33          8           0        1.903335   -1.867110   -0.717903
     34          8           0        1.004802    0.099146   -0.421932
 ---------------------------------------------------------------------

 SCF Done:  E(RHF) =  -669.536105282     A.U. after   15 cycles
 E2 =    -0.2091355276D+01 EUMP2 =    -0.67162746055743D+03

 The electronic state is 1-A.
 Alpha  occ. eigenvalues --  -20.60977 -20.60963 -15.85985 -11.31308 -11.27868
 Alpha  occ. eigenvalues --  -11.27863 -11.27603 -11.26873 -11.26863 -11.20872
 Alpha  occ. eigenvalues --  -11.20503 -11.20484 -11.20260 -11.20199 -11.19235
 Alpha  occ. eigenvalues --   -1.60021  -1.39578  -1.19473  -1.08879  -1.07399
 Alpha  occ. eigenvalues --   -1.04868  -1.02417  -0.95725  -0.94849  -0.86269
 Alpha  occ. eigenvalues --   -0.85872  -0.82555  -0.78535  -0.77610  -0.77173
 Alpha  occ. eigenvalues --   -0.72210  -0.71330  -0.70582  -0.65129  -0.64873
 Alpha  occ. eigenvalues --   -0.64029  -0.62215  -0.59799  -0.58308  -0.56466
 Alpha  occ. eigenvalues --   -0.55379  -0.54135  -0.53199  -0.52959  -0.51563
 Alpha  occ. eigenvalues --   -0.51290  -0.49246  -0.48966  -0.48493  -0.46822
 Alpha  occ. eigenvalues --   -0.45566  -0.44967  -0.44709  -0.44574  -0.42690
 Alpha  occ. eigenvalues --   -0.37450  -0.36469
 Alpha virt. eigenvalues --    0.04913   0.11187   0.16406   0.21319   0.23840
 Alpha virt. eigenvalues --    0.25486   0.27240   0.27643   0.28207   0.28477
 Alpha virt. eigenvalues --    0.29208   0.30908   0.32391   0.32592   0.32672

 Mulliken charges:
               1
     1  C   -0.297437
     2  C   -0.299006
     3  C   -0.475097
     4  H    0.146691
     5  H    0.148575
     6  H    0.150677
     7  H    0.152237
     8  H    0.154185
     9  H    0.153674
    10  H    0.158196
    11  C   -0.298332
    12  C   -0.299272
    13  C   -0.473617
    14  H    0.146270
    15  H    0.153477
    16  H    0.143464
    17  H    0.154582
    18  H    0.179370
    19  H    0.143251
    20  H    0.152865
    21  C   -0.170577
    22  C   -0.218547
    23  C   -0.170844
    24  C    0.158638
    25  C   -0.170726
    26  C   -0.218578
    27  H    0.226034
    28  H    0.223869
    29  H    0.275718
    30  H    0.275947
    31  H    0.223876
    32  N    0.488833
    33  O   -0.459573
    34  O   -0.458823
 Sum of Mulliken charges =  -0.00000

 Dipole moment (field-independent basis, Debye):
    X=              5.1093    Y=              2.0198    Z=              0.6414  Tot=              5.5314
 Quadrupole moment (field-independent basis, Debye-Ang):
   XX=            -64.9036   YY=            -91.5148   ZZ=            -95.7787
   XY=              5.1461   XZ=              0.8850   YZ=              0.1974

 Normal termination of Gaussian 16 at Wed May  5 17:09:59 2021.
