 Gaussian 16, Revision A.03,
 Gaussian 16:  EM64L-G16RevA.03 25-Dec-2016

 -------------
 #p 6-31g* mp2
 -------------

 ------------------------------------------------------
 Input file generated by CHIRIPA (05-May-2021 14:57:21)
 ------------------------------------------------------
 Symbolic Z-matrix:
 Charge =  0 Multiplicity = 1

                         Standard orientation:
 ---------------------------------------------------------------------
 Center     Atomic      Atomic             Coordinates (Angstroms)
 Number     Number       Type             X           Y           Z
 ---------------------------------------------------------------------
      1          6           0       -1.946860    2.113264    1.339317
      2          6           0       -2.728405    1.234594    2.096712
      3          6           0       -3.332609    0.125303    1.497579
      4          6           0       -3.133293   -0.075935    0.132637
      5          6           0       -2.360270    0.781428   -0.648807
      6          6           0       -1.765607    1.884280   -0.028613
      7          1           0       -1.481206    2.972487    1.812919
      8          1           0       -2.870901    1.409937    3.159254
      9          1           0       -3.942640   -0.570885    2.060252
     10          1           0       -2.236475    0.580417   -1.706015
     11          1           0       -1.159171    2.564995   -0.619298
     12          7           0       -3.767886   -1.246883   -0.512787
     13          8           0       -3.576879   -1.402037   -1.716979
     14          8           0       -4.444272   -1.987345    0.197744
     15          6           0        4.650213   -1.399720    1.207155
     16          6           0        3.476960   -2.013815    0.756726
     17          6           0        2.571338   -1.312719   -0.045060
     18          6           0        2.871943    0.006952   -0.378820
     19          6           0        4.032440    0.646418    0.054328
     20          6           0        4.923727   -0.073901    0.855138
     21          1           0        5.348154   -1.951815    1.829622
     22          1           0        3.261948   -3.043346    1.028537
     23          1           0        1.655596   -1.763753   -0.407555
     24          1           0        4.219394    1.673948   -0.233158
     25          1           0        5.834109    0.405569    1.203503
     26          7           0        1.920790    0.759346   -1.227120
     27          8           0        2.208740    1.920928   -1.507206
     28          8           0        0.905336    0.173243   -1.595867
 ---------------------------------------------------------------------

 SCF Done:  E(RHF) =  -868.339981933     A.U. after   16 cycles
 E2 =    -0.2599791008D+01 EUMP2 =    -0.87093977294086D+03

 The electronic state is 1-A.
 Alpha  occ. eigenvalues --  -20.61517 -20.61469 -20.60037 -20.60010 -15.86496
 Alpha  occ. eigenvalues --  -15.85069 -11.31617 -11.30230 -11.28180 -11.28118
 Alpha  occ. eigenvalues --  -11.27861 -11.27135 -11.27087 -11.26893 -11.26630
 Alpha  occ. eigenvalues --  -11.26559 -11.25903 -11.25590  -1.60555  -1.59108
 Alpha  occ. eigenvalues --   -1.40112  -1.38663  -1.19769  -1.18409  -1.09215
 Alpha  occ. eigenvalues --   -1.07862  -1.05130  -1.03745  -0.96091  -0.94715
 Alpha  occ. eigenvalues --   -0.86540  -0.85176  -0.82931  -0.81527  -0.78001
 Alpha  occ. eigenvalues --   -0.76588  -0.72747  -0.71856  -0.71293  -0.70873
 Alpha  occ. eigenvalues --   -0.70432  -0.69535  -0.65424  -0.65130  -0.64051
 Alpha  occ. eigenvalues --   -0.63739  -0.62474  -0.61069  -0.55647  -0.54328
 Alpha  occ. eigenvalues --   -0.53481  -0.53215  -0.52150  -0.51817  -0.49508
 Alpha  occ. eigenvalues --   -0.49486  -0.48058  -0.48032  -0.45569  -0.44110
 Alpha  occ. eigenvalues --   -0.37745  -0.36723  -0.36455  -0.35280
 Alpha virt. eigenvalues --    0.04455   0.05945   0.10935   0.12284   0.16022
 Alpha virt. eigenvalues --    0.17442   0.21108   0.22436   0.27048   0.27945
 Alpha virt. eigenvalues --    0.28498   0.29258   0.30704   0.31922   0.32224

 Mulliken charges:
               1
     1  C   -0.174591
     2  C   -0.220243
     3  C   -0.174184
     4  C    0.152598
     5  C   -0.158649
     6  C   -0.221867
     7  H    0.222084
     8  H    0.218057
     9  H    0.270952
    10  H    0.284063
    11  H    0.236154
    12  N    0.487738
    13  O   -0.458889
    14  O   -0.466034
    15  C   -0.170072
    16  C   -0.218949
    17  C   -0.170078
    18  C    0.157576
    19  C   -0.171456
    20  C   -0.218889
    21  H    0.227222
    22  H    0.226492
    23  H    0.279415
    24  H    0.274600
    25  H    0.224148
    26  N    0.489339
    27  O   -0.465110
    28  O   -0.461427
 Sum of Mulliken charges =  -0.00000

 Dipole moment (field-independent basis, Debye):
    X=              5.9363    Y=              1.4413    Z=              5.0148  Tot=              7.9035
 Quadrupole moment (field-independent basis, Debye-Ang):
   XX=            -98.7864   YY=           -102.7778   ZZ=           -103.8328
   XY=            -18.0271   XZ=             -0.3214   YZ=             -0.0734

 Normal termination of Gaussian 16 at Wed May  5 16:14:10 2021.
