 Gaussian 16, Revision A.03,
 Gaussian 16:  EM64L-G16RevA.03 25-Dec-2016

 -------------
 #p 6-31g* mp2
 -------------

 ------------------------------------------------------
 Input file generated by CHIRIPA (05-May-2021 14:55:18)
 ------------------------------------------------------
 Symbolic Z-matrix:
 Charge =  0 Multiplicity = 1

                         Standard orientation:
 ---------------------------------------------------------------------
 Center     Atomic      Atomic             Coordinates (Angstroms)
 Number     Number       Type             X           Y           Z
 ---------------------------------------------------------------------
      1          6           0       -2.869928    1.914308   -0.412092
      2          6           0       -2.163965    1.615442    0.757872
      3          6           0       -1.781736    0.300631    1.040222
      4          6           0       -2.123541   -0.695124    0.126477
      5          6           0       -2.826266   -0.429072   -1.047697
      6          6           0       -3.198246    0.892898   -1.309560
      7          1           0       -3.162871    2.938466   -0.623471
      8          1           0       -1.907629    2.406657    1.456668
      9          1           0       -1.234636    0.041273    1.938461
     10          1           0       -3.067475   -1.239139   -1.725213
     11          1           0       -3.746447    1.122069   -2.218957
     12          7           0       -1.724318   -2.090846    0.414544
     13          8           0       -2.037538   -2.950087   -0.406573
     14          8           0       -1.105745   -2.299142    1.455994
     15          6           0        2.791724    1.344628    0.046713
     16          6           0        1.389308    1.952094   -0.000158
     17          6           0        1.384424    3.451782    0.297680
     18          1           0        3.229327    1.524416    1.038239
     19          1           0        3.433652    1.865284   -0.677331
     20          1           0        0.749850    1.429525    0.722775
     21          1           0        0.954917    1.770672   -0.991625
     22          1           0        1.999479    3.991060   -0.429979
     23          1           0        1.793246    3.647975    1.294161
     24          1           0        0.371905    3.865497    0.258893
     25          6           0        2.812982   -0.153990   -0.248953
     26          6           0        4.215398   -0.761458   -0.202082
     27          6           0        4.220281   -2.261145   -0.499920
     28          1           0        2.171054   -0.674647    0.475091
     29          1           0        2.375378   -0.333779   -1.240479
     30          1           0        4.649789   -0.580035    0.789384
     31          1           0        4.854856   -0.238888   -0.925014
     32          1           0        3.811460   -2.457337   -1.496401
     33          1           0        3.605227   -2.800422    0.227740
     34          1           0        5.232801   -2.674859   -0.461132
 ---------------------------------------------------------------------

 SCF Done:  E(RHF) =  -669.534223160     A.U. after   15 cycles
 E2 =    -0.2093986661D+01 EUMP2 =    -0.67162820982068D+03

 The electronic state is 1-A.
 Alpha  occ. eigenvalues --  -20.60821 -20.60814 -15.85869 -11.31220 -11.27784
 Alpha  occ. eigenvalues --  -11.27777 -11.27526 -11.26802 -11.26783 -11.21741
 Alpha  occ. eigenvalues --  -11.21538 -11.21393 -11.21347 -11.21173 -11.20644
 Alpha  occ. eigenvalues --   -1.59890  -1.39445  -1.19400  -1.08793  -1.08387
 Alpha  occ. eigenvalues --   -1.04819  -1.03506  -0.95967  -0.95632  -0.86983
 Alpha  occ. eigenvalues --   -0.86200  -0.82475  -0.79599  -0.78171  -0.77506
 Alpha  occ. eigenvalues --   -0.72089  -0.71207  -0.70513  -0.65102  -0.64987
 Alpha  occ. eigenvalues --   -0.64815  -0.62181  -0.60904  -0.59410  -0.57579
 Alpha  occ. eigenvalues --   -0.55305  -0.55244  -0.53178  -0.52916  -0.52649
 Alpha  occ. eigenvalues --   -0.52362  -0.49896  -0.48846  -0.48844  -0.47879
 Alpha  occ. eigenvalues --   -0.46639  -0.45708  -0.45620  -0.44830  -0.43756
 Alpha  occ. eigenvalues --   -0.37371  -0.36257
 Alpha virt. eigenvalues --    0.05005   0.11111   0.16441   0.20493   0.23095
 Alpha virt. eigenvalues --    0.24278   0.26142   0.26835   0.27099   0.28554
 Alpha virt. eigenvalues --    0.28809   0.30822   0.31304   0.31526   0.32241

 Mulliken charges:
               1
     1  C   -0.171973
     2  C   -0.212639
     3  C   -0.172059
     4  C    0.159658
     5  C   -0.171629
     6  C   -0.218465
     7  H    0.225718
     8  H    0.224941
     9  H    0.275010
    10  H    0.275597
    11  H    0.223523
    12  N    0.488406
    13  O   -0.459846
    14  O   -0.461387
    15  C   -0.298165
    16  C   -0.299346
    17  C   -0.476423
    18  H    0.148762
    19  H    0.148554
    20  H    0.150934
    21  H    0.152849
    22  H    0.157769
    23  H    0.154958
    24  H    0.149980
    25  C   -0.301012
    26  C   -0.299450
    27  C   -0.476881
    28  H    0.155914
    29  H    0.149140
    30  H    0.151375
    31  H    0.149894
    32  H    0.155338
    33  H    0.162107
    34  H    0.158847
 Sum of Mulliken charges =  -0.00000

 Dipole moment (field-independent basis, Debye):
    X=             -1.4465    Y=              4.7885    Z=             -1.0283  Tot=              5.1068
 Quadrupole moment (field-independent basis, Debye-Ang):
   XX=            -88.6273   YY=           -103.1785   ZZ=            -90.6595
   XY=             -8.9087   XZ=              4.1293   YZ=              2.2980

 Normal termination of Gaussian 16 at Wed May  5 15:48:58 2021.
