 Gaussian 16, Revision A.03,
 Gaussian 16:  EM64L-G16RevA.03 25-Dec-2016

 -------------
 #p 6-31g* mp2
 -------------

 ------------------------------------------------------
 Input file generated by CHIRIPA (05-May-2021 14:51:13)
 ------------------------------------------------------
 Symbolic Z-matrix:
 Charge =  0 Multiplicity = 1

                         Standard orientation:
 ---------------------------------------------------------------------
 Center     Atomic      Atomic             Coordinates (Angstroms)
 Number     Number       Type             X           Y           Z
 ---------------------------------------------------------------------
      1          6           0        3.475324    0.452053    0.549184
      2          6           0        2.642635    1.461257   -0.242095
      3          6           0        1.776002    2.345371    0.655170
      4          1           0        2.803900   -0.177875    1.148620
      5          1           0        4.114859    0.992573    1.260681
      6          1           0        2.005869    0.919069   -0.952853
      7          1           0        3.316107    2.088731   -0.839864
      8          1           0        2.398820    2.911752    1.355107
      9          1           0        1.081137    1.735444    1.241476
     10          1           0        1.189157    3.059376    0.068937
     11          6           0        4.346972   -0.439045   -0.333937
     12          6           0        5.179661   -1.448248    0.457342
     13          6           0        6.046293   -2.332362   -0.439924
     14          1           0        3.707436   -0.979564   -1.045434
     15          1           0        5.018396    0.190884   -0.933373
     16          1           0        4.506189   -2.075722    1.055111
     17          1           0        5.816427   -0.906060    1.168100
     18          1           0        6.741158   -1.722436   -1.026229
     19          1           0        5.423476   -2.898743   -1.139860
     20          1           0        6.633138   -3.046367    0.146310
     21          6           0       -3.288476    0.269153   -0.453635
     22          6           0       -2.876327    1.652288    0.051399
     23          6           0       -1.629005    2.190360   -0.650355
     24          1           0       -2.454023   -0.430645   -0.309016
     25          1           0       -3.469185    0.320639   -1.536265
     26          1           0       -2.697790    1.598519    1.132995
     27          1           0       -3.711927    2.348831   -0.094263
     28          1           0       -1.798991    2.272652   -1.728749
     29          1           0       -0.779092    1.518078   -0.494519
     30          1           0       -1.352128    3.180104   -0.274049
     31          6           0       -4.533820   -0.282162    0.238388
     32          6           0       -4.945968   -1.665297   -0.266646
     33          6           0       -6.193291   -2.203369    0.435108
     34          1           0       -4.353111   -0.333648    1.321018
     35          1           0       -5.368274    0.417636    0.093770
     36          1           0       -4.110369   -2.361840   -0.120984
     37          1           0       -5.124506   -1.611528   -1.348242
     38          1           0       -7.043204   -1.531086    0.279272
     39          1           0       -6.023306   -2.285661    1.513502
     40          1           0       -6.470168   -3.193113    0.058801
 ---------------------------------------------------------------------

 SCF Done:  E(RHF) =  -470.732108062     A.U. after   11 cycles
 E2 =    -0.1583039610D+01 EUMP2 =    -0.47231514767236D+03

 The electronic state is 1-A.
 Alpha  occ. eigenvalues --  -11.21607 -11.21599 -11.21578 -11.21570 -11.21404
 Alpha  occ. eigenvalues --  -11.21396 -11.21345 -11.21337 -11.21075 -11.21069
 Alpha  occ. eigenvalues --  -11.20962 -11.20945  -1.08435  -1.08406  -1.03569
 Alpha  occ. eigenvalues --   -1.03458  -0.96075  -0.95850  -0.87128  -0.86832
 Alpha  occ. eigenvalues --   -0.79653  -0.79501  -0.78238  -0.78231  -0.65124
 Alpha  occ. eigenvalues --   -0.64997  -0.61144  -0.60730  -0.59517  -0.59166
 Alpha  occ. eigenvalues --   -0.57576  -0.57568  -0.55553  -0.54957  -0.52956
 Alpha  occ. eigenvalues --   -0.52447  -0.52384  -0.52245  -0.50105  -0.49639
 Alpha  occ. eigenvalues --   -0.47919  -0.47855  -0.46666  -0.46528  -0.45794
 Alpha  occ. eigenvalues --   -0.45754  -0.45702  -0.45694  -0.43930  -0.43571
 Alpha virt. eigenvalues --    0.21667   0.23058   0.23587   0.24988   0.26340
 Alpha virt. eigenvalues --    0.26827   0.27131   0.27338   0.27705   0.28808
 Alpha virt. eigenvalues --    0.29396   0.31128   0.31481   0.31946   0.32293

 Mulliken charges:
               1
     1  C   -0.298035
     2  C   -0.302545
     3  C   -0.478336
     4  H    0.149038
     5  H    0.149699
     6  H    0.152728
     7  H    0.152222
     8  H    0.154466
     9  H    0.153973
    10  H    0.166105
    11  C   -0.298252
    12  C   -0.299611
    13  C   -0.475695
    14  H    0.149413
    15  H    0.149730
    16  H    0.151775
    17  H    0.151944
    18  H    0.155213
    19  H    0.155162
    20  H    0.160216
    21  C   -0.298387
    22  C   -0.300144
    23  C   -0.479282
    24  H    0.148979
    25  H    0.149542
    26  H    0.151693
    27  H    0.151703
    28  H    0.153815
    29  H    0.162636
    30  H    0.160276
    31  C   -0.298249
    32  C   -0.299609
    33  C   -0.475696
    34  H    0.149458
    35  H    0.149754
    36  H    0.151738
    37  H    0.151932
    38  H    0.155228
    39  H    0.155172
    40  H    0.160231
 Sum of Mulliken charges =  -0.00000

 Dipole moment (field-independent basis, Debye):
    X=              0.0021    Y=              0.0222    Z=             -0.0079  Tot=              0.0236
 Quadrupole moment (field-independent basis, Debye-Ang):
   XX=            -85.2410   YY=            -84.8822   ZZ=            -84.7669
   XY=              0.3024   XZ=              1.1412   YZ=             -0.4424

 Normal termination of Gaussian 16 at Thu May  6 07:08:03 2021.
