 Gaussian 16, Revision A.03,
 Gaussian 16:  EM64L-G16RevA.03 25-Dec-2016

 -------------
 #p 6-31g* mp2
 -------------

 ------------------------------------------------------
 Input file generated by CHIRIPA (05-May-2021 14:55:19)
 ------------------------------------------------------
 Symbolic Z-matrix:
 Charge =  0 Multiplicity = 1

                         Standard orientation:
 ---------------------------------------------------------------------
 Center     Atomic      Atomic             Coordinates (Angstroms)
 Number     Number       Type             X           Y           Z
 ---------------------------------------------------------------------
      1          6           0       -3.227186    2.487055   -0.742074
      2          6           0       -3.830966    1.335946   -1.258715
      3          6           0       -3.543775    0.079467   -0.717116
      4          6           0       -2.644026    0.010450    0.345418
      5          6           0       -2.026268    1.139011    0.882089
      6          6           0       -2.328349    2.385094    0.324798
      7          1           0       -3.456067    3.459081   -1.168895
      8          1           0       -4.529405    1.412119   -2.087223
      9          1           0       -3.996909   -0.827846   -1.097734
     10          1           0       -1.334137    1.031336    1.708393
     11          1           0       -1.857947    3.277366    0.728057
     12          7           0       -2.332108   -1.314225    0.927090
     13          8           0       -1.535960   -1.348231    1.862841
     14          8           0       -2.889681   -2.293417    0.436240
     15          6           0        4.193815   -0.153967   -0.213970
     16          6           0        4.478274    1.248028    0.325916
     17          6           0        5.970398    1.510787    0.531635
     18          1           0        4.606252   -0.898234    0.480947
     19          1           0        4.725287   -0.287353   -1.166409
     20          1           0        3.945310    1.379220    1.276365
     21          1           0        4.064944    1.989040   -0.370271
     22          1           0        6.513665    1.407151   -0.413205
     23          1           0        6.393351    0.793867    1.242787
     24          1           0        6.151013    2.518720    0.918038
     25          6           0        2.706497   -0.431690   -0.424881
     26          6           0        2.422036   -1.833686   -0.964767
     27          6           0        0.929913   -2.096443   -1.170486
     28          1           0        2.175024   -0.298304    0.527558
     29          1           0        2.294059    0.312576   -1.119798
     30          1           0        2.835368   -2.574697   -0.268581
     31          1           0        2.955001   -1.964877   -1.915216
     32          1           0        0.506960   -1.379524   -1.881638
     33          1           0        0.386646   -1.992808   -0.225647
     34          1           0        0.749298   -3.104377   -1.556889
 ---------------------------------------------------------------------

 SCF Done:  E(RHF) =  -669.536235290     A.U. after   15 cycles
 E2 =    -0.2091581539D+01 EUMP2 =    -0.67162781682909D+03

 The electronic state is 1-A.
 Alpha  occ. eigenvalues --  -20.60885 -20.60863 -15.85894 -11.31216 -11.27784
 Alpha  occ. eigenvalues --  -11.27780 -11.27526 -11.26793 -11.26783 -11.21506
 Alpha  occ. eigenvalues --  -11.21154 -11.21108 -11.21026 -11.20993 -11.20364
 Alpha  occ. eigenvalues --   -1.59935  -1.39491  -1.19387  -1.08793  -1.08135
 Alpha  occ. eigenvalues --   -1.04785  -1.03197  -0.95643  -0.95632  -0.86658
 Alpha  occ. eigenvalues --   -0.86186  -0.82473  -0.79288  -0.77950  -0.77525
 Alpha  occ. eigenvalues --   -0.72125  -0.71259  -0.70501  -0.65045  -0.64791
 Alpha  occ. eigenvalues --   -0.64759  -0.62134  -0.60583  -0.59027  -0.57253
 Alpha  occ. eigenvalues --   -0.55295  -0.54914  -0.53112  -0.52879  -0.52320
 Alpha  occ. eigenvalues --   -0.52073  -0.49587  -0.48889  -0.48874  -0.47598
 Alpha  occ. eigenvalues --   -0.46330  -0.45499  -0.45425  -0.44826  -0.43453
 Alpha  occ. eigenvalues --   -0.37364  -0.36383
 Alpha virt. eigenvalues --    0.04980   0.11261   0.16461   0.21352   0.23151
 Alpha virt. eigenvalues --    0.24656   0.26696   0.27302   0.27645   0.28272
 Alpha virt. eigenvalues --    0.28476   0.30851   0.31741   0.32060   0.32357

 Mulliken charges:
               1
     1  C   -0.170675
     2  C   -0.218762
     3  C   -0.170632
     4  C    0.159055
     5  C   -0.170458
     6  C   -0.218580
     7  H    0.225688
     8  H    0.223528
     9  H    0.275815
    10  H    0.275453
    11  H    0.223680
    12  N    0.488233
    13  O   -0.460887
    14  O   -0.457629
    15  C   -0.297949
    16  C   -0.299187
    17  C   -0.475436
    18  H    0.151279
    19  H    0.148654
    20  H    0.150936
    21  H    0.149138
    22  H    0.155003
    23  H    0.156211
    24  H    0.158622
    25  C   -0.299237
    26  C   -0.298425
    27  C   -0.484333
    28  H    0.152329
    29  H    0.145364
    30  H    0.154555
    31  H    0.148832
    32  H    0.147634
    33  H    0.169248
    34  H    0.162934
 Sum of Mulliken charges =  -0.00000

 Dipole moment (field-independent basis, Debye):
    X=             -1.2252    Y=              4.5872    Z=             -1.9846  Tot=              5.1460
 Quadrupole moment (field-independent basis, Debye-Ang):
   XX=            -88.7665   YY=            -94.0368   ZZ=            -93.8184
   XY=            -11.4420   XZ=              7.4268   YZ=              2.6864

 Normal termination of Gaussian 16 at Wed May  5 22:07:50 2021.
