 Gaussian 16, Revision A.03,
 Gaussian 16:  EM64L-G16RevA.03 25-Dec-2016

 -------------
 #p 6-31g* mp2
 -------------

 ------------------------------------------------------
 Input file generated by CHIRIPA (05-May-2021 14:51:12)
 ------------------------------------------------------
 Symbolic Z-matrix:
 Charge =  0 Multiplicity = 1

                         Standard orientation:
 ---------------------------------------------------------------------
 Center     Atomic      Atomic             Coordinates (Angstroms)
 Number     Number       Type             X           Y           Z
 ---------------------------------------------------------------------
      1          6           0       -4.129712    0.060833    0.278299
      2          6           0       -4.982345   -0.156170   -0.972265
      3          6           0       -6.367805    0.480946   -0.861010
      4          1           0       -4.656086   -0.352579    1.149486
      5          1           0       -4.024791    1.139529    0.459412
      6          1           0       -5.084473   -1.234117   -1.151754
      7          1           0       -4.453794    0.257636   -1.840605
      8          1           0       -6.283614    1.561358   -0.705378
      9          1           0       -6.917876    0.061129   -0.012613
     10          1           0       -6.960435    0.313682   -1.765815
     11          6           0       -2.741831   -0.570272    0.182275
     12          6           0       -1.889199   -0.353268    1.432840
     13          6           0       -0.503739   -0.990384    1.321584
     14          1           0       -2.846752   -1.648968    0.001163
     15          1           0       -2.215458   -0.156860   -0.688911
     16          1           0       -2.417750   -0.767075    2.301180
     17          1           0       -1.787071    0.724679    1.612329
     18          1           0        0.046333   -0.570568    0.473188
     19          1           0       -0.587930   -2.070797    1.165953
     20          1           0        0.088891   -0.823120    2.226389
     21          6           0        3.107934    0.842729    0.130543
     22          6           0        3.431703    2.197684   -0.499739
     23          6           0        2.768627    3.364215    0.233289
     24          1           0        2.018607    0.700481    0.139319
     25          1           0        3.430918    0.848158    1.180804
     26          1           0        3.109459    2.189221   -1.548883
     27          1           0        4.520395    2.336639   -0.507190
     28          1           0        3.098467    3.401050    1.276577
     29          1           0        1.679514    3.252796    0.228965
     30          1           0        3.013411    4.323178   -0.233971
     31          6           0        3.763610   -0.333291   -0.591118
     32          6           0        3.439841   -1.688246    0.039164
     33          6           0        4.102917   -2.854776   -0.693864
     34          1           0        3.440625   -0.338719   -1.641379
     35          1           0        4.852937   -0.191043   -0.599894
     36          1           0        2.351148   -1.827200    0.046616
     37          1           0        3.762085   -1.679783    1.088308
     38          1           0        5.192029   -2.743357   -0.689539
     39          1           0        3.773077   -2.891612   -1.737152
     40          1           0        3.858132   -3.813739   -0.226603
 ---------------------------------------------------------------------

 SCF Done:  E(RHF) =  -470.732863747     A.U. after   11 cycles
 E2 =    -0.1583204792D+01 EUMP2 =    -0.47231606853892D+03

 The electronic state is 1-A.
 Alpha  occ. eigenvalues --  -11.21632 -11.21626 -11.21577 -11.21490 -11.21440
 Alpha  occ. eigenvalues --  -11.21379 -11.21342 -11.21281 -11.21091 -11.21089
 Alpha  occ. eigenvalues --  -11.21069 -11.21006  -1.08466  -1.08377  -1.03562
 Alpha  occ. eigenvalues --   -1.03479  -0.96019  -0.95931  -0.87035  -0.86951
 Alpha  occ. eigenvalues --   -0.79651  -0.79531  -0.78307  -0.78149  -0.65153
 Alpha  occ. eigenvalues --   -0.64977  -0.60966  -0.60880  -0.59376  -0.59300
 Alpha  occ. eigenvalues --   -0.57623  -0.57548  -0.55408  -0.55141  -0.52738
 Alpha  occ. eigenvalues --   -0.52611  -0.52439  -0.52362  -0.50039  -0.49834
 Alpha  occ. eigenvalues --   -0.48007  -0.47838  -0.46748  -0.46569  -0.45933
 Alpha  occ. eigenvalues --   -0.45753  -0.45697  -0.45332  -0.43805  -0.43726
 Alpha virt. eigenvalues --    0.21503   0.23043   0.24171   0.24243   0.25620
 Alpha virt. eigenvalues --    0.26697   0.26922   0.27561   0.27925   0.29579
 Alpha virt. eigenvalues --    0.30567   0.31526   0.31719   0.31916   0.32222

 Mulliken charges:
               1
     1  C   -0.298287
     2  C   -0.299664
     3  C   -0.475731
     4  H    0.149823
     5  H    0.149600
     6  H    0.151968
     7  H    0.151860
     8  H    0.155245
     9  H    0.155248
    10  H    0.160320
    11  C   -0.298413
    12  C   -0.300652
    13  C   -0.479886
    14  H    0.149641
    15  H    0.149126
    16  H    0.152213
    17  H    0.152008
    18  H    0.159020
    19  H    0.155103
    20  H    0.161911
    21  C   -0.304557
    22  C   -0.299165
    23  C   -0.475446
    24  H    0.156236
    25  H    0.149238
    26  H    0.151398
    27  H    0.151918
    28  H    0.155267
    29  H    0.154433
    30  H    0.160144
    31  C   -0.297917
    32  C   -0.305080
    33  C   -0.475486
    34  H    0.148634
    35  H    0.149350
    36  H    0.159621
    37  H    0.151395
    38  H    0.154791
    39  H    0.154758
    40  H    0.160013
 Sum of Mulliken charges =  -0.00000

 Dipole moment (field-independent basis, Debye):
    X=             -0.0359    Y=             -0.0131    Z=              0.0255  Tot=              0.0459
 Quadrupole moment (field-independent basis, Debye-Ang):
   XX=            -85.3752   YY=            -85.1453   ZZ=            -84.4372
   XY=              1.2157   XZ=              0.5025   YZ=             -0.6903

 Normal termination of Gaussian 16 at Thu May  6 05:29:49 2021.
