 Gaussian 16, Revision A.03,
 Gaussian 16:  EM64L-G16RevA.03 25-Dec-2016

 -------------
 #p 6-31g* mp2
 -------------

 ------------------------------------------------------
 Input file generated by CHIRIPA (05-May-2021 14:51:08)
 ------------------------------------------------------
 Symbolic Z-matrix:
 Charge =  0 Multiplicity = 1

                         Standard orientation:
 ---------------------------------------------------------------------
 Center     Atomic      Atomic             Coordinates (Angstroms)
 Number     Number       Type             X           Y           Z
 ---------------------------------------------------------------------
      1          6           0       -3.011354   -0.190049   -0.046300
      2          6           0       -4.288839   -0.930930   -0.442676
      3          6           0       -4.144516   -2.450175   -0.348547
      4          1           0       -2.187040   -0.522207   -0.692150
      5          1           0       -2.736712   -0.470315    0.980061
      6          1           0       -4.561757   -0.648291   -1.467491
      7          1           0       -5.110250   -0.596829    0.204067
      8          1           0       -3.895428   -2.750847    0.674269
      9          1           0       -3.343818   -2.802601   -1.006787
     10          1           0       -5.069307   -2.959895   -0.636309
     11          6           0       -3.139950    1.329580   -0.135281
     12          6           0       -1.862465    2.070461    0.261095
     13          6           0       -2.006788    3.589706    0.166966
     14          1           0       -3.414593    1.609846   -1.161642
     15          1           0       -3.964264    1.661738    0.510569
     16          1           0       -1.041054    1.736360   -0.385648
     17          1           0       -1.589548    1.787822    1.285910
     18          1           0       -2.807486    3.942131    0.825206
     19          1           0       -2.255877    3.890378   -0.855850
     20          1           0       -1.081997    4.099426    0.454728
     21          6           0        3.529357    0.040456    0.018578
     22          6           0        4.980339   -0.317603   -0.304576
     23          6           0        5.875658    0.913737   -0.445993
     24          1           0        3.134806    0.693634   -0.771760
     25          1           0        3.501550    0.624002    0.949221
     26          1           0        5.005272   -0.901482   -1.233598
     27          1           0        5.371420   -0.970161    0.486524
     28          1           0        5.880538    1.495088    0.481697
     29          1           0        5.512309    1.564157   -1.248199
     30          1           0        6.908459    0.634759   -0.676975
     31          6           0        2.621947   -1.179986    0.163003
     32          6           0        1.170965   -0.821927    0.486158
     33          6           0        0.275646   -2.053269    0.627574
     34          1           0        2.649755   -1.763532   -0.767640
     35          1           0        3.016498   -1.833165    0.953340
     36          1           0        0.779883   -0.169370   -0.304943
     37          1           0        1.146032   -0.238049    1.415178
     38          1           0        0.638995   -2.703689    1.429779
     39          1           0        0.270766   -2.634619   -0.300116
     40          1           0       -0.757155   -1.774290    0.858556
 ---------------------------------------------------------------------

 SCF Done:  E(RHF) =  -470.732048595     A.U. after   11 cycles
 E2 =    -0.1584436730D+01 EUMP2 =    -0.47231648532509D+03

 The electronic state is 1-A.
 Alpha  occ. eigenvalues --  -11.21618 -11.21585 -11.21577 -11.21506 -11.21416
 Alpha  occ. eigenvalues --  -11.21360 -11.21357 -11.21297 -11.21073 -11.21067
 Alpha  occ. eigenvalues --  -11.21055 -11.20847  -1.08472  -1.08361  -1.03539
 Alpha  occ. eigenvalues --   -1.03463  -0.96013  -0.95891  -0.87043  -0.86897
 Alpha  occ. eigenvalues --   -0.79698  -0.79436  -0.78349  -0.78145  -0.65144
 Alpha  occ. eigenvalues --   -0.64957  -0.60942  -0.60860  -0.59441  -0.59245
 Alpha  occ. eigenvalues --   -0.57742  -0.57400  -0.55293  -0.55189  -0.52809
 Alpha  occ. eigenvalues --   -0.52640  -0.52456  -0.52161  -0.49951  -0.49843
 Alpha  occ. eigenvalues --   -0.48153  -0.47616  -0.46753  -0.46475  -0.45914
 Alpha  occ. eigenvalues --   -0.45751  -0.45674  -0.45450  -0.43796  -0.43644
 Alpha virt. eigenvalues --    0.21345   0.23217   0.23612   0.24136   0.25123
 Alpha virt. eigenvalues --    0.26278   0.27103   0.27647   0.27906   0.29630
 Alpha virt. eigenvalues --    0.30740   0.31180   0.31371   0.31780   0.32231

 Mulliken charges:
               1
     1  C   -0.304055
     2  C   -0.299076
     3  C   -0.476764
     4  H    0.155232
     5  H    0.150447
     6  H    0.151821
     7  H    0.151833
     8  H    0.155388
     9  H    0.156192
    10  H    0.160424
    11  C   -0.297486
    12  C   -0.302582
    13  C   -0.475692
    14  H    0.149248
    15  H    0.149487
    16  H    0.155468
    17  H    0.152245
    18  H    0.155063
    19  H    0.154923
    20  H    0.160491
    21  C   -0.298025
    22  C   -0.299569
    23  C   -0.475658
    24  H    0.149037
    25  H    0.149450
    26  H    0.151793
    27  H    0.151938
    28  H    0.155135
    29  H    0.155052
    30  H    0.160162
    31  C   -0.298011
    32  C   -0.302042
    33  C   -0.483545
    34  H    0.149024
    35  H    0.149576
    36  H    0.154030
    37  H    0.151666
    38  H    0.153618
    39  H    0.152866
    40  H    0.170897
 Sum of Mulliken charges =  -0.00000

 Dipole moment (field-independent basis, Debye):
    X=             -0.0596    Y=              0.0173    Z=             -0.0029  Tot=              0.0621
 Quadrupole moment (field-independent basis, Debye-Ang):
   XX=            -85.3235   YY=            -86.7694   ZZ=            -82.8184
   XY=             -0.5847   XZ=              0.0128   YZ=              0.1356

 Normal termination of Gaussian 16 at Thu May  6 08:26:22 2021.
