 Gaussian 16, Revision A.03,
 Gaussian 16:  EM64L-G16RevA.03 25-Dec-2016

 -------------
 #p 6-31g* mp2
 -------------

 ------------------------------------------------------
 Input file generated by CHIRIPA (05-May-2021 14:51:12)
 ------------------------------------------------------
 Symbolic Z-matrix:
 Charge =  0 Multiplicity = 1

                         Standard orientation:
 ---------------------------------------------------------------------
 Center     Atomic      Atomic             Coordinates (Angstroms)
 Number     Number       Type             X           Y           Z
 ---------------------------------------------------------------------
      1          6           0       -1.866197    1.154049   -0.403955
      2          6           0       -1.134836    2.328813    0.246448
      3          6           0        0.132871    2.727623   -0.509637
      4          1           0       -1.185842    0.293384   -0.461560
      5          1           0       -2.123428    1.418960   -1.438871
      6          1           0       -0.880284    2.062283    1.280267
      7          1           0       -1.817071    3.186723    0.302686
      8          1           0       -0.107160    3.019574   -1.537134
      9          1           0        0.834951    1.888745   -0.553999
     10          1           0        0.639893    3.569228   -0.027465
     11          6           0       -3.135548    0.743673    0.340402
     12          6           0       -3.866909   -0.431091   -0.310001
     13          6           0       -5.134616   -0.829901    0.446083
     14          1           0       -2.878318    0.478763    1.375317
     15          1           0       -3.815903    1.604338    0.398007
     16          1           0       -3.184674   -1.289000   -0.366239
     17          1           0       -4.121461   -0.164560   -1.343820
     18          1           0       -5.836696    0.008977    0.490446
     19          1           0       -4.894586   -1.121851    1.473581
     20          1           0       -5.641639   -1.671506   -0.036088
     21          6           0        2.045416   -1.406072   -0.376817
     22          6           0        0.851976   -1.939225    0.416551
     23          6           0       -0.049896   -2.852389   -0.414445
     24          1           0        1.678273   -0.859493   -1.256249
     25          1           0        2.631633   -2.253724   -0.757909
     26          1           0        0.268956   -1.090808    0.797198
     27          1           0        1.221999   -2.484437    1.294300
     28          1           0        0.511623   -3.717255   -0.782284
     29          1           0       -0.446836   -2.315709   -1.282209
     30          1           0       -0.896632   -3.222184    0.172196
     31          6           0        2.956329   -0.491650    0.440371
     32          6           0        4.149770    0.041502   -0.352998
     33          6           0        5.051641    0.954666    0.477999
     34          1           0        2.370113    0.356002    0.821463
     35          1           0        3.323472   -1.038231    1.319803
     36          1           0        3.779746    0.586713   -1.230747
     37          1           0        4.732790   -0.806914   -0.733645
     38          1           0        5.448581    0.417986    1.345763
     39          1           0        4.490122    1.819533    0.845837
     40          1           0        5.898377    1.324462   -0.108643
 ---------------------------------------------------------------------

 SCF Done:  E(RHF) =  -470.732824873     A.U. after   11 cycles
 E2 =    -0.1585067685D+01 EUMP2 =    -0.47231789255852D+03

 The electronic state is 1-A.
 Alpha  occ. eigenvalues --  -11.21674 -11.21657 -11.21617 -11.21575 -11.21458
 Alpha  occ. eigenvalues --  -11.21411 -11.21390 -11.21352 -11.21155 -11.21138
 Alpha  occ. eigenvalues --  -11.21068 -11.21060  -1.08529  -1.08415  -1.03584
 Alpha  occ. eigenvalues --   -1.03554  -0.96063  -0.95976  -0.87071  -0.86999
 Alpha  occ. eigenvalues --   -0.79661  -0.79602  -0.78317  -0.78254  -0.65526
 Alpha  occ. eigenvalues --   -0.64758  -0.61010  -0.60931  -0.59405  -0.59362
 Alpha  occ. eigenvalues --   -0.57640  -0.57618  -0.55569  -0.55059  -0.52733
 Alpha  occ. eigenvalues --   -0.52689  -0.52492  -0.52385  -0.50128  -0.49800
 Alpha  occ. eigenvalues --   -0.47991  -0.47909  -0.46761  -0.46596  -0.46030
 Alpha  occ. eigenvalues --   -0.45787  -0.45752  -0.45426  -0.43830  -0.43804
 Alpha virt. eigenvalues --    0.18789   0.21792   0.23592   0.24507   0.26169
 Alpha virt. eigenvalues --    0.26517   0.26873   0.27977   0.28525   0.30374
 Alpha virt. eigenvalues --    0.30574   0.31542   0.31777   0.31973   0.32123

 Mulliken charges:
               1
     1  C   -0.307410
     2  C   -0.299875
     3  C   -0.482040
     4  H    0.158897
     5  H    0.149560
     6  H    0.151684
     7  H    0.152662
     8  H    0.155589
     9  H    0.160434
    10  H    0.160427
    11  C   -0.297957
    12  C   -0.303424
    13  C   -0.475671
    14  H    0.149284
    15  H    0.149796
    16  H    0.156276
    17  H    0.151640
    18  H    0.155090
    19  H    0.155027
    20  H    0.160308
    21  C   -0.300697
    22  C   -0.304318
    23  C   -0.478659
    24  H    0.150866
    25  H    0.150439
    26  H    0.154204
    27  H    0.153219
    28  H    0.155982
    29  H    0.157351
    30  H    0.160798
    31  C   -0.301952
    32  C   -0.300283
    33  C   -0.475805
    34  H    0.152365
    35  H    0.150222
    36  H    0.152792
    37  H    0.152038
    38  H    0.155007
    39  H    0.155751
    40  H    0.160382
 Sum of Mulliken charges =  -0.00000

 Dipole moment (field-independent basis, Debye):
    X=              0.0206    Y=             -0.0218    Z=             -0.0110  Tot=              0.0320
 Quadrupole moment (field-independent basis, Debye-Ang):
   XX=            -85.6226   YY=            -84.2743   ZZ=            -84.7924
   XY=             -1.6911   XZ=              0.5308   YZ=             -0.7338

 Normal termination of Gaussian 16 at Wed May  5 19:53:10 2021.
