 Gaussian 16, Revision A.03,
 Gaussian 16:  EM64L-G16RevA.03 25-Dec-2016

 -------------
 #p 6-31g* mp2
 -------------

 ------------------------------------------------------
 Input file generated by CHIRIPA (05-May-2021 14:53:14)
 ------------------------------------------------------
 Symbolic Z-matrix:
 Charge =  0 Multiplicity = 1

                         Standard orientation:
 ---------------------------------------------------------------------
 Center     Atomic      Atomic             Coordinates (Angstroms)
 Number     Number       Type             X           Y           Z
 ---------------------------------------------------------------------
      1          6           0       -4.128425    0.642421   -0.072274
      2          6           0       -3.557483    2.058693   -0.150907
      3          6           0       -4.635259    3.137549   -0.040166
      4          1           0       -4.868264    0.507189   -0.873083
      5          1           0       -4.669917    0.525029    0.876621
      6          1           0       -3.016053    2.172937   -1.098756
      7          1           0       -2.818777    2.190506    0.650065
      8          1           0       -5.169501    3.052112    0.911615
      9          1           0       -5.367898    3.034444   -0.847142
     10          1           0       -4.205120    4.142241   -0.098781
     11          6           0       -3.063200   -0.447119   -0.181491
     12          6           0       -3.634142   -1.863391   -0.102858
     13          6           0       -2.556366   -2.942247   -0.213598
     14          1           0       -2.521708   -0.329728   -1.130385
     15          1           0       -2.323361   -0.311887    0.619318
     16          1           0       -4.372848   -1.995204   -0.903829
     17          1           0       -4.175572   -1.977636    0.844991
     18          1           0       -1.823727   -2.839142    0.593378
     19          1           0       -2.022124   -2.856811   -1.165379
     20          1           0       -2.986504   -3.946939   -0.154984
     21          6           0        1.244249   -2.001115    0.559355
     22          6           0        1.407709   -0.988949    1.510839
     23          6           0        2.272158    0.082305    1.266528
     24          6           0        2.960525    0.109795    0.054633
     25          6           0        2.818975   -0.883459   -0.913199
     26          6           0        1.949160   -1.945238   -0.647499
     27          1           0        0.570640   -2.829611    0.757449
     28          1           0        0.861555   -1.029737    2.448975
     29          1           0        2.417507    0.879296    1.985624
     30          1           0        3.377007   -0.815334   -1.839145
     31          1           0        1.824185   -2.729894   -1.388270
     32          7           0        3.878518    1.238869   -0.215329
     33          8           0        4.473489    1.239899   -1.290805
     34          8           0        3.985690    2.101427    0.653661
 ---------------------------------------------------------------------

 SCF Done:  E(RHF) =  -669.535391928     A.U. after   15 cycles
 E2 =    -0.2091484000D+01 EUMP2 =    -0.67162687592810D+03

 The electronic state is 1-A.
 Alpha  occ. eigenvalues --  -20.60740 -20.60735 -15.85794 -11.31151 -11.27735
 Alpha  occ. eigenvalues --  -11.27728 -11.27434 -11.26744 -11.26719 -11.22330
 Alpha  occ. eigenvalues --  -11.22109 -11.21939 -11.21892 -11.21779 -11.21285
 Alpha  occ. eigenvalues --   -1.59816  -1.39370  -1.19327  -1.08950  -1.08717
 Alpha  occ. eigenvalues --   -1.04733  -1.04079  -0.96552  -0.95554  -0.87576
 Alpha  occ. eigenvalues --   -0.86129  -0.82394  -0.80155  -0.78718  -0.77441
 Alpha  occ. eigenvalues --   -0.72012  -0.71139  -0.70449  -0.65582  -0.64979
 Alpha  occ. eigenvalues --   -0.64739  -0.62084  -0.61484  -0.59926  -0.58154
 Alpha  occ. eigenvalues --   -0.55934  -0.55186  -0.53240  -0.53090  -0.52905
 Alpha  occ. eigenvalues --   -0.52825  -0.50499  -0.48772  -0.48768  -0.48451
 Alpha  occ. eigenvalues --   -0.47175  -0.46271  -0.46172  -0.44777  -0.44310
 Alpha  occ. eigenvalues --   -0.37274  -0.36339
 Alpha virt. eigenvalues --    0.05083   0.11254   0.16518   0.20391   0.22547
 Alpha virt. eigenvalues --    0.23984   0.25624   0.26248   0.26979   0.27570
 Alpha virt. eigenvalues --    0.28930   0.30246   0.31115   0.31387   0.32087

 Mulliken charges:
               1
     1  C   -0.298927
     2  C   -0.299792
     3  C   -0.476143
     4  H    0.150731
     5  H    0.149285
     6  H    0.153909
     7  H    0.151778
     8  H    0.154888
     9  H    0.155598
    10  H    0.162563
    11  C   -0.298155
    12  C   -0.299780
    13  C   -0.477264
    14  H    0.151757
    15  H    0.147167
    16  H    0.155185
    17  H    0.153036
    18  H    0.145208
    19  H    0.155420
    20  H    0.162895
    21  C   -0.169494
    22  C   -0.220349
    23  C   -0.170616
    24  C    0.158362
    25  C   -0.170818
    26  C   -0.220321
    27  H    0.230099
    28  H    0.222536
    29  H    0.275386
    30  H    0.275400
    31  H    0.223576
    32  N    0.488108
    33  O   -0.460603
    34  O   -0.460626
 Sum of Mulliken charges =  -0.00000

 Dipole moment (field-independent basis, Debye):
    X=             -3.3586    Y=             -3.9267    Z=              0.8894  Tot=              5.2431
 Quadrupole moment (field-independent basis, Debye-Ang):
   XX=           -114.5673   YY=            -96.2283   ZZ=            -89.8149
   XY=            -12.2116   XZ=              1.7870   YZ=              1.9494

 Normal termination of Gaussian 16 at Wed May  5 21:53:13 2021.
