 Gaussian 16, Revision A.03,
 Gaussian 16:  EM64L-G16RevA.03 25-Dec-2016

 -------------
 #p 6-31g* mp2
 -------------

 ------------------------------------------------------
 Input file generated by CHIRIPA (05-May-2021 14:53:16)
 ------------------------------------------------------
 Symbolic Z-matrix:
 Charge =  0 Multiplicity = 1

                         Standard orientation:
 ---------------------------------------------------------------------
 Center     Atomic      Atomic             Coordinates (Angstroms)
 Number     Number       Type             X           Y           Z
 ---------------------------------------------------------------------
      1          6           0        2.593390    0.681781    0.436651
      2          6           0        3.179984    2.091620    0.357599
      3          6           0        2.241311    3.155292    0.927941
      4          1           0        1.637908    0.658160   -0.105051
      5          1           0        2.364223    0.445779    1.485070
      6          1           0        3.409260    2.324366   -0.690198
      7          1           0        4.134274    2.111840    0.899389
      8          1           0        2.021457    2.950535    1.980718
      9          1           0        1.292324    3.164268    0.382099
     10          1           0        2.680441    4.155590    0.861391
     11          6           0        3.520086   -0.392582   -0.129658
     12          6           0        2.933492   -1.802420   -0.050605
     13          6           0        3.872164   -2.866092   -0.620947
     14          1           0        3.749252   -0.156579   -1.178076
     15          1           0        4.475568   -0.368960    0.412044
     16          1           0        1.979202   -1.822640   -0.592396
     17          1           0        2.704216   -2.035166    0.997191
     18          1           0        4.821152   -2.875069   -0.075105
     19          1           0        4.092018   -2.661335   -1.673724
     20          1           0        3.433034   -3.866390   -0.554398
     21          6           0       -2.624545   -2.514714    0.616033
     22          6           0       -3.680733   -1.617388    0.805226
     23          6           0       -3.560826   -0.284329    0.401343
     24          6           0       -2.365216    0.119223   -0.191069
     25          6           0       -1.295005   -0.750881   -0.393201
     26          6           0       -1.437144   -2.079364    0.018477
     27          1           0       -2.726327   -3.548489    0.932807
     28          1           0       -4.604046   -1.952694    1.269023
     29          1           0       -4.362694    0.431459    0.535778
     30          1           0       -0.386855   -0.387202   -0.858411
     31          1           0       -0.615238   -2.774026   -0.129713
     32          7           0       -2.226507    1.528051   -0.622767
     33          8           0       -1.162826    1.858733   -1.142258
     34          8           0       -3.184094    2.274932   -0.433469
 ---------------------------------------------------------------------

 SCF Done:  E(RHF) =  -669.535928466     A.U. after   15 cycles
 E2 =    -0.2093029145D+01 EUMP2 =    -0.67162895761147D+03

 The electronic state is 1-A.
 Alpha  occ. eigenvalues --  -20.60916 -20.60908 -15.85937 -11.31212 -11.27776
 Alpha  occ. eigenvalues --  -11.27748 -11.27504 -11.26780 -11.26744 -11.22208
 Alpha  occ. eigenvalues --  -11.21560 -11.21556 -11.21293 -11.21193 -11.20291
 Alpha  occ. eigenvalues --   -1.59966  -1.39525  -1.19378  -1.08791  -1.08507
 Alpha  occ. eigenvalues --   -1.04769  -1.03515  -0.95930  -0.95642  -0.86953
 Alpha  occ. eigenvalues --   -0.86173  -0.82479  -0.79679  -0.78294  -0.77496
 Alpha  occ. eigenvalues --   -0.72162  -0.71271  -0.70504  -0.65182  -0.65035
 Alpha  occ. eigenvalues --   -0.64756  -0.62118  -0.60898  -0.59398  -0.57538
 Alpha  occ. eigenvalues --   -0.55303  -0.55171  -0.53104  -0.52890  -0.52651
 Alpha  occ. eigenvalues --   -0.52317  -0.49881  -0.48925  -0.48905  -0.47947
 Alpha  occ. eigenvalues --   -0.46731  -0.45799  -0.45666  -0.44840  -0.43776
 Alpha  occ. eigenvalues --   -0.37357  -0.36354
 Alpha virt. eigenvalues --    0.04942   0.11245   0.16433   0.19516   0.23114
 Alpha virt. eigenvalues --    0.24041   0.24849   0.26767   0.27366   0.28336
 Alpha virt. eigenvalues --    0.29375   0.31108   0.31461   0.31766   0.32599

 Mulliken charges:
               1
     1  C   -0.307011
     2  C   -0.297593
     3  C   -0.484053
     4  H    0.156528
     5  H    0.147872
     6  H    0.153832
     7  H    0.148776
     8  H    0.150163
     9  H    0.176555
    10  H    0.158739
    11  C   -0.298351
    12  C   -0.301851
    13  C   -0.475263
    14  H    0.151920
    15  H    0.151514
    16  H    0.140179
    17  H    0.152524
    18  H    0.158632
    19  H    0.157803
    20  H    0.156729
    21  C   -0.170571
    22  C   -0.218722
    23  C   -0.170470
    24  C    0.157181
    25  C   -0.173078
    26  C   -0.222095
    27  H    0.225767
    28  H    0.223477
    29  H    0.275485
    30  H    0.282030
    31  H    0.226578
    32  N    0.489091
    33  O   -0.463804
    34  O   -0.458512
 Sum of Mulliken charges =  -0.00000

 Dipole moment (field-independent basis, Debye):
    X=             -0.5243    Y=             -4.8469    Z=              1.4936  Tot=              5.0989
 Quadrupole moment (field-independent basis, Debye-Ang):
   XX=            -88.1288   YY=            -96.9999   ZZ=            -95.0016
   XY=             11.2015   XZ=             -4.9167   YZ=              0.8032

 Normal termination of Gaussian 16 at Wed May  5 20:20:35 2021.
