 Gaussian 16, Revision A.03,
 Gaussian 16:  EM64L-G16RevA.03 25-Dec-2016

 -------------
 #p 6-31g* mp2
 -------------

 ------------------------------------------------------
 Input file generated by CHIRIPA (05-May-2021 14:57:21)
 ------------------------------------------------------
 Symbolic Z-matrix:
 Charge =  0 Multiplicity = 1

                         Standard orientation:
 ---------------------------------------------------------------------
 Center     Atomic      Atomic             Coordinates (Angstroms)
 Number     Number       Type             X           Y           Z
 ---------------------------------------------------------------------
      1          6           0       -2.661979   -2.165877    0.114515
      2          6           0       -2.535293   -1.393121    1.273532
      3          6           0       -2.438119   -0.000864    1.191520
      4          6           0       -2.471184    0.588265   -0.071462
      5          6           0       -2.596509   -0.154387   -1.244513
      6          6           0       -2.692130   -1.545138   -1.138600
      7          1           0       -2.736863   -3.246830    0.187507
      8          1           0       -2.511598   -1.872483    2.248055
      9          1           0       -2.339253    0.621433    2.072650
     10          1           0       -2.617182    0.352046   -2.201862
     11          1           0       -2.790433   -2.142749   -2.040399
     12          7           0       -2.369132    2.061388   -0.170936
     13          8           0       -2.400752    2.556281   -1.295533
     14          8           0       -2.259457    2.693234    0.877577
     15          6           0        3.978371    1.689727    0.003401
     16          6           0        3.897095    0.853061   -1.114591
     17          6           0        3.074597   -0.277310   -1.097184
     18          6           0        2.343920   -0.542233    0.060062
     19          6           0        2.403593    0.272123    1.189909
     20          6           0        3.232675    1.397104    1.150061
     21          1           0        4.619866    2.565733   -0.018838
     22          1           0        4.475077    1.077854   -2.006472
     23          1           0        2.992877   -0.942002   -1.948609
     24          1           0        1.815465    0.022090    2.064556
     25          1           0        3.293825    2.045091    2.019784
     26          7           0        1.469692   -1.736054    0.090369
     27          8           0        0.836068   -1.947543    1.122081
     28          8           0        1.434650   -2.437675   -0.918163
 ---------------------------------------------------------------------

 SCF Done:  E(RHF) =  -868.339491825     A.U. after   16 cycles
 E2 =    -0.2600604304D+01 EUMP2 =    -0.87094009612964D+03

 The electronic state is 1-A.
 Alpha  occ. eigenvalues --  -20.61092 -20.61051 -20.60294 -20.60284 -15.86092
 Alpha  occ. eigenvalues --  -15.85333 -11.31234 -11.30356 -11.27776 -11.27771
 Alpha  occ. eigenvalues --  -11.27450 -11.26872 -11.26846 -11.26736 -11.26711
 Alpha  occ. eigenvalues --  -11.26426 -11.25787 -11.25739  -1.60130  -1.59376
 Alpha  occ. eigenvalues --   -1.39696  -1.38939  -1.19376  -1.18463  -1.08812
 Alpha  occ. eigenvalues --   -1.07894  -1.04746  -1.03816  -0.95693  -0.94803
 Alpha  occ. eigenvalues --   -0.86157  -0.85223  -0.82540  -0.81662  -0.77616
 Alpha  occ. eigenvalues --   -0.76775  -0.72355  -0.71561  -0.71439  -0.70696
 Alpha  occ. eigenvalues --   -0.70486  -0.69540  -0.65036  -0.64750  -0.64107
 Alpha  occ. eigenvalues --   -0.63814  -0.62107  -0.61201  -0.55252  -0.54271
 Alpha  occ. eigenvalues --   -0.53084  -0.52841  -0.52151  -0.51915  -0.49113
 Alpha  occ. eigenvalues --   -0.49067  -0.48333  -0.48281  -0.45157  -0.44423
 Alpha  occ. eigenvalues --   -0.37354  -0.36359  -0.36265  -0.35345
 Alpha virt. eigenvalues --    0.04907   0.05749   0.11310   0.12303   0.16456
 Alpha virt. eigenvalues --    0.17391   0.21456   0.22383   0.27348   0.28094
 Alpha virt. eigenvalues --    0.28446   0.29253   0.31042   0.31962   0.32458

 Mulliken charges:
               1
     1  C   -0.160155
     2  C   -0.201039
     3  C   -0.175647
     4  C    0.154610
     5  C   -0.175579
     6  C   -0.216012
     7  H    0.227921
     8  H    0.223240
     9  H    0.269122
    10  H    0.271148
    11  H    0.222697
    12  N    0.488335
    13  O   -0.463670
    14  O   -0.465677
    15  C   -0.169142
    16  C   -0.217674
    17  C   -0.170785
    18  C    0.158422
    19  C   -0.169767
    20  C   -0.216340
    21  H    0.227394
    22  H    0.224048
    23  H    0.274023
    24  H    0.272822
    25  H    0.225704
    26  N    0.490040
    27  O   -0.464234
    28  O   -0.463807
 Sum of Mulliken charges =  -0.00000

 Dipole moment (field-independent basis, Debye):
    X=              2.8830    Y=             -1.2280    Z=              0.3170  Tot=              3.1496
 Quadrupole moment (field-independent basis, Debye-Ang):
   XX=            -89.6444   YY=           -116.3249   ZZ=            -95.7138
   XY=             22.0309   XZ=             -2.2036   YZ=              2.3838

 Normal termination of Gaussian 16 at Thu May  6 21:04:32 2021.
