 Gaussian 16, Revision A.03,
 Gaussian 16:  EM64L-G16RevA.03 25-Dec-2016

 -------------
 #p 6-31g* mp2
 -------------

 ------------------------------------------------------
 Input file generated by CHIRIPA (05-May-2021 14:51:08)
 ------------------------------------------------------
 Symbolic Z-matrix:
 Charge =  0 Multiplicity = 1

                         Standard orientation:
 ---------------------------------------------------------------------
 Center     Atomic      Atomic             Coordinates (Angstroms)
 Number     Number       Type             X           Y           Z
 ---------------------------------------------------------------------
      1          6           0       -3.323616   -0.184848   -0.338455
      2          6           0       -4.802961   -0.004732    0.003718
      3          6           0       -5.489865    1.041174   -0.874938
      4          1           0       -2.809196    0.780086   -0.232531
      5          1           0       -3.231281   -0.474016   -1.394509
      6          1           0       -4.892557    0.282663    1.059176
      7          1           0       -5.313880   -0.970248   -0.102847
      8          1           0       -5.430059    0.756859   -1.930490
      9          1           0       -5.006342    2.016890   -0.761864
     10          1           0       -6.546605    1.153858   -0.613286
     11          6           0       -2.623154   -1.227160    0.531410
     12          6           0       -1.143810   -1.407276    0.189237
     13          6           0       -0.456906   -2.453182    1.067893
     14          1           0       -2.715490   -0.937992    1.587465
     15          1           0       -3.137574   -2.192094    0.425487
     16          1           0       -0.632890   -0.441760    0.295803
     17          1           0       -1.054213   -1.694672   -0.866221
     18          1           0       -0.940428   -3.428898    0.954819
     19          1           0       -0.516711   -2.168867    2.123445
     20          1           0        0.599835   -2.565866    0.806241
     21          6           0        2.910884    1.379402    0.258574
     22          6           0        1.607370    2.113224   -0.058192
     23          6           0        1.497010    3.458771    0.659526
     24          1           0        2.982715    1.224670    1.343859
     25          1           0        3.760266    2.017038   -0.023141
     26          1           0        0.760694    1.473831    0.222755
     27          1           0        1.538543    2.266057   -1.142869
     28          1           0        2.322325    4.117897    0.371414
     29          1           0        1.540057    3.321169    1.744798
     30          1           0        0.557653    3.966278    0.418891
     31          6           0        3.035887    0.032607   -0.451529
     32          6           0        4.339401   -0.701216   -0.134763
     33          6           0        4.449760   -2.046762   -0.852481
     34          1           0        2.186503   -0.605030   -0.169815
     35          1           0        2.964056    0.187339   -1.536814
     36          1           0        4.408228   -0.854049    0.949913
     37          1           0        5.186077   -0.061824   -0.415712
     38          1           0        4.406713   -1.909161   -1.937753
     39          1           0        3.624445   -2.705889   -0.564370
     40          1           0        5.389117   -2.554271   -0.611847
 ---------------------------------------------------------------------

 SCF Done:  E(RHF) =  -470.733107992     A.U. after   11 cycles
 E2 =    -0.1583798998D+01 EUMP2 =    -0.47231690699060D+03

 The electronic state is 1-A.
 Alpha  occ. eigenvalues --  -11.21625 -11.21613 -11.21608 -11.21597 -11.21428
 Alpha  occ. eigenvalues --  -11.21398 -11.21367 -11.21333 -11.21144 -11.21095
 Alpha  occ. eigenvalues --  -11.21081 -11.21078  -1.08472  -1.08419  -1.03565
 Alpha  occ. eigenvalues --   -1.03538  -0.96020  -0.95980  -0.87038  -0.86995
 Alpha  occ. eigenvalues --   -0.79678  -0.79559  -0.78358  -0.78155  -0.65208
 Alpha  occ. eigenvalues --   -0.64972  -0.61048  -0.60860  -0.59389  -0.59354
 Alpha  occ. eigenvalues --   -0.57669  -0.57559  -0.55313  -0.55258  -0.52724
 Alpha  occ. eigenvalues --   -0.52676  -0.52478  -0.52376  -0.50001  -0.49894
 Alpha  occ. eigenvalues --   -0.48105  -0.47818  -0.46889  -0.46501  -0.46024
 Alpha  occ. eigenvalues --   -0.45767  -0.45747  -0.45274  -0.43813  -0.43786
 Alpha virt. eigenvalues --    0.20163   0.22556   0.23583   0.24201   0.25750
 Alpha virt. eigenvalues --    0.26680   0.26981   0.27413   0.27621   0.29493
 Alpha virt. eigenvalues --    0.30030   0.31452   0.31716   0.31879   0.32495

 Mulliken charges:
               1
     1  C   -0.298505
     2  C   -0.299685
     3  C   -0.475719
     4  H    0.149652
     5  H    0.149780
     6  H    0.151920
     7  H    0.152007
     8  H    0.155236
     9  H    0.155234
    10  H    0.160287
    11  C   -0.297710
    12  C   -0.309474
    13  C   -0.478674
    14  H    0.149267
    15  H    0.149827
    16  H    0.160914
    17  H    0.152752
    18  H    0.155967
    19  H    0.155115
    20  H    0.161570
    21  C   -0.297500
    22  C   -0.308021
    23  C   -0.475127
    24  H    0.149333
    25  H    0.149630
    26  H    0.158996
    27  H    0.152302
    28  H    0.155451
    29  H    0.154951
    30  H    0.159901
    31  C   -0.305558
    32  C   -0.299438
    33  C   -0.476296
    34  H    0.157228
    35  H    0.149635
    36  H    0.151936
    37  H    0.152001
    38  H    0.155329
    39  H    0.155055
    40  H    0.160431
 Sum of Mulliken charges =  -0.00000

 Dipole moment (field-independent basis, Debye):
    X=             -0.0119    Y=             -0.0019    Z=             -0.0114  Tot=              0.0166
 Quadrupole moment (field-independent basis, Debye-Ang):
   XX=            -84.9906   YY=            -85.5894   ZZ=            -84.1927
   XY=              1.0967   XZ=             -0.4451   YZ=              0.0891

 Normal termination of Gaussian 16 at Thu May  6 03:42:01 2021.
