 Gaussian 16, Revision A.03,
 Gaussian 16:  EM64L-G16RevA.03 25-Dec-2016

 -------------
 #p 6-31g* mp2
 -------------

 ------------------------------------------------------
 Input file generated by CHIRIPA (05-May-2021 14:55:24)
 ------------------------------------------------------
 Symbolic Z-matrix:
 Charge =  0 Multiplicity = 1

                         Standard orientation:
 ---------------------------------------------------------------------
 Center     Atomic      Atomic             Coordinates (Angstroms)
 Number     Number       Type             X           Y           Z
 ---------------------------------------------------------------------
      1          6           0       -0.676228    0.213636    0.886382
      2          6           0       -0.976416   -0.890010    0.081165
      3          6           0       -2.290447   -1.132444   -0.330046
      4          6           0       -3.284085   -0.246843    0.084303
      5          6           0       -3.016677    0.861426    0.886502
      6          6           0       -1.695519    1.084296    1.285777
      7          1           0        0.347311    0.394366    1.201184
      8          1           0       -0.186847   -1.567854   -0.230529
      9          1           0       -2.550793   -1.979191   -0.953470
     10          1           0       -3.825109    1.519455    1.181210
     11          1           0       -1.465319    1.942204    1.911114
     12          7           0       -4.678963   -0.493141   -0.344710
     13          8           0       -5.536333    0.302001    0.033845
     14          8           0       -4.888487   -1.476668   -1.051400
     15          6           0        4.268437   -0.211815    0.279187
     16          6           0        4.806440   -1.467909   -0.406934
     17          6           0        5.522191   -2.409982    0.561567
     18          1           0        5.100109    0.319200    0.762188
     19          1           0        3.578491   -0.507722    1.081564
     20          1           0        5.494101   -1.169682   -1.208683
     21          1           0        3.973420   -1.995894   -0.888520
     22          1           0        4.842140   -2.736013    1.355187
     23          1           0        6.371460   -1.905107    1.033206
     24          1           0        5.898766   -3.301290    0.050079
     25          6           0        3.550295    0.739814   -0.676011
     26          6           0        3.012292    1.995908    0.010111
     27          6           0        2.296540    2.937981   -0.958390
     28          1           0        4.240240    1.035721   -1.478388
     29          1           0        2.718623    0.208799   -1.159013
     30          1           0        3.845311    2.523893    0.491697
     31          1           0        2.324631    1.697681    0.811858
     32          1           0        1.447271    2.433105   -1.430031
     33          1           0        2.976592    3.264012   -1.752012
     34          1           0        1.919965    3.829289   -0.446902
 ---------------------------------------------------------------------

 SCF Done:  E(RHF) =  -669.535496849     A.U. after   15 cycles
 E2 =    -0.2091636596D+01 EUMP2 =    -0.67162713344563D+03

 The electronic state is 1-A.
 Alpha  occ. eigenvalues --  -20.60768 -20.60763 -15.85822 -11.31197 -11.27768
 Alpha  occ. eigenvalues --  -11.27761 -11.27492 -11.26790 -11.26774 -11.22705
 Alpha  occ. eigenvalues --  -11.22440 -11.22398 -11.22331 -11.21908 -11.21770
 Alpha  occ. eigenvalues --   -1.59844  -1.39397  -1.19370  -1.09403  -1.08762
 Alpha  occ. eigenvalues --   -1.04774  -1.04428  -0.96846  -0.95597  -0.87857
 Alpha  occ. eigenvalues --   -0.86170  -0.82432  -0.80500  -0.79211  -0.77474
 Alpha  occ. eigenvalues --   -0.72040  -0.71167  -0.70512  -0.66054  -0.65021
 Alpha  occ. eigenvalues --   -0.64770  -0.62121  -0.61841  -0.60219  -0.58461
 Alpha  occ. eigenvalues --   -0.56138  -0.55276  -0.53519  -0.53256  -0.53097
 Alpha  occ. eigenvalues --   -0.52866  -0.50783  -0.48822  -0.48795  -0.48775
 Alpha  occ. eigenvalues --   -0.47551  -0.46731  -0.46688  -0.44800  -0.44694
 Alpha  occ. eigenvalues --   -0.37343  -0.36379
 Alpha virt. eigenvalues --    0.05041   0.11253   0.16437   0.18445   0.22899
 Alpha virt. eigenvalues --    0.23645   0.24962   0.25361   0.26864   0.28019
 Alpha virt. eigenvalues --    0.29723   0.30294   0.30908   0.31071   0.32071

 Mulliken charges:
               1
     1  C   -0.175063
     2  C   -0.221155
     3  C   -0.170702
     4  C    0.158515
     5  C   -0.170782
     6  C   -0.220268
     7  H    0.233788
     8  H    0.223477
     9  H    0.275617
    10  H    0.275710
    11  H    0.223721
    12  N    0.488017
    13  O   -0.460336
    14  O   -0.460404
    15  C   -0.298362
    16  C   -0.299588
    17  C   -0.476140
    18  H    0.153453
    19  H    0.142583
    20  H    0.155231
    21  H    0.149318
    22  H    0.154486
    23  H    0.157154
    24  H    0.162997
    25  C   -0.300028
    26  C   -0.301534
    27  C   -0.477490
    28  H    0.155042
    29  H    0.146555
    30  H    0.156804
    31  H    0.140569
    32  H    0.158394
    33  H    0.159364
    34  H    0.161056
 Sum of Mulliken charges =  -0.00000

 Dipole moment (field-independent basis, Debye):
    X=              5.1091    Y=              0.9210    Z=              1.4280  Tot=              5.3843
 Quadrupole moment (field-independent basis, Debye-Ang):
   XX=           -125.6774   YY=            -92.2157   ZZ=            -94.1679
   XY=             -4.5659   XZ=             -6.1755   YZ=              2.3144

 Normal termination of Gaussian 16 at Wed May  5 23:59:59 2021.
