 Gaussian 16, Revision A.03,
 Gaussian 16:  EM64L-G16RevA.03 25-Dec-2016

 -------------
 #p 6-31g* mp2
 -------------

 ------------------------------------------------------
 Input file generated by CHIRIPA (05-May-2021 14:53:14)
 ------------------------------------------------------
 Symbolic Z-matrix:
 Charge =  0 Multiplicity = 1

                         Standard orientation:
 ---------------------------------------------------------------------
 Center     Atomic      Atomic             Coordinates (Angstroms)
 Number     Number       Type             X           Y           Z
 ---------------------------------------------------------------------
      1          6           0       -2.925734   -0.308073   -0.117145
      2          6           0       -4.278114   -1.014694   -0.018440
      3          6           0       -4.146449   -2.536531    0.048407
      4          1           0       -2.393688   -0.670956   -1.007194
      5          1           0       -2.310486   -0.586081    0.749791
      6          1           0       -4.891143   -0.734350   -0.884592
      7          1           0       -4.807084   -0.649946    0.871372
      8          1           0       -3.556828   -2.834213    0.921524
      9          1           0       -3.641365   -2.919096   -0.844417
     10          1           0       -5.125108   -3.021470    0.118565
     11          6           0       -3.040865    1.213734   -0.184782
     12          6           0       -1.688485    1.920354   -0.283486
     13          6           0       -1.820150    3.442192   -0.350333
     14          1           0       -3.656112    1.491741   -1.051717
     15          1           0       -3.572911    1.576617    0.705268
     16          1           0       -1.159515    1.555606   -1.173298
     17          1           0       -1.075456    1.640010    0.582666
     18          1           0       -2.325234    3.824756    0.542491
     19          1           0       -2.409771    3.739873   -1.223450
     20          1           0       -0.841491    3.927131   -0.420491
     21          6           0        2.707099    2.131601    0.335113
     22          6           0        3.532560    1.368719   -0.497441
     23          6           0        3.333220   -0.009117   -0.625425
     24          6           0        2.294314   -0.594050    0.096944
     25          6           0        1.455013    0.139022    0.934482
     26          6           0        1.672783    1.515404    1.047161
     27          1           0        2.869110    3.201372    0.428589
     28          1           0        4.336600    1.844583   -1.051623
     29          1           0        3.957376   -0.623545   -1.262861
     30          1           0        0.661685   -0.363605    1.474310
     31          1           0        1.030158    2.105370    1.694477
     32          7           0        2.073526   -2.051934   -0.030446
     33          8           0        1.151345   -2.543401    0.616608
     34          8           0        2.826834   -2.675551   -0.774936
 ---------------------------------------------------------------------

 SCF Done:  E(RHF) =  -669.533931902     A.U. after   15 cycles
 E2 =    -0.2093632164D+01 EUMP2 =    -0.67162756406679D+03

 The electronic state is 1-A.
 Alpha  occ. eigenvalues --  -20.60766 -20.60760 -15.85817 -11.31182 -11.27740
 Alpha  occ. eigenvalues --  -11.27733 -11.27483 -11.26766 -11.26748 -11.21962
 Alpha  occ. eigenvalues --  -11.21615 -11.21569 -11.21481 -11.21366 -11.20712
 Alpha  occ. eigenvalues --   -1.59839  -1.39393  -1.19357  -1.08754  -1.08557
 Alpha  occ. eigenvalues --   -1.04776  -1.03640  -0.96086  -0.95586  -0.87099
 Alpha  occ. eigenvalues --   -0.86160  -0.82443  -0.79747  -0.78350  -0.77443
 Alpha  occ. eigenvalues --   -0.72036  -0.71161  -0.70464  -0.65260  -0.64993
 Alpha  occ. eigenvalues --   -0.64772  -0.62157  -0.61015  -0.59507  -0.57689
 Alpha  occ. eigenvalues --   -0.55370  -0.55259  -0.53140  -0.52861  -0.52767
 Alpha  occ. eigenvalues --   -0.52485  -0.50019  -0.48796  -0.48791  -0.48023
 Alpha  occ. eigenvalues --   -0.46782  -0.45869  -0.45778  -0.44791  -0.43897
 Alpha  occ. eigenvalues --   -0.37335  -0.36244
 Alpha virt. eigenvalues --    0.05052   0.11201   0.16464   0.20087   0.23080
 Alpha virt. eigenvalues --    0.23960   0.25038   0.26905   0.27124   0.28623
 Alpha virt. eigenvalues --    0.29279   0.30494   0.31356   0.31465   0.32364

 Mulliken charges:
               1
     1  C   -0.298710
     2  C   -0.300151
     3  C   -0.475959
     4  H    0.153822
     5  H    0.148258
     6  H    0.151275
     7  H    0.150113
     8  H    0.159532
     9  H    0.158911
    10  H    0.158851
    11  C   -0.298577
    12  C   -0.297793
    13  C   -0.476754
    14  H    0.150574
    15  H    0.148007
    16  H    0.156075
    17  H    0.142830
    18  H    0.154226
    19  H    0.159024
    20  H    0.153788
    21  C   -0.173113
    22  C   -0.218571
    23  C   -0.171595
    24  C    0.156808
    25  C   -0.167463
    26  C   -0.215309
    27  H    0.225497
    28  H    0.223344
    29  H    0.275407
    30  H    0.276329
    31  H    0.224267
    32  N    0.488028
    33  O   -0.460441
    34  O   -0.460530
 Sum of Mulliken charges =  -0.00000

 Dipole moment (field-independent basis, Debye):
    X=              0.7565    Y=              5.0249    Z=              0.3806  Tot=              5.0958
 Quadrupole moment (field-independent basis, Debye-Ang):
   XX=            -88.6333   YY=           -102.8492   ZZ=            -92.0824
   XY=             11.3920   XZ=             -1.5327   YZ=              0.5041

 Normal termination of Gaussian 16 at Thu May  6 04:11:58 2021.
