 Gaussian 16, Revision A.03,
 Gaussian 16:  EM64L-G16RevA.03 25-Dec-2016

 -------------
 #p 6-31g* mp2
 -------------

 ------------------------------------------------------
 Input file generated by CHIRIPA (05-May-2021 14:55:20)
 ------------------------------------------------------
 Symbolic Z-matrix:
 Charge =  0 Multiplicity = 1

                         Standard orientation:
 ---------------------------------------------------------------------
 Center     Atomic      Atomic             Coordinates (Angstroms)
 Number     Number       Type             X           Y           Z
 ---------------------------------------------------------------------
      1          6           0        1.673149    1.783233    0.271615
      2          6           0        1.398477    0.529397    0.827468
      3          6           0        2.323325   -0.513398    0.718928
      4          6           0        3.518202   -0.266305    0.044758
      5          6           0        3.820892    0.971855   -0.519714
      6          6           0        2.881349    2.000077   -0.399020
      7          1           0        0.948997    2.587641    0.360652
      8          1           0        0.460994    0.358122    1.348847
      9          1           0        2.136296   -1.493841    1.139844
     10          1           0        4.764078    1.112335   -1.033603
     11          1           0        3.097348    2.972799   -0.831689
     12          7           0        4.505075   -1.362553   -0.076582
     13          8           0        5.550453   -1.119319   -0.675463
     14          8           0        4.214521   -2.444267    0.429490
     15          6           0       -3.635364    0.455214   -0.252375
     16          6           0       -3.545665    1.885525    0.280680
     17          6           0       -2.220000    2.563706   -0.066420
     18          1           0       -2.802605   -0.134122    0.155230
     19          1           0       -3.504051    0.468968   -1.343229
     20          1           0       -3.678488    1.869223    1.370041
     21          1           0       -4.378843    2.471474   -0.128091
     22          1           0       -2.083217    2.609411   -1.151686
     23          1           0       -1.378882    2.003739    0.354957
     24          1           0       -2.177245    3.585188    0.324230
     25          6           0       -4.954852   -0.236000    0.086598
     26          6           0       -5.044551   -1.666312   -0.446456
     27          6           0       -6.370216   -2.344492   -0.099356
     28          1           0       -5.086165   -0.249754    1.177453
     29          1           0       -5.787611    0.353336   -0.321007
     30          1           0       -4.211372   -2.252260   -0.037686
     31          1           0       -4.911727   -1.650010   -1.535817
     32          1           0       -7.211333   -1.784525   -0.520733
     33          1           0       -6.506999   -2.390197    0.985910
     34          1           0       -6.412971   -3.365974   -0.490006
 ---------------------------------------------------------------------

 SCF Done:  E(RHF) =  -669.535104444     A.U. after   15 cycles
 E2 =    -0.2091547359D+01 EUMP2 =    -0.67162665180283D+03

 The electronic state is 1-A.
 Alpha  occ. eigenvalues --  -20.60727 -20.60721 -15.85781 -11.31135 -11.27719
 Alpha  occ. eigenvalues --  -11.27709 -11.27396 -11.26721 -11.26698 -11.22527
 Alpha  occ. eigenvalues --  -11.22304 -11.22161 -11.22068 -11.21959 -11.21440
 Alpha  occ. eigenvalues --   -1.59803  -1.39357  -1.19310  -1.09142  -1.08701
 Alpha  occ. eigenvalues --   -1.04718  -1.04264  -0.96743  -0.95537  -0.87769
 Alpha  occ. eigenvalues --   -0.86115  -0.82375  -0.80346  -0.78909  -0.77428
 Alpha  occ. eigenvalues --   -0.72000  -0.71126  -0.70425  -0.65788  -0.64965
 Alpha  occ. eigenvalues --   -0.64738  -0.62098  -0.61635  -0.60120  -0.58319
 Alpha  occ. eigenvalues --   -0.56085  -0.55193  -0.53420  -0.53190  -0.52985
 Alpha  occ. eigenvalues --   -0.52808  -0.50676  -0.48758  -0.48756  -0.48638
 Alpha  occ. eigenvalues --   -0.47360  -0.46461  -0.46357  -0.44765  -0.44503
 Alpha  occ. eigenvalues --   -0.37266  -0.36323
 Alpha virt. eigenvalues --    0.05110   0.11270   0.16591   0.19795   0.22404
 Alpha virt. eigenvalues --    0.23727   0.25252   0.26138   0.26603   0.27908
 Alpha virt. eigenvalues --    0.29038   0.29686   0.30904   0.31292   0.31681

 Mulliken charges:
               1
     1  C   -0.172214
     2  C   -0.220935
     3  C   -0.170933
     4  C    0.158060
     5  C   -0.170722
     6  C   -0.219628
     7  H    0.231765
     8  H    0.223125
     9  H    0.275296
    10  H    0.275406
    11  H    0.223437
    12  N    0.488128
    13  O   -0.460557
    14  O   -0.460675
    15  C   -0.298026
    16  C   -0.300373
    17  C   -0.481271
    18  H    0.145601
    19  H    0.152384
    20  H    0.152838
    21  H    0.156171
    22  H    0.160429
    23  H    0.146448
    24  H    0.161176
    25  C   -0.298968
    26  C   -0.300111
    27  C   -0.476151
    28  H    0.149878
    29  H    0.151325
    30  H    0.152073
    31  H    0.153336
    32  H    0.155847
    33  H    0.155550
    34  H    0.162289
 Sum of Mulliken charges =  -0.00000

 Dipole moment (field-independent basis, Debye):
    X=             -3.6934    Y=              3.8690    Z=              0.3606  Tot=              5.3610
 Quadrupole moment (field-independent basis, Debye-Ang):
   XX=           -117.6419   YY=            -95.5301   ZZ=            -93.3568
   XY=             16.0898   XZ=              0.2037   YZ=             -2.0270

 Normal termination of Gaussian 16 at Wed May  5 18:52:47 2021.
