 Gaussian 16, Revision A.03,
 Gaussian 16:  EM64L-G16RevA.03 25-Dec-2016

 -------------
 #p 6-31g* mp2
 -------------

 ------------------------------------------------------
 Input file generated by CHIRIPA (05-May-2021 14:55:21)
 ------------------------------------------------------
 Symbolic Z-matrix:
 Charge =  0 Multiplicity = 1

                         Standard orientation:
 ---------------------------------------------------------------------
 Center     Atomic      Atomic             Coordinates (Angstroms)
 Number     Number       Type             X           Y           Z
 ---------------------------------------------------------------------
      1          6           0        1.879365    1.867250    1.341302
      2          6           0        2.526425    0.901542    2.119275
      3          6           0        3.231664   -0.142484    1.513309
      4          6           0        3.269421   -0.190414    0.120626
      5          6           0        2.635008    0.756653   -0.681792
      6          6           0        1.935622    1.791856   -0.054288
      7          1           0        1.333792    2.674848    1.820397
      8          1           0        2.484427    0.957579    3.203314
      9          1           0        3.741657   -0.903420    2.091498
     10          1           0        2.694702    0.674296   -1.760250
     11          1           0        1.434057    2.540442   -0.660997
     12          7           0        4.012928   -1.291008   -0.532284
     13          8           0        4.031140   -1.310865   -1.761068
     14          8           0        4.563398   -2.112956    0.197113
     15          6           0       -4.360243   -0.587165    0.046381
     16          6           0       -5.862818   -0.404518    0.262929
     17          6           0       -6.513255   -1.610654    0.941132
     18          1           0       -4.190438   -1.486806   -0.560872
     19          1           0       -3.876495   -0.768737    1.016131
     20          1           0       -6.343396   -0.221969   -0.706780
     21          1           0       -6.029075    0.494901    0.869576
     22          1           0       -6.060673   -1.791873    1.921402
     23          1           0       -6.376779   -2.512818    0.336089
     24          1           0       -7.587375   -1.458749    1.086228
     25          6           0       -3.695776    0.610263   -0.630658
     26          6           0       -2.193201    0.427616   -0.847206
     27          6           0       -1.542763    1.633752   -1.525409
     28          1           0       -4.179524    0.791835   -1.600408
     29          1           0       -3.865581    1.509905   -0.023406
     30          1           0       -2.026944   -0.471803   -1.453853
     31          1           0       -1.712623    0.245067    0.122503
     32          1           0       -1.679239    2.535915   -0.920367
     33          1           0       -1.995346    1.814972   -2.505680
     34          1           0       -0.468644    1.481847   -1.670505
 ---------------------------------------------------------------------

 SCF Done:  E(RHF) =  -669.534978484     A.U. after   15 cycles
 E2 =    -0.2091846732D+01 EUMP2 =    -0.67162682521571D+03

 The electronic state is 1-A.
 Alpha  occ. eigenvalues --  -20.60776 -20.60771 -15.85829 -11.31210 -11.27770
 Alpha  occ. eigenvalues --  -11.27767 -11.27511 -11.26801 -11.26757 -11.22051
 Alpha  occ. eigenvalues --  -11.21863 -11.21778 -11.21744 -11.21667 -11.21280
 Alpha  occ. eigenvalues --   -1.59851  -1.39404  -1.19382  -1.08802  -1.08764
 Alpha  occ. eigenvalues --   -1.04794  -1.03918  -0.96394  -0.95605  -0.87428
 Alpha  occ. eigenvalues --   -0.86174  -0.82442  -0.79984  -0.78585  -0.77486
 Alpha  occ. eigenvalues --   -0.72047  -0.71174  -0.70484  -0.65428  -0.65034
 Alpha  occ. eigenvalues --   -0.64812  -0.62187  -0.61311  -0.59756  -0.57991
 Alpha  occ. eigenvalues --   -0.55687  -0.55281  -0.53393  -0.53038  -0.52847
 Alpha  occ. eigenvalues --   -0.52583  -0.50326  -0.48807  -0.48802  -0.48295
 Alpha  occ. eigenvalues --   -0.47001  -0.46135  -0.46048  -0.44807  -0.44176
 Alpha  occ. eigenvalues --   -0.37352  -0.36349
 Alpha virt. eigenvalues --    0.05024   0.11236   0.16417   0.20838   0.22635
 Alpha virt. eigenvalues --    0.24077   0.26236   0.26392   0.27082   0.27955
 Alpha virt. eigenvalues --    0.28624   0.30554   0.30975   0.31472   0.32284

 Mulliken charges:
               1
     1  C   -0.173068
     2  C   -0.218529
     3  C   -0.171065
     4  C    0.158826
     5  C   -0.172309
     6  C   -0.215942
     7  H    0.225698
     8  H    0.223446
     9  H    0.275664
    10  H    0.275680
    11  H    0.226818
    12  N    0.488085
    13  O   -0.460302
    14  O   -0.460363
    15  C   -0.298563
    16  C   -0.299834
    17  C   -0.475880
    18  H    0.151766
    19  H    0.149142
    20  H    0.152609
    21  H    0.151120
    22  H    0.155052
    23  H    0.156389
    24  H    0.160819
    25  C   -0.298699
    26  C   -0.299252
    27  C   -0.478582
    28  H    0.150719
    29  H    0.147741
    30  H    0.156156
    31  H    0.152654
    32  H    0.149212
    33  H    0.158184
    34  H    0.156609
 Sum of Mulliken charges =  -0.00000

 Dipole moment (field-independent basis, Debye):
    X=             -2.6786    Y=              3.8182    Z=              2.3145  Tot=              5.2068
 Quadrupole moment (field-independent basis, Debye-Ang):
   XX=           -112.5134   YY=            -96.7491   ZZ=            -89.6480
   XY=             12.5268   XZ=              9.0715   YZ=             -0.9773

 Normal termination of Gaussian 16 at Thu May  6 19:10:57 2021.
