 Gaussian 16, Revision A.03,
 Gaussian 16:  EM64L-G16RevA.03 25-Dec-2016

 -------------
 #p 6-31g* mp2
 -------------

 ------------------------------------------------------
 Input file generated by CHIRIPA (05-May-2021 14:51:12)
 ------------------------------------------------------
 Symbolic Z-matrix:
 Charge =  0 Multiplicity = 1

                         Standard orientation:
 ---------------------------------------------------------------------
 Center     Atomic      Atomic             Coordinates (Angstroms)
 Number     Number       Type             X           Y           Z
 ---------------------------------------------------------------------
      1          6           0       -3.294308   -0.096157   -0.194120
      2          6           0       -4.204105   -1.324727   -0.164593
      3          6           0       -5.012031   -1.493098   -1.451722
      4          1           0       -3.905349    0.800684   -0.365144
      5          1           0       -2.609828   -0.175905   -1.049996
      6          1           0       -4.885737   -1.243352    0.691777
      7          1           0       -3.590849   -2.218727    0.006571
      8          1           0       -4.345570   -1.599671   -2.313739
      9          1           0       -5.647815   -0.618754   -1.624640
     10          1           0       -5.655525   -2.377379   -1.409031
     11          6           0       -2.480145    0.085665    1.085648
     12          6           0       -1.570349    1.314234    1.056121
     13          6           0       -0.762423    1.482606    2.343250
     14          1           0       -3.164625    0.165412    1.941524
     15          1           0       -1.869105   -0.811177    1.256672
     16          1           0       -2.183604    2.208235    0.884957
     17          1           0       -0.888716    1.232859    0.199751
     18          1           0       -0.126638    0.608261    2.516168
     19          1           0       -1.428884    1.589179    3.205267
     20          1           0       -0.118929    2.366886    2.300559
     21          6           0        2.417778    0.380392   -0.917268
     22          6           0        2.372801    1.886379   -0.656569
     23          6           0        1.429286    2.623072   -1.607809
     24          1           0        2.730099    0.203617   -1.955608
     25          1           0        1.403689   -0.031717   -0.821423
     26          1           0        3.386898    2.295294   -0.751516
     27          1           0        2.060736    2.059584    0.381328
     28          1           0        0.407526    2.242719   -1.508125
     29          1           0        1.741222    2.479769   -2.647406
     30          1           0        1.412479    3.698222   -1.403781
     31          6           0        3.356676   -0.369899    0.025740
     32          6           0        3.401652   -1.875886   -0.234959
     33          6           0        4.345167   -2.612579    0.716281
     34          1           0        4.370765    0.042208   -0.070104
     35          1           0        3.044354   -0.193125    1.064081
     36          1           0        3.713719   -2.049091   -1.272856
     37          1           0        2.387557   -2.284801   -0.140012
     38          1           0        4.033232   -2.469275    1.755879
     39          1           0        5.366929   -2.232226    0.616598
     40          1           0        4.361976   -3.687730    0.512253
 ---------------------------------------------------------------------

 SCF Done:  E(RHF) =  -470.733085793     A.U. after   11 cycles
 E2 =    -0.1583778419D+01 EUMP2 =    -0.47231686421193D+03

 The electronic state is 1-A.
 Alpha  occ. eigenvalues --  -11.21646 -11.21632 -11.21630 -11.21590 -11.21453
 Alpha  occ. eigenvalues --  -11.21431 -11.21393 -11.21371 -11.21151 -11.21091
 Alpha  occ. eigenvalues --  -11.21089 -11.21041  -1.08497  -1.08434  -1.03612
 Alpha  occ. eigenvalues --   -1.03510  -0.96035  -0.95984  -0.87054  -0.86997
 Alpha  occ. eigenvalues --   -0.79689  -0.79563  -0.78323  -0.78235  -0.65310
 Alpha  occ. eigenvalues --   -0.64921  -0.61224  -0.60725  -0.59373  -0.59358
 Alpha  occ. eigenvalues --   -0.57633  -0.57603  -0.55336  -0.55254  -0.52726
 Alpha  occ. eigenvalues --   -0.52678  -0.52458  -0.52412  -0.50040  -0.49893
 Alpha  occ. eigenvalues --   -0.48045  -0.47873  -0.46830  -0.46515  -0.45958
 Alpha  occ. eigenvalues --   -0.45799  -0.45766  -0.45457  -0.43826  -0.43797
 Alpha virt. eigenvalues --    0.19491   0.23235   0.23528   0.24739   0.25547
 Alpha virt. eigenvalues --    0.26367   0.26839   0.28030   0.28854   0.29134
 Alpha virt. eigenvalues --    0.30672   0.30820   0.31686   0.31814   0.32320

 Mulliken charges:
               1
     1  C   -0.298446
     2  C   -0.299649
     3  C   -0.475782
     4  H    0.149971
     5  H    0.149034
     6  H    0.152067
     7  H    0.151933
     8  H    0.155372
     9  H    0.155276
    10  H    0.160358
    11  C   -0.297715
    12  C   -0.308954
    13  C   -0.476556
    14  H    0.149843
    15  H    0.149131
    16  H    0.152453
    17  H    0.160755
    18  H    0.154606
    19  H    0.155673
    20  H    0.161331
    21  C   -0.299989
    22  C   -0.302762
    23  C   -0.479663
    24  H    0.149823
    25  H    0.149641
    26  H    0.152178
    27  H    0.155654
    28  H    0.158954
    29  H    0.155010
    30  H    0.160246
    31  C   -0.298677
    32  C   -0.299587
    33  C   -0.475720
    34  H    0.149794
    35  H    0.150159
    36  H    0.152037
    37  H    0.151352
    38  H    0.155223
    39  H    0.155339
    40  H    0.160286
 Sum of Mulliken charges =  -0.00000

 Dipole moment (field-independent basis, Debye):
    X=             -0.0121    Y=              0.0128    Z=              0.0086  Tot=              0.0196
 Quadrupole moment (field-independent basis, Debye-Ang):
   XX=            -84.3685   YY=            -84.9546   ZZ=            -85.3282
   XY=             -0.0869   XZ=             -1.7608   YZ=              0.3674

 Normal termination of Gaussian 16 at Thu May  6 03:55:00 2021.
