 Gaussian 16, Revision A.03,
 Gaussian 16:  EM64L-G16RevA.03 25-Dec-2016

 -------------
 #p 6-31g* mp2
 -------------

 ------------------------------------------------------
 Input file generated by CHIRIPA (05-May-2021 14:53:13)
 ------------------------------------------------------
 Symbolic Z-matrix:
 Charge =  0 Multiplicity = 1

                         Standard orientation:
 ---------------------------------------------------------------------
 Center     Atomic      Atomic             Coordinates (Angstroms)
 Number     Number       Type             X           Y           Z
 ---------------------------------------------------------------------
      1          6           0       -2.847390   -0.747070    0.275563
      2          6           0       -2.495094   -2.217927    0.050947
      3          6           0       -1.166024   -2.612580    0.695630
      4          1           0       -2.041774   -0.118019   -0.127207
      5          1           0       -2.889190   -0.548029    1.355392
      6          1           0       -2.455330   -2.414459   -1.028131
      7          1           0       -3.301731   -2.843544    0.454128
      8          1           0       -1.197557   -2.444750    1.777037
      9          1           0       -0.346346   -2.013227    0.286356
     10          1           0       -0.933720   -3.668045    0.522744
     11          6           0       -4.173336   -0.337365   -0.362979
     12          6           0       -4.525632    1.133492   -0.138363
     13          6           0       -5.854702    1.528146   -0.783046
     14          1           0       -4.131536   -0.536405   -1.442808
     15          1           0       -4.978951   -0.966416    0.039791
     16          1           0       -3.718994    1.759110   -0.541544
     17          1           0       -4.565396    1.330025    0.940715
     18          1           0       -6.674379    0.928793   -0.373772
     19          1           0       -5.823169    1.360316   -1.864453
     20          1           0       -6.087005    2.583610   -0.610160
     21          6           0        1.721561    2.624118    0.727989
     22          6           0        1.231786    1.426636    1.259666
     23          6           0        1.789797    0.201550    0.882394
     24          6           0        2.841169    0.210870   -0.032932
     25          6           0        3.351147    1.387131   -0.580309
     26          6           0        2.777816    2.600585   -0.188685
     27          1           0        1.282133    3.571276    1.026638
     28          1           0        0.411577    1.441882    1.971755
     29          1           0        1.430045   -0.740341    1.278422
     30          1           0        4.169748    1.340000   -1.288185
     31          1           0        3.160216    3.529009   -0.603224
     32          7           0        3.440020   -1.079916   -0.439929
     33          8           0        4.365455   -1.044745   -1.247994
     34          8           0        2.972624   -2.102366    0.056838
 ---------------------------------------------------------------------

 SCF Done:  E(RHF) =  -669.535684217     A.U. after   15 cycles
 E2 =    -0.2091795396D+01 EUMP2 =    -0.67162747961316D+03

 The electronic state is 1-A.
 Alpha  occ. eigenvalues --  -20.60781 -20.60775 -15.85825 -11.31186 -11.27763
 Alpha  occ. eigenvalues --  -11.27713 -11.27501 -11.26780 -11.26760 -11.21957
 Alpha  occ. eigenvalues --  -11.21747 -11.21694 -11.21638 -11.21364 -11.21121
 Alpha  occ. eigenvalues --   -1.59851  -1.39404  -1.19363  -1.08759  -1.08700
 Alpha  occ. eigenvalues --   -1.04763  -1.03757  -0.96205  -0.95591  -0.87223
 Alpha  occ. eigenvalues --   -0.86157  -0.82420  -0.79833  -0.78540  -0.77461
 Alpha  occ. eigenvalues --   -0.72043  -0.71173  -0.70474  -0.65330  -0.65012
 Alpha  occ. eigenvalues --   -0.64767  -0.62141  -0.61133  -0.59563  -0.57821
 Alpha  occ. eigenvalues --   -0.55516  -0.55246  -0.53103  -0.52975  -0.52850
 Alpha  occ. eigenvalues --   -0.52504  -0.50142  -0.48805  -0.48799  -0.48136
 Alpha  occ. eigenvalues --   -0.46860  -0.46067  -0.45992  -0.44795  -0.44008
 Alpha  occ. eigenvalues --   -0.37346  -0.36350
 Alpha virt. eigenvalues --    0.05015   0.11200   0.16511   0.21042   0.22681
 Alpha virt. eigenvalues --    0.24077   0.26180   0.26358   0.27015   0.28060
 Alpha virt. eigenvalues --    0.29299   0.30442   0.31243   0.31591   0.31914

 Mulliken charges:
               1
     1  C   -0.300149
     2  C   -0.299920
     3  C   -0.481038
     4  H    0.148442
     5  H    0.144738
     6  H    0.155192
     7  H    0.152662
     8  H    0.148665
     9  H    0.159218
    10  H    0.169289
    11  C   -0.298037
    12  C   -0.299622
    13  C   -0.475727
    14  H    0.151626
    15  H    0.150985
    16  H    0.150010
    17  H    0.149839
    18  H    0.156278
    19  H    0.156443
    20  H    0.159651
    21  C   -0.170995
    22  C   -0.220150
    23  C   -0.174624
    24  C    0.157395
    25  C   -0.170898
    26  C   -0.218529
    27  H    0.225738
    28  H    0.225072
    29  H    0.282160
    30  H    0.275536
    31  H    0.223430
    32  N    0.488196
    33  O   -0.460249
    34  O   -0.460627
 Sum of Mulliken charges =  -0.00000

 Dipole moment (field-independent basis, Debye):
    X=             -2.1193    Y=              4.4627    Z=              1.3695  Tot=              5.1266
 Quadrupole moment (field-independent basis, Debye-Ang):
   XX=           -105.7781   YY=            -91.8662   ZZ=            -93.1055
   XY=             15.0336   XZ=              1.3421   YZ=             -1.4427

 Normal termination of Gaussian 16 at Wed May  5 15:33:04 2021.
