 Gaussian 16, Revision A.03,
 Gaussian 16:  EM64L-G16RevA.03 25-Dec-2016

 -------------
 #p 6-31g* mp2
 -------------

 ------------------------------------------------------
 Input file generated by CHIRIPA (05-May-2021 14:53:14)
 ------------------------------------------------------
 Symbolic Z-matrix:
 Charge =  0 Multiplicity = 1

                         Standard orientation:
 ---------------------------------------------------------------------
 Center     Atomic      Atomic             Coordinates (Angstroms)
 Number     Number       Type             X           Y           Z
 ---------------------------------------------------------------------
      1          6           0        4.400886   -0.268532    0.403471
      2          6           0        5.245416   -1.493807    0.052109
      3          6           0        5.787856   -2.212070    1.288091
      4          1           0        5.007230    0.428615    0.997843
      5          1           0        3.564403   -0.579955    1.044336
      6          1           0        6.079270   -1.180382   -0.589038
      7          1           0        4.637050   -2.188031   -0.541659
      8          1           0        4.966722   -2.552531    1.927173
      9          1           0        6.417137   -1.539157    1.879525
     10          1           0        6.388634   -3.084841    1.013871
     11          6           0        3.851526    0.460146   -0.821666
     12          6           0        3.006995    1.685420   -0.470304
     13          6           0        2.464555    2.403683   -1.706286
     14          1           0        4.688008    0.771568   -1.462531
     15          1           0        3.245181   -0.237001   -1.416038
     16          1           0        3.615361    2.379644    0.123463
     17          1           0        2.173141    1.371995    0.170843
     18          1           0        1.835274    1.730770   -2.297720
     19          1           0        3.285689    2.744144   -2.345369
     20          1           0        1.863777    3.276454   -1.432066
     21          6           0       -1.729704    1.623682    1.281032
     22          6           0       -1.209125    0.769163    0.303630
     23          6           0       -2.027604   -0.175766   -0.322269
     24          6           0       -3.368023   -0.239057    0.055305
     25          6           0       -3.916222    0.598392    1.025587
     26          6           0       -3.079212    1.535725    1.638260
     27          1           0       -1.086693    2.354776    1.762108
     28          1           0       -0.161461    0.835221    0.024197
     29          1           0       -1.650648   -0.849598   -1.082054
     30          1           0       -4.964610    0.508818    1.283032
     31          1           0       -3.486233    2.198067    2.396997
     32          7           0       -4.244318   -1.235390   -0.600306
     33          8           0       -5.421831   -1.271119   -0.249843
     34          8           0       -3.737053   -1.961721   -1.452223
 ---------------------------------------------------------------------

 SCF Done:  E(RHF) =  -669.535496628     A.U. after   15 cycles
 E2 =    -0.2091123079D+01 EUMP2 =    -0.67162661970737D+03

 The electronic state is 1-A.
 Alpha  occ. eigenvalues --  -20.60749 -20.60744 -15.85802 -11.31163 -11.27732
 Alpha  occ. eigenvalues --  -11.27727 -11.27468 -11.26747 -11.26714 -11.22675
 Alpha  occ. eigenvalues --  -11.22182 -11.22098 -11.22016 -11.22014 -11.21467
 Alpha  occ. eigenvalues --   -1.59824  -1.39378  -1.19334  -1.09184  -1.08729
 Alpha  occ. eigenvalues --   -1.04739  -1.04266  -0.96685  -0.95566  -0.87699
 Alpha  occ. eigenvalues --   -0.86138  -0.82399  -0.80351  -0.78962  -0.77448
 Alpha  occ. eigenvalues --   -0.72020  -0.71147  -0.70443  -0.65880  -0.64986
 Alpha  occ. eigenvalues --   -0.64732  -0.62178  -0.61572  -0.60073  -0.58291
 Alpha  occ. eigenvalues --   -0.55972  -0.55232  -0.53386  -0.53102  -0.53065
 Alpha  occ. eigenvalues --   -0.52827  -0.50632  -0.48794  -0.48776  -0.48630
 Alpha  occ. eigenvalues --   -0.47399  -0.46497  -0.46411  -0.44784  -0.44504
 Alpha  occ. eigenvalues --   -0.37315  -0.36340
 Alpha virt. eigenvalues --    0.05088   0.11300   0.16577   0.18973   0.22683
 Alpha virt. eigenvalues --    0.23674   0.25510   0.26480   0.27268   0.28146
 Alpha virt. eigenvalues --    0.28660   0.30271   0.30991   0.31247   0.32072

 Mulliken charges:
               1
     1  C   -0.298653
     2  C   -0.300335
     3  C   -0.476192
     4  H    0.150758
     5  H    0.148021
     6  H    0.153291
     7  H    0.153380
     8  H    0.155762
     9  H    0.155473
    10  H    0.162449
    11  C   -0.298593
    12  C   -0.305082
    13  C   -0.477398
    14  H    0.153594
    15  H    0.149700
    16  H    0.156433
    17  H    0.141876
    18  H    0.154949
    19  H    0.161162
    20  H    0.160027
    21  C   -0.173241
    22  C   -0.226943
    23  C   -0.172897
    24  C    0.159068
    25  C   -0.171304
    26  C   -0.218517
    27  H    0.225614
    28  H    0.236175
    29  H    0.275676
    30  H    0.275503
    31  H    0.223325
    32  N    0.487990
    33  O   -0.460520
    34  O   -0.460549
 Sum of Mulliken charges =  -0.00000

 Dipole moment (field-independent basis, Debye):
    X=              3.3060    Y=              3.5189    Z=              2.2675  Tot=              5.3343
 Quadrupole moment (field-independent basis, Debye-Ang):
   XX=           -111.4136   YY=            -96.4761   ZZ=            -94.0606
   XY=            -13.2593   XZ=            -10.7354   YZ=              1.0924

 Normal termination of Gaussian 16 at Thu May  6 07:25:08 2021.
