 Gaussian 16, Revision A.03,
 Gaussian 16:  EM64L-G16RevA.03 25-Dec-2016

 -------------
 #p 6-31g* mp2
 -------------

 ------------------------------------------------------
 Input file generated by CHIRIPA (05-May-2021 14:57:24)
 ------------------------------------------------------
 Symbolic Z-matrix:
 Charge =  0 Multiplicity = 1

                         Standard orientation:
 ---------------------------------------------------------------------
 Center     Atomic      Atomic             Coordinates (Angstroms)
 Number     Number       Type             X           Y           Z
 ---------------------------------------------------------------------
      1          6           0        1.479724   -1.879328    0.500372
      2          6           0        2.380255   -1.545889    1.517418
      3          6           0        3.467109   -0.706189    1.256267
      4          6           0        3.623863   -0.215631   -0.039137
      5          6           0        2.743805   -0.529563   -1.073658
      6          6           0        1.664048   -1.370997   -0.789646
      7          1           0        0.638186   -2.532300    0.712120
      8          1           0        2.239594   -1.939195    2.520199
      9          1           0        4.179415   -0.431922    2.024913
     10          1           0        2.910231   -0.121997   -2.063410
     11          1           0        0.966271   -1.628259   -1.581459
     12          7           0        4.770710    0.674240   -0.327706
     13          8           0        4.886682    1.093336   -1.477291
     14          8           0        5.531920    0.935774    0.601162
     15          6           0       -5.540810   -0.998463   -0.289839
     16          6           0       -5.616904    0.324814    0.157004
     17          6           0       -4.456565    1.088159    0.316586
     18          6           0       -3.231252    0.493845    0.018783
     19          6           0       -3.122740   -0.822085   -0.428256
     20          6           0       -4.296165   -1.566687   -0.580532
     21          1           0       -6.447272   -1.584169   -0.410968
     22          1           0       -6.582145    0.768710    0.383516
     23          1           0       -4.486622    2.114788    0.660896
     24          1           0       -2.146156   -1.237121   -0.646083
     25          1           0       -4.234046   -2.594132   -0.927726
     26          7           0       -1.995926    1.292043    0.183858
     27          8           0       -0.928566    0.745266   -0.085238
     28          8           0       -2.118430    2.449335    0.579213
 ---------------------------------------------------------------------

 SCF Done:  E(RHF) =  -868.336797802     A.U. after   16 cycles
 E2 =    -0.2600646560D+01 EUMP2 =    -0.87093744436226D+03

 The electronic state is 1-A.
 Alpha  occ. eigenvalues --  -20.61325 -20.61298 -20.59967 -20.59960 -15.86358
 Alpha  occ. eigenvalues --  -15.85016 -11.31816 -11.30269 -11.28471 -11.28329
 Alpha  occ. eigenvalues --  -11.28093 -11.27438 -11.27354 -11.26854 -11.26816
 Alpha  occ. eigenvalues --  -11.26665 -11.25904 -11.25892  -1.60386  -1.59040
 Alpha  occ. eigenvalues --   -1.39942  -1.38598  -1.19981  -1.18435  -1.09350
 Alpha  occ. eigenvalues --   -1.07879  -1.05402  -1.03845  -0.96179  -0.94736
 Alpha  occ. eigenvalues --   -0.86791  -0.85282  -0.83012  -0.81583  -0.78067
 Alpha  occ. eigenvalues --   -0.76623  -0.72582  -0.71713  -0.71249  -0.71085
 Alpha  occ. eigenvalues --   -0.70350  -0.69647  -0.65632  -0.65400  -0.64133
 Alpha  occ. eigenvalues --   -0.63919  -0.62760  -0.61231  -0.55870  -0.54457
 Alpha  occ. eigenvalues --   -0.53714  -0.53495  -0.52113  -0.51999  -0.49347
 Alpha  occ. eigenvalues --   -0.49324  -0.48001  -0.47996  -0.45329  -0.44030
 Alpha  occ. eigenvalues --   -0.37943  -0.37008  -0.36376  -0.35370
 Alpha virt. eigenvalues --    0.04459   0.05946   0.10643   0.12214   0.15956
 Alpha virt. eigenvalues --    0.17465   0.19743   0.21939   0.25772   0.27151
 Alpha virt. eigenvalues --    0.28401   0.28998   0.30818   0.31465   0.32148

 Mulliken charges:
               1
     1  C   -0.162633
     2  C   -0.217434
     3  C   -0.170273
     4  C    0.159755
     5  C   -0.167250
     6  C   -0.200364
     7  H    0.214428
     8  H    0.219100
     9  H    0.272974
    10  H    0.273502
    11  H    0.214638
    12  N    0.488359
    13  O   -0.461805
    14  O   -0.462814
    15  C   -0.170658
    16  C   -0.217976
    17  C   -0.170371
    18  C    0.159360
    19  C   -0.171855
    20  C   -0.218036
    21  H    0.227425
    22  H    0.225847
    23  H    0.277865
    24  H    0.265992
    25  H    0.222698
    26  N    0.491081
    27  O   -0.465165
    28  O   -0.456390
 Sum of Mulliken charges =  -0.00000

 Dipole moment (field-independent basis, Debye):
    X=             -8.6526    Y=             -5.7470    Z=              0.4383  Tot=             10.3965
 Quadrupole moment (field-independent basis, Debye-Ang):
   XX=           -104.8862   YY=           -104.4557   ZZ=           -100.9291
   XY=             -6.0959   XZ=              6.1684   YZ=              0.6385

 Normal termination of Gaussian 16 at Thu May  6 16:18:57 2021.
