 Gaussian 16, Revision A.03,
 Gaussian 16:  EM64L-G16RevA.03 25-Dec-2016

 -------------
 #p 6-31g* mp2
 -------------

 ------------------------------------------------------
 Input file generated by CHIRIPA (05-May-2021 14:55:22)
 ------------------------------------------------------
 Symbolic Z-matrix:
 Charge =  0 Multiplicity = 1

                         Standard orientation:
 ---------------------------------------------------------------------
 Center     Atomic      Atomic             Coordinates (Angstroms)
 Number     Number       Type             X           Y           Z
 ---------------------------------------------------------------------
      1          6           0        0.395950    2.364759    0.267737
      2          6           0        0.988486    1.792029    1.397960
      3          6           0        1.994366    0.830621    1.262133
      4          6           0        2.385091    0.463686   -0.024717
      5          6           0        1.813955    1.016026   -1.170149
      6          6           0        0.809845    1.975615   -1.010456
      7          1           0       -0.384754    3.110897    0.382521
      8          1           0        0.669052    2.092321    2.391857
      9          1           0        2.470049    0.371100    2.120028
     10          1           0        2.153482    0.696431   -2.147900
     11          1           0        0.351452    2.418713   -1.889993
     12          7           0        3.449033   -0.553151   -0.181144
     13          8           0        3.775450   -0.859325   -1.325847
     14          8           0        3.936389   -1.024719    0.843915
     15          6           0       -2.398226   -1.404485    0.204949
     16          6           0       -0.920580   -1.238376   -0.151357
     17          6           0       -0.072757   -2.439778    0.267715
     18          1           0       -2.492237   -1.561417    1.288221
     19          1           0       -2.784579   -2.313139   -0.277210
     20          1           0       -0.537485   -0.329557    0.330205
     21          1           0       -0.830091   -1.081630   -1.233882
     22          1           0       -0.427590   -3.351720   -0.223259
     23          1           0       -0.133323   -2.595374    1.349715
     24          1           0        0.980086   -2.299892    0.003490
     25          6           0       -3.258709   -0.211573   -0.207673
     26          6           0       -4.736356   -0.377683    0.148633
     27          6           0       -5.584178    0.823719   -0.270439
     28          1           0       -2.872357    0.697080    0.274486
     29          1           0       -3.164698   -0.054642   -1.290945
     30          1           0       -4.826845   -0.534429    1.231157
     31          1           0       -5.119450   -1.286503   -0.332929
     32          1           0       -5.523612    0.979315   -1.352439
     33          1           0       -5.229345    1.735661    0.220535
     34          1           0       -6.637020    0.683833   -0.006214
 ---------------------------------------------------------------------

 SCF Done:  E(RHF) =  -669.533095215     A.U. after   15 cycles
 E2 =    -0.2096899706D+01 EUMP2 =    -0.67162999492051D+03

 The electronic state is 1-A.
 Alpha  occ. eigenvalues --  -20.60869 -20.60863 -15.85913 -11.31284 -11.27855
 Alpha  occ. eigenvalues --  -11.27844 -11.27581 -11.26880 -11.26846 -11.21934
 Alpha  occ. eigenvalues --  -11.21730 -11.21484 -11.21478 -11.21340 -11.20889
 Alpha  occ. eigenvalues --   -1.59948  -1.39497  -1.19493  -1.08877  -1.08607
 Alpha  occ. eigenvalues --   -1.04876  -1.03656  -0.96134  -0.95696  -0.87139
 Alpha  occ. eigenvalues --   -0.86266  -0.82523  -0.79747  -0.78438  -0.77570
 Alpha  occ. eigenvalues --   -0.72133  -0.71305  -0.70571  -0.65273  -0.65118
 Alpha  occ. eigenvalues --   -0.64869  -0.62213  -0.61107  -0.59559  -0.57820
 Alpha  occ. eigenvalues --   -0.55472  -0.55357  -0.53323  -0.52956  -0.52680
 Alpha  occ. eigenvalues --   -0.52552  -0.50064  -0.48895  -0.48889  -0.47995
 Alpha  occ. eigenvalues --   -0.46757  -0.45946  -0.45733  -0.44892  -0.43916
 Alpha  occ. eigenvalues --   -0.37408  -0.36449
 Alpha virt. eigenvalues --    0.04925   0.11135   0.16361   0.21130   0.22767
 Alpha virt. eigenvalues --    0.24091   0.26291   0.26945   0.27431   0.27507
 Alpha virt. eigenvalues --    0.28675   0.30665   0.31287   0.31580   0.31798

 Mulliken charges:
               1
     1  C   -0.172340
     2  C   -0.220611
     3  C   -0.171690
     4  C    0.159412
     5  C   -0.169994
     6  C   -0.213677
     7  H    0.226383
     8  H    0.224084
     9  H    0.276316
    10  H    0.276028
    11  H    0.224286
    12  N    0.489958
    13  O   -0.459893
    14  O   -0.459275
    15  C   -0.297450
    16  C   -0.307496
    17  C   -0.475574
    18  H    0.147815
    19  H    0.150113
    20  H    0.162850
    21  H    0.147130
    22  H    0.156240
    23  H    0.153612
    24  H    0.161165
    25  C   -0.296358
    26  C   -0.299536
    27  C   -0.475276
    28  H    0.141846
    29  H    0.147791
    30  H    0.152046
    31  H    0.154064
    32  H    0.154816
    33  H    0.151417
    34  H    0.161796
 Sum of Mulliken charges =  -0.00000

 Dipole moment (field-independent basis, Debye):
    X=             -3.6189    Y=              3.6225    Z=              0.5436  Tot=              5.1492
 Quadrupole moment (field-independent basis, Debye-Ang):
   XX=           -114.1112   YY=            -92.5404   ZZ=            -89.0361
   XY=              7.5480   XZ=              1.8348   YZ=              0.3218

 Normal termination of Gaussian 16 at Wed May  5 20:40:43 2021.
