 Gaussian 16, Revision A.03,
 Gaussian 16:  EM64L-G16RevA.03 25-Dec-2016

 -------------
 #p 6-31g* mp2
 -------------

 ------------------------------------------------------
 Input file generated by CHIRIPA (05-May-2021 14:55:24)
 ------------------------------------------------------
 Symbolic Z-matrix:
 Charge =  0 Multiplicity = 1

                         Standard orientation:
 ---------------------------------------------------------------------
 Center     Atomic      Atomic             Coordinates (Angstroms)
 Number     Number       Type             X           Y           Z
 ---------------------------------------------------------------------
      1          6           0       -0.973206   -0.621620    1.357235
      2          6           0       -1.281599    0.644365    0.848613
      3          6           0       -2.489293    0.866076    0.180132
      4          6           0       -3.369382   -0.205562    0.037567
      5          6           0       -3.090785   -1.478388    0.533136
      6          6           0       -1.877189   -1.677095    1.198154
      7          1           0       -0.032748   -0.784915    1.875183
      8          1           0       -0.581457    1.465915    0.970684
      9          1           0       -2.753332    1.836018   -0.223495
     10          1           0       -3.808771   -2.277817    0.395923
     11          1           0       -1.640338   -2.661339    1.592122
     12          7           0       -4.651038    0.016976   -0.668291
     13          8           0       -5.409470   -0.943629   -0.780782
     14          8           0       -4.872898    1.147794   -1.095686
     15          6           0        3.410046    0.736243   -0.240512
     16          6           0        3.611427    2.171577    0.246569
     17          6           0        2.337356    3.011722    0.153326
     18          1           0        3.056737    0.754910   -1.280593
     19          1           0        2.614037    0.263794    0.351565
     20          1           0        4.407771    2.640731   -0.345331
     21          1           0        3.964480    2.149486    1.285549
     22          1           0        1.539154    2.569486    0.758225
     23          1           0        1.984965    3.063522   -0.881922
     24          1           0        2.503916    4.034141    0.506566
     25          6           0        4.674818   -0.116110   -0.153474
     26          6           0        4.473436   -1.551444   -0.640555
     27          6           0        5.747507   -2.391589   -0.547312
     28          1           0        5.470827    0.356340   -0.745552
     29          1           0        5.028126   -0.134777    0.886607
     30          1           0        4.120384   -1.529353   -1.679536
     31          1           0        3.677092   -2.020598   -0.048655
     32          1           0        6.099899   -2.443388    0.487936
     33          1           0        6.545709   -1.949352   -1.152212
     34          1           0        5.580948   -3.414008   -0.900552
 ---------------------------------------------------------------------

 SCF Done:  E(RHF) =  -669.535468074     A.U. after   15 cycles
 E2 =    -0.2091276036D+01 EUMP2 =    -0.67162674410926D+03

 The electronic state is 1-A.
 Alpha  occ. eigenvalues --  -20.60731 -20.60726 -15.85784 -11.31147 -11.27715
 Alpha  occ. eigenvalues --  -11.27702 -11.27465 -11.26737 -11.26701 -11.22467
 Alpha  occ. eigenvalues --  -11.22254 -11.22245 -11.22121 -11.22079 -11.21610
 Alpha  occ. eigenvalues --   -1.59807  -1.39360  -1.19318  -1.09213  -1.08716
 Alpha  occ. eigenvalues --   -1.04720  -1.04304  -0.96765  -0.95551  -0.87783
 Alpha  occ. eigenvalues --   -0.86121  -0.82382  -0.80371  -0.79013  -0.77429
 Alpha  occ. eigenvalues --   -0.72003  -0.71129  -0.70434  -0.65860  -0.64970
 Alpha  occ. eigenvalues --   -0.64741  -0.62120  -0.61664  -0.60121  -0.58363
 Alpha  occ. eigenvalues --   -0.56086  -0.55221  -0.53440  -0.53258  -0.53049
 Alpha  occ. eigenvalues --   -0.52751  -0.50701  -0.48786  -0.48757  -0.48650
 Alpha  occ. eigenvalues --   -0.47400  -0.46555  -0.46474  -0.44766  -0.44552
 Alpha  occ. eigenvalues --   -0.37299  -0.36317
 Alpha virt. eigenvalues --    0.05097   0.11299   0.16568   0.19053   0.22489
 Alpha virt. eigenvalues --    0.23653   0.25182   0.25470   0.26474   0.28382
 Alpha virt. eigenvalues --    0.29173   0.30027   0.31007   0.31291   0.31689

 Mulliken charges:
               1
     1  C   -0.173655
     2  C   -0.224004
     3  C   -0.173163
     4  C    0.158978
     5  C   -0.171255
     6  C   -0.218477
     7  H    0.225354
     8  H    0.233738
     9  H    0.276264
    10  H    0.275427
    11  H    0.223203
    12  N    0.488000
    13  O   -0.460635
    14  O   -0.460382
    15  C   -0.297326
    16  C   -0.300353
    17  C   -0.479257
    18  H    0.153607
    19  H    0.140382
    20  H    0.156530
    21  H    0.152687
    22  H    0.145137
    23  H    0.159667
    24  H    0.165455
    25  C   -0.299068
    26  C   -0.299232
    27  C   -0.476144
    28  H    0.152470
    29  H    0.149586
    30  H    0.154395
    31  H    0.148105
    32  H    0.155189
    33  H    0.157013
    34  H    0.161763
 Sum of Mulliken charges =  -0.00000

 Dipole moment (field-independent basis, Debye):
    X=              4.7271    Y=             -0.7408    Z=              2.3902  Tot=              5.3486
 Quadrupole moment (field-independent basis, Debye-Ang):
   XX=           -125.4083   YY=            -90.0365   ZZ=            -94.3662
   XY=              3.9621   XZ=             -8.9649   YZ=             -1.7270

 Normal termination of Gaussian 16 at Thu May  6 07:56:25 2021.
