 Gaussian 16, Revision A.03,
 Gaussian 16:  EM64L-G16RevA.03 25-Dec-2016

 -------------
 #p 6-31g* mp2
 -------------

 ------------------------------------------------------
 Input file generated by CHIRIPA (05-May-2021 14:51:12)
 ------------------------------------------------------
 Symbolic Z-matrix:
 Charge =  0 Multiplicity = 1

                         Standard orientation:
 ---------------------------------------------------------------------
 Center     Atomic      Atomic             Coordinates (Angstroms)
 Number     Number       Type             X           Y           Z
 ---------------------------------------------------------------------
      1          6           0        2.774060   -0.706291    0.485075
      2          6           0        2.318648   -1.958449   -0.265049
      3          6           0        1.422310   -2.861957    0.582327
      4          1           0        3.310028   -1.006788    1.395781
      5          1           0        1.890080   -0.142696    0.814218
      6          1           0        3.203235   -2.518798   -0.593880
      7          1           0        1.783868   -1.654938   -1.174174
      8          1           0        0.522640   -2.324413    0.898935
      9          1           0        1.950071   -3.193182    1.482526
     10          1           0        1.108368   -3.751062    0.026637
     11          6           0        3.670838    0.206936   -0.348910
     12          6           0        4.126250    1.459094    0.401215
     13          6           0        5.022588    2.362602   -0.446161
     14          1           0        4.554818   -0.356659   -0.678053
     15          1           0        3.134870    0.507433   -1.259616
     16          1           0        4.661030    1.155583    1.310339
     17          1           0        3.241663    2.019443    0.730045
     18          1           0        4.494827    2.693827   -1.346361
     19          1           0        5.922258    1.825058   -0.762769
     20          1           0        5.336530    3.251707    0.109528
     21          6           0       -2.971224    0.967342   -0.140724
     22          6           0       -4.002869    2.016055    0.276281
     23          6           0       -3.485536    3.446917    0.125300
     24          1           0       -2.062476    1.095826    0.463109
     25          1           0       -2.680066    1.144646   -1.185321
     26          1           0       -4.293025    1.835981    1.319353
     27          1           0       -4.909338    1.884936   -0.328482
     28          1           0       -3.213801    3.650498   -0.915526
     29          1           0       -2.593986    3.601266    0.741673
     30          1           0       -4.239014    4.180372    0.428900
     31          6           0       -3.473673   -0.467986    0.004559
     32          6           0       -2.442029   -1.516700   -0.412447
     33          6           0       -2.959362   -2.947562   -0.261465
     34          1           0       -3.764833   -0.645292    1.049156
     35          1           0       -4.382422   -0.596471   -0.599274
     36          1           0       -1.535560   -1.385581    0.192317
     37          1           0       -2.151873   -1.336627   -1.455518
     38          1           0       -3.850912   -3.101911   -0.877838
     39          1           0       -3.231097   -3.151143    0.779359
     40          1           0       -2.205884   -3.681017   -0.565065
 ---------------------------------------------------------------------

 SCF Done:  E(RHF) =  -470.733262841     A.U. after   11 cycles
 E2 =    -0.1582779839D+01 EUMP2 =    -0.47231604268039D+03

 The electronic state is 1-A.
 Alpha  occ. eigenvalues --  -11.21629 -11.21605 -11.21600 -11.21590 -11.21434
 Alpha  occ. eigenvalues --  -11.21405 -11.21372 -11.21345 -11.21098 -11.21067
 Alpha  occ. eigenvalues --  -11.21057 -11.21051  -1.08458  -1.08423  -1.03566
 Alpha  occ. eigenvalues --   -1.03505  -0.96014  -0.95954  -0.87009  -0.86993
 Alpha  occ. eigenvalues --   -0.79644  -0.79558  -0.78283  -0.78228  -0.65146
 Alpha  occ. eigenvalues --   -0.65008  -0.61095  -0.60801  -0.59387  -0.59314
 Alpha  occ. eigenvalues --   -0.57615  -0.57582  -0.55366  -0.55173  -0.52722
 Alpha  occ. eigenvalues --   -0.52634  -0.52430  -0.52384  -0.50023  -0.49854
 Alpha  occ. eigenvalues --   -0.48020  -0.47824  -0.46797  -0.46477  -0.45881
 Alpha  occ. eigenvalues --   -0.45769  -0.45746  -0.45554  -0.43819  -0.43761
 Alpha virt. eigenvalues --    0.20906   0.23219   0.23458   0.24993   0.25782
 Alpha virt. eigenvalues --    0.26727   0.27100   0.27427   0.28290   0.29024
 Alpha virt. eigenvalues --    0.29836   0.31182   0.31466   0.31933   0.32690

 Mulliken charges:
               1
     1  C   -0.298222
     2  C   -0.299859
     3  C   -0.480508
     4  H    0.149593
     5  H    0.148812
     6  H    0.151890
     7  H    0.152730
     8  H    0.160272
     9  H    0.154981
    10  H    0.160159
    11  C   -0.298324
    12  C   -0.299647
    13  C   -0.475713
    14  H    0.149531
    15  H    0.149915
    16  H    0.151859
    17  H    0.151892
    18  H    0.155272
    19  H    0.155158
    20  H    0.160244
    21  C   -0.298188
    22  C   -0.299651
    23  C   -0.475731
    24  H    0.148816
    25  H    0.149443
    26  H    0.152078
    27  H    0.152116
    28  H    0.155144
    29  H    0.155058
    30  H    0.160424
    31  C   -0.297770
    32  C   -0.305160
    33  C   -0.475910
    34  H    0.149579
    35  H    0.149789
    36  H    0.156604
    37  H    0.151639
    38  H    0.155036
    39  H    0.155154
    40  H    0.161496
 Sum of Mulliken charges =  -0.00000

 Dipole moment (field-independent basis, Debye):
    X=             -0.0075    Y=             -0.0075    Z=             -0.0046  Tot=              0.0115
 Quadrupole moment (field-independent basis, Debye-Ang):
   XX=            -84.4549   YY=            -86.2901   ZZ=            -83.9834
   XY=             -1.1600   XZ=              0.9490   YZ=              0.2285

 Normal termination of Gaussian 16 at Wed May  5 23:07:54 2021.
