 Gaussian 16, Revision A.03,
 Gaussian 16:  EM64L-G16RevA.03 25-Dec-2016

 -------------
 #p 6-31g* mp2
 -------------

 ------------------------------------------------------
 Input file generated by CHIRIPA (05-May-2021 14:51:13)
 ------------------------------------------------------
 Symbolic Z-matrix:
 Charge =  0 Multiplicity = 1

                         Standard orientation:
 ---------------------------------------------------------------------
 Center     Atomic      Atomic             Coordinates (Angstroms)
 Number     Number       Type             X           Y           Z
 ---------------------------------------------------------------------
      1          6           0       -3.167882   -0.232496   -0.115252
      2          6           0       -4.033505   -0.908407   -1.179124
      3          6           0       -4.384536   -2.353767   -0.824856
      4          1           0       -2.244947   -0.812794    0.020362
      5          1           0       -3.696770   -0.256904    0.847597
      6          1           0       -3.503736   -0.881502   -2.139976
      7          1           0       -4.954400   -0.326328   -1.312358
      8          1           0       -4.934991   -2.395874    0.120568
      9          1           0       -3.476084   -2.954203   -0.711753
     10          1           0       -5.003722   -2.817803   -1.598897
     11          6           0       -2.808640    1.212891   -0.455147
     12          6           0       -1.943016    1.888802    0.608726
     13          6           0       -1.591985    3.334162    0.254458
     14          1           0       -2.279752    1.237298   -1.417995
     15          1           0       -3.731575    1.793188   -0.590760
     16          1           0       -1.022121    1.306722    0.741960
     17          1           0       -2.472786    1.861897    1.569578
     18          1           0       -2.500438    3.934598    0.141355
     19          1           0       -1.041530    3.376269   -0.690966
     20          1           0       -0.972799    3.798197    1.028499
     21          6           0        3.616433   -0.081739    0.136894
     22          6           0        4.251472   -0.414791   -1.213582
     23          6           0        5.507232    0.410519   -1.495936
     24          1           0        3.367674    0.987993    0.164079
     25          1           0        4.354490   -0.251348    0.933071
     26          1           0        3.511998   -0.245925   -2.006853
     27          1           0        4.498572   -1.483893   -1.237627
     28          1           0        6.264937    0.234916   -0.725451
     29          1           0        5.272758    1.479917   -1.499047
     30          1           0        5.944905    0.156339   -2.466345
     31          6           0        2.360089   -0.898656    0.433504
     32          6           0        1.725049   -0.565604    1.783980
     33          6           0        0.469290   -1.390913    2.066335
     34          1           0        1.622031   -0.729046   -0.362673
     35          1           0        2.608847   -1.968387    0.406319
     36          1           0        1.477949    0.503498    1.808026
     37          1           0        2.464523   -0.734470    2.577251
     38          1           0        0.703764   -2.460312    2.069445
     39          1           0       -0.288416   -1.215311    1.295849
     40          1           0        0.031616   -1.136733    3.036743
 ---------------------------------------------------------------------

 SCF Done:  E(RHF) =  -470.732992714     A.U. after   11 cycles
 E2 =    -0.1583640734D+01 EUMP2 =    -0.47231663344788D+03

 The electronic state is 1-A.
 Alpha  occ. eigenvalues --  -11.21625 -11.21620 -11.21619 -11.21611 -11.21438
 Alpha  occ. eigenvalues --  -11.21428 -11.21377 -11.21366 -11.21106 -11.21088
 Alpha  occ. eigenvalues --  -11.21065 -11.21040  -1.08479  -1.08436  -1.03567
 Alpha  occ. eigenvalues --   -1.03530  -0.96013  -0.95983  -0.87023  -0.87004
 Alpha  occ. eigenvalues --   -0.79635  -0.79592  -0.78308  -0.78238  -0.65255
 Alpha  occ. eigenvalues --   -0.64954  -0.61062  -0.60838  -0.59379  -0.59344
 Alpha  occ. eigenvalues --   -0.57678  -0.57546  -0.55375  -0.55222  -0.52704
 Alpha  occ. eigenvalues --   -0.52673  -0.52484  -0.52364  -0.50035  -0.49877
 Alpha  occ. eigenvalues --   -0.47967  -0.47930  -0.46764  -0.46589  -0.45953
 Alpha  occ. eigenvalues --   -0.45766  -0.45747  -0.45423  -0.43803  -0.43803
 Alpha virt. eigenvalues --    0.20132   0.23174   0.23809   0.24306   0.25799
 Alpha virt. eigenvalues --    0.26702   0.26973   0.27624   0.28147   0.29378
 Alpha virt. eigenvalues --    0.30635   0.31507   0.31767   0.31819   0.32172

 Mulliken charges:
               1
     1  C   -0.305361
     2  C   -0.299022
     3  C   -0.475778
     4  H    0.156004
     5  H    0.149979
     6  H    0.151676
     7  H    0.152032
     8  H    0.155357
     9  H    0.155471
    10  H    0.160228
    11  C   -0.298012
    12  C   -0.305583
    13  C   -0.475607
    14  H    0.148848
    15  H    0.149942
    16  H    0.157892
    17  H    0.152330
    18  H    0.155484
    19  H    0.154765
    20  H    0.160146
    21  C   -0.298337
    22  C   -0.299644
    23  C   -0.475741
    24  H    0.149819
    25  H    0.149746
    26  H    0.151729
    27  H    0.151988
    28  H    0.155264
    29  H    0.155276
    30  H    0.160304
    31  C   -0.298425
    32  C   -0.301730
    33  C   -0.483333
    34  H    0.148267
    35  H    0.149934
    36  H    0.153383
    37  H    0.152356
    38  H    0.154975
    39  H    0.162458
    40  H    0.160919
 Sum of Mulliken charges =  -0.00000

 Dipole moment (field-independent basis, Debye):
    X=             -0.0108    Y=             -0.0053    Z=              0.0145  Tot=              0.0189
 Quadrupole moment (field-independent basis, Debye-Ang):
   XX=            -84.6270   YY=            -85.5623   ZZ=            -84.4935
   XY=             -1.5161   XZ=              0.1769   YZ=              0.1439

 Normal termination of Gaussian 16 at Wed May  5 21:34:40 2021.
