 Gaussian 16, Revision A.03,
 Gaussian 16:  EM64L-G16RevA.03 25-Dec-2016

 -------------
 #p 6-31g* mp2
 -------------

 ------------------------------------------------------
 Input file generated by CHIRIPA (05-May-2021 14:51:09)
 ------------------------------------------------------
 Symbolic Z-matrix:
 Charge =  0 Multiplicity = 1

                         Standard orientation:
 ---------------------------------------------------------------------
 Center     Atomic      Atomic             Coordinates (Angstroms)
 Number     Number       Type             X           Y           Z
 ---------------------------------------------------------------------
      1          6           0        4.281485   -0.507104    0.186273
      2          6           0        5.104448    0.457194   -0.668623
      3          6           0        6.611031    0.266131   -0.491149
      4          1           0        4.548064   -0.369067    1.243073
      5          1           0        4.554089   -1.539619   -0.072561
      6          1           0        4.829374    1.487566   -0.409232
      7          1           0        4.835740    0.316978   -1.723493
      8          1           0        6.905721   -0.751025   -0.768912
      9          1           0        6.899319    0.426213    0.552817
     10          1           0        7.180228    0.965565   -1.111365
     11          6           0        2.773488   -0.328360    0.019765
     12          6           0        1.950525   -1.292658    0.874660
     13          6           0        0.443942   -1.101595    0.697187
     14          1           0        2.500884    0.704155    0.278598
     15          1           0        2.506910   -0.466398   -1.037035
     16          1           0        2.219233   -1.152443    1.929531
     17          1           0        2.225599   -2.323030    0.615269
     18          1           0        0.155655   -1.261678   -0.346779
     19          1           0        0.149253   -0.084439    0.974950
     20          1           0       -0.125254   -1.801029    1.317402
     21          6           0       -3.536989   -0.327548    0.064010
     22          6           0       -4.633773   -1.099563   -0.670185
     23          6           0       -4.639985   -2.589214   -0.325663
     24          1           0       -2.560553   -0.766482   -0.182678
     25          1           0       -3.671747   -0.453765    1.147202
     26          1           0       -4.497804   -0.970793   -1.751641
     27          1           0       -5.607697   -0.658619   -0.421871
     28          1           0       -4.798657   -2.735733    0.747629
     29          1           0       -3.682458   -3.049679   -0.589696
     30          1           0       -5.431805   -3.121905   -0.861502
     31          6           0       -3.517984    1.163013   -0.270048
     32          6           0       -2.421200    1.935028    0.464148
     33          6           0       -2.414988    3.424678    0.119626
     34          1           0       -3.383227    1.289230   -1.353239
     35          1           0       -4.494421    1.601946   -0.023360
     36          1           0       -1.447277    1.494084    0.215834
     37          1           0       -2.557170    1.806257    1.545604
     38          1           0       -3.372516    3.885143    0.383658
     39          1           0       -2.256317    3.571197   -0.953667
     40          1           0       -1.623170    3.957369    0.655465
 ---------------------------------------------------------------------

 SCF Done:  E(RHF) =  -470.732877744     A.U. after   11 cycles
 E2 =    -0.1583275260D+01 EUMP2 =    -0.47231615300477D+03

 The electronic state is 1-A.
 Alpha  occ. eigenvalues --  -11.21617 -11.21615 -11.21532 -11.21519 -11.21428
 Alpha  occ. eigenvalues --  -11.21368 -11.21317 -11.21234 -11.21083 -11.21075
 Alpha  occ. eigenvalues --  -11.21034 -11.21023  -1.08454  -1.08352  -1.03553
 Alpha  occ. eigenvalues --   -1.03469  -0.96009  -0.95914  -0.87028  -0.86936
 Alpha  occ. eigenvalues --   -0.79656  -0.79523  -0.78306  -0.78105  -0.65085
 Alpha  occ. eigenvalues --   -0.64989  -0.61011  -0.60824  -0.59384  -0.59278
 Alpha  occ. eigenvalues --   -0.57614  -0.57530  -0.55333  -0.55174  -0.52736
 Alpha  occ. eigenvalues --   -0.52628  -0.52428  -0.52330  -0.50037  -0.49794
 Alpha  occ. eigenvalues --   -0.48076  -0.47779  -0.46750  -0.46438  -0.45971
 Alpha  occ. eigenvalues --   -0.45737  -0.45656  -0.45358  -0.43788  -0.43709
 Alpha virt. eigenvalues --    0.21929   0.22979   0.23979   0.24334   0.25501
 Alpha virt. eigenvalues --    0.26483   0.27022   0.27553   0.27973   0.29561
 Alpha virt. eigenvalues --    0.29973   0.31575   0.31625   0.31923   0.32202

 Mulliken charges:
               1
     1  C   -0.298245
     2  C   -0.299660
     3  C   -0.475722
     4  H    0.149760
     5  H    0.149607
     6  H    0.151982
     7  H    0.151885
     8  H    0.155201
     9  H    0.155226
    10  H    0.160305
    11  C   -0.298383
    12  C   -0.300660
    13  C   -0.480591
    14  H    0.149285
    15  H    0.149348
    16  H    0.152094
    17  H    0.151861
    18  H    0.153314
    19  H    0.161942
    20  H    0.161479
    21  C   -0.304863
    22  C   -0.299361
    23  C   -0.475593
    24  H    0.159286
    25  H    0.148704
    26  H    0.151398
    27  H    0.151580
    28  H    0.154973
    29  H    0.155069
    30  H    0.159927
    31  C   -0.297594
    32  C   -0.305885
    33  C   -0.475105
    34  H    0.148860
    35  H    0.149180
    36  H    0.158706
    37  H    0.151143
    38  H    0.155040
    39  H    0.155032
    40  H    0.159475
 Sum of Mulliken charges =  -0.00000

 Dipole moment (field-independent basis, Debye):
    X=              0.0348    Y=             -0.0148    Z=              0.0126  Tot=              0.0399
 Quadrupole moment (field-independent basis, Debye-Ang):
   XX=            -85.8507   YY=            -85.6078   ZZ=            -83.6121
   XY=             -0.2062   XZ=             -0.5140   YZ=              0.8180

 Normal termination of Gaussian 16 at Thu May  6 05:19:58 2021.
