 Gaussian 16, Revision A.03,
 Gaussian 16:  EM64L-G16RevA.03 25-Dec-2016

 -------------
 #p 6-31g* mp2
 -------------

 ------------------------------------------------------
 Input file generated by CHIRIPA (05-May-2021 14:55:25)
 ------------------------------------------------------
 Symbolic Z-matrix:
 Charge =  0 Multiplicity = 1

                         Standard orientation:
 ---------------------------------------------------------------------
 Center     Atomic      Atomic             Coordinates (Angstroms)
 Number     Number       Type             X           Y           Z
 ---------------------------------------------------------------------
      1          6           0       -3.340379    1.345100    1.756248
      2          6           0       -1.962477    1.189776    1.572453
      3          6           0       -1.470241    0.344088    0.573923
      4          6           0       -2.388420   -0.334019   -0.226333
      5          6           0       -3.766925   -0.200177   -0.067899
      6          6           0       -4.236626    0.650851    0.936929
      7          1           0       -3.714007    2.004125    2.534376
      8          1           0       -1.264107    1.727682    2.207262
      9          1           0       -0.408515    0.205390    0.409854
     10          1           0       -4.438510   -0.749633   -0.716351
     11          1           0       -5.307247    0.769544    1.077383
     12          7           0       -1.879241   -1.232138   -1.286766
     13          8           0       -2.708914   -1.818368   -1.978584
     14          8           0       -0.660115   -1.332846   -1.406036
     15          6           0        3.620812   -0.359130    0.202528
     16          6           0        2.980809   -1.418253    1.100661
     17          6           0        3.905769   -2.606759    1.364657
     18          1           0        3.907528   -0.821531   -0.751896
     19          1           0        4.550082   -0.005001    0.669908
     20          1           0        2.052305   -1.769281    0.632390
     21          1           0        2.695408   -0.953234    2.052984
     22          1           0        4.827741   -2.276171    1.853820
     23          1           0        4.180984   -3.096855    0.425155
     24          1           0        3.428304   -3.351753    2.008761
     25          6           0        2.708377    0.835285   -0.070533
     26          6           0        3.348380    1.894407   -0.968666
     27          6           0        2.423419    3.082913   -1.232662
     28          1           0        1.779107    0.481156   -0.537914
     29          1           0        2.421659    1.297685    0.883890
     30          1           0        3.633781    1.429388   -1.920989
     31          1           0        4.276883    2.245434   -0.500395
     32          1           0        2.148204    3.573009   -0.293160
     33          1           0        1.501447    2.752326   -1.721826
     34          1           0        2.900885    3.827907   -1.876766
 ---------------------------------------------------------------------

 SCF Done:  E(RHF) =  -669.536291020     A.U. after   15 cycles
 E2 =    -0.2092229677D+01 EUMP2 =    -0.67162852069717D+03

 The electronic state is 1-A.
 Alpha  occ. eigenvalues --  -20.60885 -20.60874 -15.85916 -11.31183 -11.27762
 Alpha  occ. eigenvalues --  -11.27694 -11.27495 -11.26763 -11.26736 -11.21563
 Alpha  occ. eigenvalues --  -11.21401 -11.21355 -11.21190 -11.21110 -11.20810
 Alpha  occ. eigenvalues --   -1.59943  -1.39501  -1.19357  -1.08774  -1.08328
 Alpha  occ. eigenvalues --   -1.04745  -1.03403  -0.95875  -0.95619  -0.86889
 Alpha  occ. eigenvalues --   -0.86153  -0.82454  -0.79484  -0.78232  -0.77471
 Alpha  occ. eigenvalues --   -0.72139  -0.71255  -0.70472  -0.65045  -0.64948
 Alpha  occ. eigenvalues --   -0.64707  -0.62100  -0.60778  -0.59246  -0.57492
 Alpha  occ. eigenvalues --   -0.55276  -0.55139  -0.53084  -0.52874  -0.52544
 Alpha  occ. eigenvalues --   -0.52292  -0.49801  -0.48907  -0.48885  -0.47805
 Alpha  occ. eigenvalues --   -0.46498  -0.45709  -0.45539  -0.44913  -0.43672
 Alpha  occ. eigenvalues --   -0.37344  -0.36343
 Alpha virt. eigenvalues --    0.04989   0.11284   0.16506   0.20660   0.23159
 Alpha virt. eigenvalues --    0.24428   0.25112   0.26352   0.27933   0.28034
 Alpha virt. eigenvalues --    0.29786   0.31214   0.31523   0.31777   0.32144

 Mulliken charges:
               1
     1  C   -0.170156
     2  C   -0.222703
     3  C   -0.176199
     4  C    0.155107
     5  C   -0.169912
     6  C   -0.219214
     7  H    0.225609
     8  H    0.224296
     9  H    0.290030
    10  H    0.275364
    11  H    0.223361
    12  N    0.489008
    13  O   -0.459041
    14  O   -0.465729
    15  C   -0.295602
    16  C   -0.307141
    17  C   -0.475359
    18  H    0.155318
    19  H    0.147599
    20  H    0.165800
    21  H    0.144168
    22  H    0.152970
    23  H    0.158633
    24  H    0.159905
    25  C   -0.313713
    26  C   -0.297907
    27  C   -0.477002
    28  H    0.166197
    29  H    0.139103
    30  H    0.156949
    31  H    0.151220
    32  H    0.149745
    33  H    0.157816
    34  H    0.161480
 Sum of Mulliken charges =  -0.00000

 Dipole moment (field-independent basis, Debye):
    X=             -1.7960    Y=              3.0583    Z=              3.5787  Tot=              5.0385
 Quadrupole moment (field-independent basis, Debye-Ang):
   XX=            -81.8546   YY=            -98.0602   ZZ=            -96.2515
   XY=             -5.4460   XZ=             -7.6097   YZ=             -0.8895

 Normal termination of Gaussian 16 at Thu May  6 11:08:36 2021.
