 Gaussian 16, Revision A.03,
 Gaussian 16:  EM64L-G16RevA.03 25-Dec-2016

 -------------
 #p 6-31g* mp2
 -------------

 ------------------------------------------------------
 Input file generated by CHIRIPA (05-May-2021 14:51:08)
 ------------------------------------------------------
 Symbolic Z-matrix:
 Charge =  0 Multiplicity = 1

                         Standard orientation:
 ---------------------------------------------------------------------
 Center     Atomic      Atomic             Coordinates (Angstroms)
 Number     Number       Type             X           Y           Z
 ---------------------------------------------------------------------
      1          6           0       -4.375945   -0.445910   -0.263918
      2          6           0       -5.738670   -0.901706    0.258782
      3          6           0       -6.510269   -1.743724   -0.757798
      4          1           0       -4.519059    0.131744   -1.187379
      5          1           0       -3.781539   -1.328944   -0.536550
      6          1           0       -6.329812   -0.018126    0.531645
      7          1           0       -5.592309   -1.478179    1.181210
      8          1           0       -5.943827   -2.642330   -1.022846
      9          1           0       -6.685520   -1.173982   -1.676102
     10          1           0       -7.481399   -2.058845   -0.363508
     11          6           0       -3.592614    0.396850    0.741008
     12          6           0       -2.229889    0.852646    0.218308
     13          6           0       -1.458290    1.694664    1.234888
     14          1           0       -4.187019    1.279884    1.013640
     15          1           0       -3.449500   -0.180804    1.664469
     16          1           0       -2.376249    1.429119   -0.704120
     17          1           0       -1.638746   -0.030934   -0.054555
     18          1           0       -1.283038    1.124922    2.153192
     19          1           0       -2.024732    2.593270    1.499936
     20          1           0       -0.487160    2.009785    0.840598
     21          6           0        4.554324   -0.191298    0.221780
     22          6           0        5.239785   -1.482549   -0.226323
     23          6           0        6.378062   -1.901386    0.704642
     24          1           0        5.300764    0.612993    0.275503
     25          1           0        4.165418   -0.325372    1.240687
     26          1           0        5.626072   -1.346539   -1.244606
     27          1           0        4.491590   -2.283815   -0.279171
     28          1           0        6.004493   -2.064424    1.720746
     29          1           0        7.145420   -1.121823    0.749825
     30          1           0        6.854091   -2.826768    0.365636
     31          6           0        3.414235    0.240358   -0.698870
     32          6           0        2.728773    1.531609   -0.250767
     33          6           0        1.590497    1.950447   -1.181732
     34          1           0        3.803141    0.374432   -1.717777
     35          1           0        2.667794   -0.563934   -0.752593
     36          1           0        3.476968    2.332875   -0.197919
     37          1           0        2.342487    1.395600    0.767516
     38          1           0        0.823138    1.170883   -1.226915
     39          1           0        1.964065    2.113484   -2.197836
     40          1           0        1.114467    2.875827   -0.842726
 ---------------------------------------------------------------------

 SCF Done:  E(RHF) =  -470.732859786     A.U. after   11 cycles
 E2 =    -0.1583009154D+01 EUMP2 =    -0.47231586894021D+03

 The electronic state is 1-A.
 Alpha  occ. eigenvalues --  -11.21621 -11.21610 -11.21595 -11.21584 -11.21417
 Alpha  occ. eigenvalues --  -11.21393 -11.21357 -11.21334 -11.21077 -11.21075
 Alpha  occ. eigenvalues --  -11.21066 -11.20954  -1.08450  -1.08409  -1.03584
 Alpha  occ. eigenvalues --   -1.03474  -0.96068  -0.95888  -0.87072  -0.86915
 Alpha  occ. eigenvalues --   -0.79612  -0.79570  -0.78263  -0.78220  -0.65093
 Alpha  occ. eigenvalues --   -0.65039  -0.61051  -0.60893  -0.59570  -0.59137
 Alpha  occ. eigenvalues --   -0.57689  -0.57498  -0.55277  -0.55211  -0.52870
 Alpha  occ. eigenvalues --   -0.52536  -0.52420  -0.52247  -0.49912  -0.49882
 Alpha  occ. eigenvalues --   -0.47973  -0.47833  -0.46665  -0.46583  -0.45816
 Alpha  occ. eigenvalues --   -0.45757  -0.45721  -0.45683  -0.43857  -0.43689
 Alpha virt. eigenvalues --    0.21279   0.23101   0.23460   0.25346   0.26269
 Alpha virt. eigenvalues --    0.26717   0.26893   0.27245   0.27868   0.29122
 Alpha virt. eigenvalues --    0.30049   0.31274   0.31474   0.31543   0.32271

 Mulliken charges:
               1
     1  C   -0.298257
     2  C   -0.299626
     3  C   -0.475690
     4  H    0.149737
     5  H    0.149277
     6  H    0.151954
     7  H    0.151869
     8  H    0.155120
     9  H    0.155212
    10  H    0.160225
    11  C   -0.298460
    12  C   -0.299052
    13  C   -0.485294
    14  H    0.149656
    15  H    0.149496
    16  H    0.152546
    17  H    0.150524
    18  H    0.153904
    19  H    0.154527
    20  H    0.172441
    21  C   -0.298356
    22  C   -0.299666
    23  C   -0.475717
    24  H    0.149732
    25  H    0.149644
    26  H    0.151957
    27  H    0.151877
    28  H    0.155199
    29  H    0.155222
    30  H    0.160263
    31  C   -0.298164
    32  C   -0.302344
    33  C   -0.482218
    34  H    0.149685
    35  H    0.149609
    36  H    0.152281
    37  H    0.153803
    38  H    0.160009
    39  H    0.156590
    40  H    0.160488
 Sum of Mulliken charges =  -0.00000

 Dipole moment (field-independent basis, Debye):
    X=              0.0255    Y=              0.0121    Z=             -0.0197  Tot=              0.0344
 Quadrupole moment (field-independent basis, Debye-Ang):
   XX=            -85.3918   YY=            -84.3237   ZZ=            -85.1042
   XY=             -0.0610   XZ=             -1.0773   YZ=             -0.8100

 Normal termination of Gaussian 16 at Thu May  6 11:33:32 2021.
