 Gaussian 16, Revision A.03,
 Gaussian 16:  EM64L-G16RevA.03 25-Dec-2016

 -------------
 #p 6-31g* mp2
 -------------

 ------------------------------------------------------
 Input file generated by CHIRIPA (05-May-2021 14:55:25)
 ------------------------------------------------------
 Symbolic Z-matrix:
 Charge =  0 Multiplicity = 1

                         Standard orientation:
 ---------------------------------------------------------------------
 Center     Atomic      Atomic             Coordinates (Angstroms)
 Number     Number       Type             X           Y           Z
 ---------------------------------------------------------------------
      1          6           0       -0.955754   -1.231752    1.990259
      2          6           0       -2.223948   -0.712048    2.269749
      3          6           0       -3.048579   -0.257601    1.236304
      4          6           0       -2.571053   -0.338044   -0.070902
      5          6           0       -1.312439   -0.850645   -0.381421
      6          6           0       -0.504843   -1.299273    0.667898
      7          1           0       -0.321778   -1.582517    2.799230
      8          1           0       -2.576746   -0.658392    3.295761
      9          1           0       -4.034712    0.149319    1.424391
     10          1           0       -0.988305   -0.891297   -1.414234
     11          1           0        0.479598   -1.702402    0.447877
     12          7           0       -3.435036    0.139978   -1.173367
     13          8           0       -2.991073    0.058271   -2.316546
     14          8           0       -4.539829    0.587307   -0.873424
     15          6           0        3.200876   -0.074477   -0.594862
     16          6           0        4.205129   -1.090346   -0.049454
     17          6           0        4.378717   -2.301099   -0.966916
     18          1           0        2.230532   -0.568947   -0.739351
     19          1           0        3.531640    0.260973   -1.587568
     20          1           0        3.873294   -1.422743    0.942522
     21          1           0        5.173145   -0.593353    0.093934
     22          1           0        4.732695   -1.988407   -1.954603
     23          1           0        3.425459   -2.822510   -1.101194
     24          1           0        5.100946   -3.014493   -0.557875
     25          6           0        3.016489    1.141557    0.311222
     26          6           0        2.012236    2.157426   -0.234188
     27          6           0        1.838647    3.368179    0.683276
     28          1           0        2.685724    0.806107    1.303927
     29          1           0        3.986833    1.636027    0.455710
     30          1           0        1.044220    1.660433   -0.377576
     31          1           0        2.344071    2.489824   -1.226163
     32          1           0        2.791906    3.889590    0.817554
     33          1           0        1.484669    3.055487    1.670961
     34          1           0        1.116419    4.081573    0.274234
 ---------------------------------------------------------------------

 SCF Done:  E(RHF) =  -669.535447772     A.U. after   15 cycles
 E2 =    -0.2092623047D+01 EUMP2 =    -0.67162807081921D+03

 The electronic state is 1-A.
 Alpha  occ. eigenvalues --  -20.60807 -20.60802 -15.85863 -11.31262 -11.27841
 Alpha  occ. eigenvalues --  -11.27828 -11.27575 -11.26852 -11.26842 -11.22356
 Alpha  occ. eigenvalues --  -11.22130 -11.21939 -11.21870 -11.21777 -11.21309
 Alpha  occ. eigenvalues --   -1.59883  -1.39435  -1.19439  -1.09038  -1.08821
 Alpha  occ. eigenvalues --   -1.04848  -1.04052  -0.96512  -0.95654  -0.87524
 Alpha  occ. eigenvalues --   -0.86240  -0.82491  -0.80129  -0.78839  -0.77526
 Alpha  occ. eigenvalues --   -0.72079  -0.71206  -0.70539  -0.65802  -0.65088
 Alpha  occ. eigenvalues --   -0.64772  -0.62188  -0.61448  -0.59882  -0.58108
 Alpha  occ. eigenvalues --   -0.55827  -0.55333  -0.53210  -0.53132  -0.52998
 Alpha  occ. eigenvalues --   -0.52861  -0.50459  -0.48844  -0.48832  -0.48432
 Alpha  occ. eigenvalues --   -0.47183  -0.46359  -0.46289  -0.44833  -0.44327
 Alpha  occ. eigenvalues --   -0.37413  -0.36417
 Alpha virt. eigenvalues --    0.04975   0.11151   0.16343   0.19058   0.23016
 Alpha virt. eigenvalues --    0.23546   0.25228   0.26256   0.27400   0.28381
 Alpha virt. eigenvalues --    0.29620   0.29795   0.31190   0.31559   0.31786

 Mulliken charges:
               1
     1  C   -0.172030
     2  C   -0.218320
     3  C   -0.170676
     4  C    0.158370
     5  C   -0.172458
     6  C   -0.220012
     7  H    0.226061
     8  H    0.223846
     9  H    0.276016
    10  H    0.276508
    11  H    0.228239
    12  N    0.488154
    13  O   -0.459972
    14  O   -0.460239
    15  C   -0.300739
    16  C   -0.300685
    17  C   -0.475179
    18  H    0.140244
    19  H    0.155093
    20  H    0.146581
    21  H    0.156308
    22  H    0.159299
    23  H    0.149936
    24  H    0.162682
    25  C   -0.297210
    26  C   -0.302605
    27  C   -0.475904
    28  H    0.145143
    29  H    0.152067
    30  H    0.154655
    31  H    0.154150
    32  H    0.155123
    33  H    0.153633
    34  H    0.163921
 Sum of Mulliken charges =  -0.00000

 Dipole moment (field-independent basis, Debye):
    X=              3.0871    Y=             -1.6085    Z=              3.8537  Tot=              5.1931
 Quadrupole moment (field-independent basis, Debye-Ang):
   XX=           -107.1593   YY=            -94.5995   ZZ=            -93.4680
   XY=              2.9947   XZ=            -13.4999   YZ=             -1.1216

 Normal termination of Gaussian 16 at Wed May  5 22:27:01 2021.
