 Gaussian 16, Revision A.03,
 Gaussian 16:  EM64L-G16RevA.03 25-Dec-2016

 -------------
 #p 6-31g* mp2
 -------------

 ------------------------------------------------------
 Input file generated by CHIRIPA (05-May-2021 14:57:23)
 ------------------------------------------------------
 Symbolic Z-matrix:
 Charge =  0 Multiplicity = 1

                         Standard orientation:
 ---------------------------------------------------------------------
 Center     Atomic      Atomic             Coordinates (Angstroms)
 Number     Number       Type             X           Y           Z
 ---------------------------------------------------------------------
      1          6           0       -1.270105   -1.167512    0.571127
      2          6           0       -2.282082   -1.909142   -0.047264
      3          6           0       -3.537106   -1.339747   -0.282320
      4          6           0       -3.746558   -0.020295    0.115759
      5          6           0       -2.758506    0.744413    0.734034
      6          6           0       -1.511121    0.154568    0.959118
      7          1           0       -0.298139   -1.617775    0.749851
      8          1           0       -2.097743   -2.936093   -0.349648
      9          1           0       -4.338374   -1.891124   -0.759154
     10          1           0       -2.972163    1.765954    1.024244
     11          1           0       -0.727075    0.732914    1.439568
     12          7           0       -5.071152    0.593323   -0.127806
     13          8           0       -5.230438    1.757597    0.232376
     14          8           0       -5.925003   -0.101617   -0.674282
     15          6           0        3.557081    2.641729   -0.270657
     16          6           0        2.475797    1.929246   -0.799538
     17          6           0        2.449187    0.532653   -0.741510
     18          6           0        3.525462   -0.122227   -0.144807
     19          6           0        4.617027    0.559421    0.391039
     20          6           0        4.622367    1.955751    0.321898
     21          1           0        3.569491    3.726534   -0.320052
     22          1           0        1.647104    2.459342   -1.260309
     23          1           0        1.624671   -0.043824   -1.143089
     24          1           0        5.428584    0.003146    0.844196
     25          1           0        5.463425    2.506466    0.733458
     26          7           0        3.508550   -1.600598   -0.077493
     27          8           0        4.469013   -2.154036    0.453406
     28          8           0        2.535150   -2.177915   -0.556906
 ---------------------------------------------------------------------

 SCF Done:  E(RHF) =  -868.339843540     A.U. after   16 cycles
 E2 =    -0.2599409283D+01 EUMP2 =    -0.87093925282300D+03

 The electronic state is 1-A.
 Alpha  occ. eigenvalues --  -20.61848 -20.61782 -20.60764 -20.60752 -15.86842
 Alpha  occ. eigenvalues --  -15.85813 -11.32046 -11.31125 -11.28593 -11.28562
 Alpha  occ. eigenvalues --  -11.28263 -11.27735 -11.27651 -11.27553 -11.27530
 Alpha  occ. eigenvalues --  -11.27260 -11.26702 -11.26568  -1.60877  -1.59838
 Alpha  occ. eigenvalues --   -1.40438  -1.39393  -1.20198  -1.19282  -1.09614
 Alpha  occ. eigenvalues --   -1.08657  -1.05566  -1.04680  -0.96476  -0.95501
 Alpha  occ. eigenvalues --   -0.86968  -0.86058  -0.83309  -0.82341  -0.78386
 Alpha  occ. eigenvalues --   -0.77426  -0.73062  -0.72196  -0.72028  -0.71279
 Alpha  occ. eigenvalues --   -0.71164  -0.70280  -0.65840  -0.65545  -0.64914
 Alpha  occ. eigenvalues --   -0.64656  -0.62903  -0.62025  -0.56048  -0.55049
 Alpha  occ. eigenvalues --   -0.53921  -0.53639  -0.53007  -0.52745  -0.49828
 Alpha  occ. eigenvalues --   -0.49796  -0.48790  -0.48780  -0.45864  -0.44811
 Alpha  occ. eigenvalues --   -0.38164  -0.37311  -0.37096  -0.36302
 Alpha virt. eigenvalues --    0.04079   0.05096   0.10436   0.11342   0.15594
 Alpha virt. eigenvalues --    0.16566   0.20608   0.21760   0.26544   0.27339
 Alpha virt. eigenvalues --    0.27476   0.28657   0.30184   0.31137   0.32425

 Mulliken charges:
               1
     1  C   -0.179667
     2  C   -0.219913
     3  C   -0.171433
     4  C    0.157923
     5  C   -0.172409
     6  C   -0.224898
     7  H    0.242400
     8  H    0.229415
     9  H    0.275836
    10  H    0.273008
    11  H    0.221390
    12  N    0.488138
    13  O   -0.462279
    14  O   -0.459906
    15  C   -0.170396
    16  C   -0.221055
    17  C   -0.177812
    18  C    0.157280
    19  C   -0.170531
    20  C   -0.218346
    21  H    0.229075
    22  H    0.227561
    23  H    0.276428
    24  H    0.277375
    25  H    0.226532
    26  N    0.488330
    27  O   -0.454553
    28  O   -0.467493
 Sum of Mulliken charges =  -0.00000

 Dipole moment (field-independent basis, Debye):
    X=              5.0256    Y=              2.9986    Z=              0.6082  Tot=              5.8837
 Quadrupole moment (field-independent basis, Debye-Ang):
   XX=           -134.9979   YY=           -102.5821   ZZ=           -103.9953
   XY=             28.8127   XZ=             -0.2402   YZ=              0.9357

 Normal termination of Gaussian 16 at Thu May  6 01:48:10 2021.
