 Gaussian 16, Revision A.03,
 Gaussian 16:  EM64L-G16RevA.03 25-Dec-2016

 -------------
 #p 6-31g* mp2
 -------------

 ------------------------------------------------------
 Input file generated by CHIRIPA (05-May-2021 14:55:24)
 ------------------------------------------------------
 Symbolic Z-matrix:
 Charge =  0 Multiplicity = 1

                         Standard orientation:
 ---------------------------------------------------------------------
 Center     Atomic      Atomic             Coordinates (Angstroms)
 Number     Number       Type             X           Y           Z
 ---------------------------------------------------------------------
      1          6           0        4.063330   -2.294831   -0.039473
      2          6           0        4.213401   -1.564606    1.144069
      3          6           0        3.728691   -0.256611    1.237638
      4          6           0        3.096224    0.292541    0.123319
      5          6           0        2.931407   -0.409446   -1.069719
      6          6           0        3.423939   -1.715941   -1.140648
      7          1           0        4.442903   -3.310330   -0.103366
      8          1           0        4.709537   -2.011626    2.000846
      9          1           0        3.831372    0.331252    2.141679
     10          1           0        2.432376    0.063073   -1.907043
     11          1           0        3.305977   -2.280680   -2.061083
     12          7           0        2.578942    1.676462    0.210392
     13          8           0        2.025501    2.137549   -0.785469
     14          8           0        2.736733    2.273888    1.272852
     15          6           0       -3.323806   -0.227295   -0.092196
     16          6           0       -2.482952    0.604019   -1.061664
     17          6           0       -0.987666    0.303070   -0.955179
     18          1           0       -2.982414   -0.037820    0.934690
     19          1           0       -3.148738   -1.294270   -0.287925
     20          1           0       -2.660610    1.669106   -0.865081
     21          1           0       -2.826512    0.412688   -2.086348
     22          1           0       -0.790601   -0.751773   -1.172143
     23          1           0       -0.623755    0.511783    0.056062
     24          1           0       -0.405364    0.908309   -1.656942
     25          6           0       -4.820778    0.062293   -0.186762
     26          6           0       -5.661630   -0.769022    0.782706
     27          6           0       -7.156918   -0.468072    0.676220
     28          1           0       -4.995844    1.129268    0.008966
     29          1           0       -5.162168   -0.127183   -1.213649
     30          1           0       -5.318071   -0.577690    1.807388
     31          1           0       -5.483974   -1.834108    0.586123
     32          1           0       -7.520827   -0.676786   -0.335021
     33          1           0       -7.353982    0.586771    0.893184
     34          1           0       -7.739218   -1.073311    1.377983
 ---------------------------------------------------------------------

 SCF Done:  E(RHF) =  -669.535784749     A.U. after   15 cycles
 E2 =    -0.2091825836D+01 EUMP2 =    -0.67162761058516D+03

 The electronic state is 1-A.
 Alpha  occ. eigenvalues --  -20.60819 -20.60801 -15.85842 -11.31175 -11.27751
 Alpha  occ. eigenvalues --  -11.27739 -11.27494 -11.26761 -11.26749 -11.21382
 Alpha  occ. eigenvalues --  -11.21129 -11.21095 -11.21011 -11.20882 -11.20475
 Alpha  occ. eigenvalues --   -1.59873  -1.39431  -1.19349  -1.08753  -1.08097
 Alpha  occ. eigenvalues --   -1.04750  -1.03172  -0.95655  -0.95563  -0.86651
 Alpha  occ. eigenvalues --   -0.86146  -0.82432  -0.79257  -0.77917  -0.77473
 Alpha  occ. eigenvalues --   -0.72079  -0.71189  -0.70464  -0.65010  -0.64760
 Alpha  occ. eigenvalues --   -0.64727  -0.62104  -0.60571  -0.58977  -0.57222
 Alpha  occ. eigenvalues --   -0.55261  -0.54921  -0.53086  -0.52859  -0.52286
 Alpha  occ. eigenvalues --   -0.52046  -0.49588  -0.48830  -0.48822  -0.47559
 Alpha  occ. eigenvalues --   -0.46300  -0.45462  -0.45386  -0.44831  -0.43343
 Alpha  occ. eigenvalues --   -0.37327  -0.36341
 Alpha virt. eigenvalues --    0.05028   0.11266   0.16516   0.21293   0.23185
 Alpha virt. eigenvalues --    0.24564   0.26875   0.26964   0.27756   0.27792
 Alpha virt. eigenvalues --    0.28820   0.30477   0.31574   0.31747   0.32101

 Mulliken charges:
               1
     1  C   -0.170526
     2  C   -0.218647
     3  C   -0.171101
     4  C    0.158091
     5  C   -0.167624
     6  C   -0.219529
     7  H    0.225511
     8  H    0.223326
     9  H    0.275395
    10  H    0.276253
    11  H    0.223413
    12  N    0.488862
    13  O   -0.459346
    14  O   -0.460416
    15  C   -0.298042
    16  C   -0.300333
    17  C   -0.479955
    18  H    0.150305
    19  H    0.146172
    20  H    0.156688
    21  H    0.148777
    22  H    0.144402
    23  H    0.154698
    24  H    0.175215
    25  C   -0.298104
    26  C   -0.299303
    27  C   -0.475534
    28  H    0.150841
    29  H    0.148541
    30  H    0.152035
    31  H    0.150329
    32  H    0.154592
    33  H    0.155752
    34  H    0.159264
 Sum of Mulliken charges =  -0.00000

 Dipole moment (field-independent basis, Debye):
    X=              1.9343    Y=             -4.7596    Z=             -0.3193  Tot=              5.1476
 Quadrupole moment (field-independent basis, Debye-Ang):
   XX=            -85.2841   YY=            -97.6985   ZZ=            -89.9706
   XY=            -14.7608   XZ=              1.1351   YZ=              0.0858

 Normal termination of Gaussian 16 at Thu May  6 16:02:04 2021.
