 Gaussian 16, Revision A.03,
 Gaussian 16:  EM64L-G16RevA.03 25-Dec-2016

 -------------
 #p 6-31g* mp2
 -------------

 ------------------------------------------------------
 Input file generated by CHIRIPA (05-May-2021 14:55:21)
 ------------------------------------------------------
 Symbolic Z-matrix:
 Charge =  0 Multiplicity = 1

                         Standard orientation:
 ---------------------------------------------------------------------
 Center     Atomic      Atomic             Coordinates (Angstroms)
 Number     Number       Type             X           Y           Z
 ---------------------------------------------------------------------
      1          6           0       -1.750178    2.597888    0.419774
      2          6           0       -3.116754    2.590746    0.121545
      3          6           0       -3.784882    1.386296   -0.118146
      4          6           0       -3.052232    0.202225   -0.051125
      5          6           0       -1.689966    0.176592    0.243603
      6          6           0       -1.042393    1.392912    0.479745
      7          1           0       -1.239144    3.538144    0.604593
      8          1           0       -3.668969    3.525022    0.074299
      9          1           0       -4.842211    1.351871   -0.351146
     10          1           0       -1.166259   -0.770797    0.283615
     11          1           0        0.018973    1.395430    0.711130
     12          7           0       -3.748669   -1.079155   -0.302997
     13          8           0       -3.080604   -2.108766   -0.237968
     14          8           0       -4.949413   -1.029628   -0.560673
     15          6           0        4.247766   -0.178015   -0.459019
     16          6           0        5.136473    0.849058    0.243339
     17          6           0        6.107025    1.543136   -0.712734
     18          1           0        4.882720   -0.929182   -0.948433
     19          1           0        3.682534    0.321797   -1.257828
     20          1           0        5.698829    0.347732    1.041488
     21          1           0        4.499326    1.597762    0.731298
     22          1           0        5.560270    2.068580   -1.502399
     23          1           0        6.766589    0.811448   -1.190446
     24          1           0        6.732592    2.273199   -0.189730
     25          6           0        3.272109   -0.880321    0.483629
     26          6           0        2.383403   -1.907394   -0.218729
     27          6           0        1.412849   -2.601472    0.737344
     28          1           0        3.837341   -1.380132    1.282438
     29          1           0        2.637155   -0.129153    0.973042
     30          1           0        3.020549   -2.656097   -0.706689
     31          1           0        1.821046   -1.406067   -1.016879
     32          1           0        0.753285   -1.869783    1.215056
     33          1           0        1.959604   -3.126915    1.527008
     34          1           0        0.787283   -3.331534    0.214339
 ---------------------------------------------------------------------

 SCF Done:  E(RHF) =  -669.535464395     A.U. after   15 cycles
 E2 =    -0.2091657139D+01 EUMP2 =    -0.67162712153348D+03

 The electronic state is 1-A.
 Alpha  occ. eigenvalues --  -20.60743 -20.60737 -15.85795 -11.31158 -11.27740
 Alpha  occ. eigenvalues --  -11.27698 -11.27492 -11.26761 -11.26751 -11.22125
 Alpha  occ. eigenvalues --  -11.22109 -11.22023 -11.21904 -11.21512 -11.21510
 Alpha  occ. eigenvalues --   -1.59817  -1.39370  -1.19339  -1.08987  -1.08736
 Alpha  occ. eigenvalues --   -1.04748  -1.04035  -0.96481  -0.95568  -0.87491
 Alpha  occ. eigenvalues --   -0.86142  -0.82403  -0.80089  -0.78800  -0.77447
 Alpha  occ. eigenvalues --   -0.72015  -0.71140  -0.70461  -0.65648  -0.64992
 Alpha  occ. eigenvalues --   -0.64762  -0.62202  -0.61345  -0.59821  -0.58073
 Alpha  occ. eigenvalues --   -0.55827  -0.55226  -0.53133  -0.53076  -0.52952
 Alpha  occ. eigenvalues --   -0.52759  -0.50416  -0.48774  -0.48768  -0.48393
 Alpha  occ. eigenvalues --   -0.47146  -0.46344  -0.46270  -0.44776  -0.44284
 Alpha  occ. eigenvalues --   -0.37326  -0.36348
 Alpha virt. eigenvalues --    0.05078   0.11296   0.16562   0.18415   0.22806
 Alpha virt. eigenvalues --    0.23631   0.24967   0.26279   0.26841   0.28456
 Alpha virt. eigenvalues --    0.29696   0.30483   0.31316   0.31538   0.31667

 Mulliken charges:
               1
     1  C   -0.170888
     2  C   -0.218890
     3  C   -0.170216
     4  C    0.159108
     5  C   -0.180936
     6  C   -0.223775
     7  H    0.225620
     8  H    0.223387
     9  H    0.275558
    10  H    0.288108
    11  H    0.225245
    12  N    0.487411
    13  O   -0.460103
    14  O   -0.460581
    15  C   -0.298740
    16  C   -0.299173
    17  C   -0.475946
    18  H    0.152960
    19  H    0.148753
    20  H    0.153788
    21  H    0.147887
    22  H    0.154896
    23  H    0.157130
    24  H    0.161126
    25  C   -0.298342
    26  C   -0.303038
    27  C   -0.479864
    28  H    0.153162
    29  H    0.140536
    30  H    0.156934
    31  H    0.151117
    32  H    0.144826
    33  H    0.159563
    34  H    0.173376
 Sum of Mulliken charges =  -0.00000

 Dipole moment (field-independent basis, Debye):
    X=              2.5893    Y=              4.3546    Z=              0.8386  Tot=              5.1352
 Quadrupole moment (field-independent basis, Debye-Ang):
   XX=           -105.7208   YY=            -91.3778   ZZ=            -95.9633
   XY=            -17.1401   XZ=             -1.6581   YZ=             -0.2679

 Normal termination of Gaussian 16 at Wed May  5 22:13:10 2021.
