 Gaussian 16, Revision A.03,
 Gaussian 16:  EM64L-G16RevA.03 25-Dec-2016

 -------------
 #p 6-31g* mp2
 -------------

 ------------------------------------------------------
 Input file generated by CHIRIPA (05-May-2021 14:55:22)
 ------------------------------------------------------
 Symbolic Z-matrix:
 Charge =  0 Multiplicity = 1

                         Standard orientation:
 ---------------------------------------------------------------------
 Center     Atomic      Atomic             Coordinates (Angstroms)
 Number     Number       Type             X           Y           Z
 ---------------------------------------------------------------------
      1          6           0       -3.961572   -2.169921    0.719916
      2          6           0       -4.650112   -0.961194    0.573588
      3          6           0       -3.995362    0.174634    0.088050
      4          6           0       -2.645621    0.065557   -0.242996
      5          6           0       -1.932216   -1.124499   -0.108419
      6          6           0       -2.607210   -2.247579    0.379047
      7          1           0       -4.478061   -3.047308    1.097843
      8          1           0       -5.701961   -0.897951    0.837519
      9          1           0       -4.504234    1.122945   -0.035128
     10          1           0       -0.884028   -1.156644   -0.379872
     11          1           0       -2.069947   -3.184976    0.491651
     12          7           0       -1.941751    1.261259   -0.758034
     13          8           0       -0.752335    1.139077   -1.042633
     14          8           0       -2.592803    2.297992   -0.867369
     15          6           0        4.101045   -0.332252    0.313325
     16          6           0        4.058719   -1.518873   -0.650067
     17          6           0        5.197747   -2.511572   -0.415638
     18          1           0        5.065707    0.182873    0.208352
     19          1           0        4.056719   -0.705446    1.345873
     20          1           0        4.101716   -1.143474   -1.680525
     21          1           0        3.093970   -2.031120   -0.542926
     22          1           0        5.154870   -2.913879    0.601669
     23          1           0        6.168344   -2.021191   -0.542394
     24          1           0        5.148272   -3.351878   -1.115137
     25          6           0        2.968721    0.668915    0.091440
     26          6           0        3.011048    1.855536    1.054832
     27          6           0        1.872020    2.848235    0.820403
     28          1           0        3.013048    1.042109   -0.941108
     29          1           0        2.004059    0.153790    0.196412
     30          1           0        3.975797    2.367782    0.947690
     31          1           0        2.968049    1.480137    2.085289
     32          1           0        0.901422    2.357854    0.947159
     33          1           0        1.914895    3.250543   -0.196904
     34          1           0        1.921495    3.688541    1.519902
 ---------------------------------------------------------------------

 SCF Done:  E(RHF) =  -669.535744166     A.U. after   15 cycles
 E2 =    -0.2091830734D+01 EUMP2 =    -0.67162757490002D+03

 The electronic state is 1-A.
 Alpha  occ. eigenvalues --  -20.60934 -20.60917 -15.85948 -11.31291 -11.27858
 Alpha  occ. eigenvalues --  -11.27851 -11.27593 -11.26866 -11.26856 -11.21314
 Alpha  occ. eigenvalues --  -11.20879 -11.20871 -11.20691 -11.20518 -11.19696
 Alpha  occ. eigenvalues --   -1.59986  -1.39542  -1.19461  -1.08862  -1.07787
 Alpha  occ. eigenvalues --   -1.04859  -1.02842  -0.95701  -0.95260  -0.86276
 Alpha  occ. eigenvalues --   -0.86252  -0.82535  -0.78957  -0.77657  -0.77447
 Alpha  occ. eigenvalues --   -0.72167  -0.71304  -0.70568  -0.65116  -0.64863
 Alpha  occ. eigenvalues --   -0.64436  -0.62207  -0.60255  -0.58697  -0.56856
 Alpha  occ. eigenvalues --   -0.55361  -0.54551  -0.53191  -0.52952  -0.51987
 Alpha  occ. eigenvalues --   -0.51658  -0.49226  -0.48934  -0.48904  -0.47238
 Alpha  occ. eigenvalues --   -0.46043  -0.45292  -0.45002  -0.44596  -0.43101
 Alpha  occ. eigenvalues --   -0.37439  -0.36461
 Alpha virt. eigenvalues --    0.04910   0.11185   0.16385   0.20800   0.23127
 Alpha virt. eigenvalues --    0.24881   0.25562   0.27519   0.27687   0.28777
 Alpha virt. eigenvalues --    0.29145   0.31099   0.31942   0.32173   0.32602

 Mulliken charges:
               1
     1  C   -0.170533
     2  C   -0.218581
     3  C   -0.170683
     4  C    0.157839
     5  C   -0.172378
     6  C   -0.218828
     7  H    0.226011
     8  H    0.223845
     9  H    0.275911
    10  H    0.277393
    11  H    0.223948
    12  N    0.488092
    13  O   -0.459011
    14  O   -0.458690
    15  C   -0.298373
    16  C   -0.297098
    17  C   -0.475185
    18  H    0.148934
    19  H    0.145696
    20  H    0.154050
    21  H    0.144613
    22  H    0.153264
    23  H    0.155919
    24  H    0.158078
    25  C   -0.296487
    26  C   -0.301148
    27  C   -0.471990
    28  H    0.154519
    29  H    0.151059
    30  H    0.148017
    31  H    0.145405
    32  H    0.162986
    33  H    0.161542
    34  H    0.151864
 Sum of Mulliken charges =  -0.00000

 Dipole moment (field-independent basis, Debye):
    X=             -2.7216    Y=             -4.1214    Z=              1.6783  Tot=              5.2163
 Quadrupole moment (field-independent basis, Debye-Ang):
   XX=            -79.0332   YY=            -94.9419   ZZ=            -96.2463
   XY=              9.6706   XZ=             -5.5578   YZ=              0.6838

 Normal termination of Gaussian 16 at Wed May  5 23:55:06 2021.
