 Gaussian 16, Revision A.03,
 Gaussian 16:  EM64L-G16RevA.03 25-Dec-2016

 -------------
 #p 6-31g* mp2
 -------------

 ------------------------------------------------------
 Input file generated by CHIRIPA (05-May-2021 14:51:09)
 ------------------------------------------------------
 Symbolic Z-matrix:
 Charge =  0 Multiplicity = 1

                         Standard orientation:
 ---------------------------------------------------------------------
 Center     Atomic      Atomic             Coordinates (Angstroms)
 Number     Number       Type             X           Y           Z
 ---------------------------------------------------------------------
      1          6           0       -3.391651    1.115213   -0.270410
      2          6           0       -2.261284    1.442360    0.705926
      3          6           0       -1.556626    2.758306    0.374963
      4          1           0       -2.985017    1.068736   -1.289936
      5          1           0       -4.122529    1.935670   -0.262505
      6          1           0       -1.533458    0.620893    0.697209
      7          1           0       -2.670622    1.487875    1.723270
      8          1           0       -2.265244    3.592381    0.402893
      9          1           0       -1.121619    2.720474   -0.628999
     10          1           0       -0.752157    2.972670    1.085412
     11          6           0       -4.105689   -0.197387    0.047331
     12          6           0       -5.236055   -0.524534   -0.929005
     13          6           0       -5.940713   -1.840480   -0.598041
     14          1           0       -3.374810   -1.017843    0.039427
     15          1           0       -4.512322   -0.150910    1.066858
     16          1           0       -4.826718   -0.570048   -1.946348
     17          1           0       -5.963881    0.296933   -0.920287
     18          1           0       -6.375720   -1.802647    0.405920
     19          1           0       -5.232095   -2.674555   -0.625971
     20          1           0       -6.745183   -2.054843   -1.308490
     21          6           0        2.999506   -0.324937    0.176626
     22          6           0        2.273376   -1.351132    1.047054
     23          6           0        0.775377   -1.069643    1.167705
     24          1           0        2.846203    0.677951    0.598120
     25          1           0        2.545359   -0.316255   -0.823908
     26          1           0        2.729656   -1.358861    2.045234
     27          1           0        2.428585   -2.351715    0.623546
     28          1           0        0.300395   -1.082081    0.181379
     29          1           0        0.603178   -0.083586    1.611146
     30          1           0        0.275955   -1.815271    1.794186
     31          6           0        4.497833   -0.592889    0.046453
     32          6           0        5.223963    0.433305   -0.823976
     33          6           0        6.721963    0.151817   -0.944627
     34          1           0        4.951980   -0.601571    1.046988
     35          1           0        4.651136   -1.595778   -0.375043
     36          1           0        5.068754    1.433888   -0.400467
     37          1           0        4.767683    0.441036   -1.822156
     38          1           0        6.894162   -0.834240   -1.388067
     39          1           0        7.196944    0.164254    0.041698
     40          1           0        7.221384    0.897444   -1.571107
 ---------------------------------------------------------------------

 SCF Done:  E(RHF) =  -470.732809949     A.U. after   11 cycles
 E2 =    -0.1582958001D+01 EUMP2 =    -0.47231576795006D+03

 The electronic state is 1-A.
 Alpha  occ. eigenvalues --  -11.21645 -11.21619 -11.21553 -11.21435 -11.21396
 Alpha  occ. eigenvalues --  -11.21375 -11.21324 -11.21259 -11.21138 -11.21085
 Alpha  occ. eigenvalues --  -11.21036 -11.20996  -1.08465  -1.08343  -1.03581
 Alpha  occ. eigenvalues --   -1.03439  -0.96033  -0.95903  -0.87062  -0.86914
 Alpha  occ. eigenvalues --   -0.79720  -0.79446  -0.78296  -0.78128  -0.65093
 Alpha  occ. eigenvalues --   -0.64985  -0.60972  -0.60865  -0.59389  -0.59285
 Alpha  occ. eigenvalues --   -0.57689  -0.57464  -0.55317  -0.55192  -0.52735
 Alpha  occ. eigenvalues --   -0.52611  -0.52479  -0.52319  -0.49967  -0.49847
 Alpha  occ. eigenvalues --   -0.48141  -0.47710  -0.46668  -0.46497  -0.45909
 Alpha  occ. eigenvalues --   -0.45741  -0.45681  -0.45416  -0.43817  -0.43701
 Alpha virt. eigenvalues --    0.21927   0.22967   0.23685   0.24900   0.25791
 Alpha virt. eigenvalues --    0.26366   0.27154   0.27428   0.27890   0.29217
 Alpha virt. eigenvalues --    0.30638   0.31171   0.31732   0.31853   0.32341

 Mulliken charges:
               1
     1  C   -0.297491
     2  C   -0.310942
     3  C   -0.475272
     4  H    0.148696
     5  H    0.148855
     6  H    0.166881
     7  H    0.150574
     8  H    0.154842
     9  H    0.154835
    10  H    0.158812
    11  C   -0.298403
    12  C   -0.299534
    13  C   -0.475639
    14  H    0.149590
    15  H    0.149521
    16  H    0.151638
    17  H    0.151851
    18  H    0.155114
    19  H    0.155056
    20  H    0.160037
    21  C   -0.298280
    22  C   -0.300081
    23  C   -0.478767
    24  H    0.149940
    25  H    0.149300
    26  H    0.152196
    27  H    0.151946
    28  H    0.154607
    29  H    0.158678
    30  H    0.161114
    31  C   -0.298317
    32  C   -0.299663
    33  C   -0.475731
    34  H    0.149612
    35  H    0.149660
    36  H    0.152109
    37  H    0.151913
    38  H    0.155171
    39  H    0.155221
    40  H    0.160347
 Sum of Mulliken charges =  -0.00000

 Dipole moment (field-independent basis, Debye):
    X=              0.0553    Y=             -0.0333    Z=              0.0199  Tot=              0.0675
 Quadrupole moment (field-independent basis, Debye-Ang):
   XX=            -86.0801   YY=            -85.1834   ZZ=            -83.7763
   XY=             -0.6478   XZ=              0.0046   YZ=              0.8558

 Normal termination of Gaussian 16 at Wed May  5 18:08:06 2021.
