 Gaussian 16, Revision A.03,
 Gaussian 16:  EM64L-G16RevA.03 25-Dec-2016

 -------------
 #p 6-31g* mp2
 -------------

 ------------------------------------------------------
 Input file generated by CHIRIPA (05-May-2021 14:51:11)
 ------------------------------------------------------
 Symbolic Z-matrix:
 Charge =  0 Multiplicity = 1

                         Standard orientation:
 ---------------------------------------------------------------------
 Center     Atomic      Atomic             Coordinates (Angstroms)
 Number     Number       Type             X           Y           Z
 ---------------------------------------------------------------------
      1          6           0        3.947015   -0.635963   -0.369871
      2          6           0        5.209767   -1.259323    0.225836
      3          6           0        5.313908   -2.759995   -0.047896
      4          1           0        3.065076   -1.146966    0.040013
      5          1           0        3.935312   -0.813515   -1.454184
      6          1           0        5.219772   -1.079448    1.308500
      7          1           0        6.088796   -0.746649   -0.185368
      8          1           0        5.329196   -2.954950   -1.125097
      9          1           0        4.455234   -3.289640    0.377260
     10          1           0        6.223936   -3.185168    0.386773
     11          6           0        3.828673    0.863821   -0.104597
     12          6           0        2.565922    1.487181   -0.700305
     13          6           0        2.461780    2.987854   -0.426572
     14          1           0        3.840377    1.041373    0.979715
     15          1           0        4.710612    1.374824   -0.514482
     16          1           0        1.686893    0.974507   -0.289100
     17          1           0        2.555917    1.307306   -1.782968
     18          1           0        3.320454    3.517498   -0.851728
     19          1           0        2.446492    3.182808    0.650628
     20          1           0        1.551753    3.413027   -0.861242
     21          6           0       -3.181907    0.154694    0.123537
     22          6           0       -2.351014    0.237471    1.404453
     23          6           0       -0.941174    0.776688    1.160751
     24          1           0       -2.662821   -0.486622   -0.601865
     25          1           0       -3.243711    1.153487   -0.330323
     26          1           0       -2.291956   -0.760920    1.856499
     27          1           0       -2.872231    0.878510    2.126961
     28          1           0       -0.982458    1.782980    0.731481
     29          1           0       -0.398886    0.134236    0.459481
     30          1           0       -0.364644    0.827503    2.089670
     31          6           0       -4.593781   -0.382552    0.350932
     32          6           0       -5.424675   -0.465329   -0.929985
     33          6           0       -6.834514   -1.004546   -0.686283
     34          1           0       -4.531977   -1.381345    0.804792
     35          1           0       -5.112868    0.258764    1.076334
     36          1           0       -4.903457   -1.106368   -1.652493
     37          1           0       -5.483733    0.533062   -1.382030
     38          1           0       -7.376803   -0.362094    0.014987
     39          1           0       -6.793231   -2.010839   -0.257013
     40          1           0       -7.411045   -1.055361   -1.615202
 ---------------------------------------------------------------------

 SCF Done:  E(RHF) =  -470.733060159     A.U. after   11 cycles
 E2 =    -0.1582752646D+01 EUMP2 =    -0.47231581280526D+03

 The electronic state is 1-A.
 Alpha  occ. eigenvalues --  -11.21643 -11.21617 -11.21569 -11.21431 -11.21430
 Alpha  occ. eigenvalues --  -11.21371 -11.21347 -11.21274 -11.21135 -11.21083
 Alpha  occ. eigenvalues --  -11.21051 -11.20979  -1.08461  -1.08359  -1.03574
 Alpha  occ. eigenvalues --   -1.03448  -0.96028  -0.95907  -0.87047  -0.86927
 Alpha  occ. eigenvalues --   -0.79687  -0.79477  -0.78286  -0.78156  -0.65099
 Alpha  occ. eigenvalues --   -0.64987  -0.60991  -0.60841  -0.59384  -0.59290
 Alpha  occ. eigenvalues --   -0.57668  -0.57483  -0.55314  -0.55208  -0.52720
 Alpha  occ. eigenvalues --   -0.52618  -0.52445  -0.52336  -0.50039  -0.49801
 Alpha  occ. eigenvalues --   -0.48068  -0.47759  -0.46742  -0.46460  -0.45890
 Alpha  occ. eigenvalues --   -0.45743  -0.45685  -0.45468  -0.43814  -0.43712
 Alpha virt. eigenvalues --    0.21906   0.22959   0.23744   0.24647   0.25646
 Alpha virt. eigenvalues --    0.26661   0.27126   0.27602   0.27749   0.29109
 Alpha virt. eigenvalues --    0.30686   0.31118   0.31677   0.31903   0.32438

 Mulliken charges:
               1
     1  C   -0.298305
     2  C   -0.299552
     3  C   -0.475666
     4  H    0.148991
     5  H    0.149307
     6  H    0.151874
     7  H    0.151955
     8  H    0.155080
     9  H    0.154983
    10  H    0.160147
    11  C   -0.297487
    12  C   -0.309332
    13  C   -0.474773
    14  H    0.149158
    15  H    0.149118
    16  H    0.164268
    17  H    0.150645
    18  H    0.154439
    19  H    0.155019
    20  H    0.159497
    21  C   -0.298441
    22  C   -0.300100
    23  C   -0.478254
    24  H    0.149862
    25  H    0.149641
    26  H    0.151911
    27  H    0.152112
    28  H    0.157004
    29  H    0.156536
    30  H    0.160087
    31  C   -0.298314
    32  C   -0.299678
    33  C   -0.475727
    34  H    0.149551
    35  H    0.149712
    36  H    0.152021
    37  H    0.151981
    38  H    0.155200
    39  H    0.155202
    40  H    0.160328
 Sum of Mulliken charges =  -0.00000

 Dipole moment (field-independent basis, Debye):
    X=             -0.0513    Y=             -0.0026    Z=              0.0138  Tot=              0.0532
 Quadrupole moment (field-independent basis, Debye-Ang):
   XX=            -85.7299   YY=            -85.2239   ZZ=            -84.0515
   XY=             -0.4303   XZ=             -0.4136   YZ=             -0.1026

 Normal termination of Gaussian 16 at Wed May  5 18:15:05 2021.
