 Gaussian 16, Revision A.03,
 Gaussian 16:  EM64L-G16RevA.03 25-Dec-2016

 -------------
 #p 6-31g* mp2
 -------------

 ------------------------------------------------------
 Input file generated by CHIRIPA (05-May-2021 14:55:25)
 ------------------------------------------------------
 Symbolic Z-matrix:
 Charge =  0 Multiplicity = 1

                         Standard orientation:
 ---------------------------------------------------------------------
 Center     Atomic      Atomic             Coordinates (Angstroms)
 Number     Number       Type             X           Y           Z
 ---------------------------------------------------------------------
      1          6           0        1.689396    1.795597    1.038471
      2          6           0        2.669989    2.050902    0.074221
      3          6           0        3.496670    1.022280   -0.387388
      4          6           0        3.314440   -0.255494    0.139277
      5          6           0        2.346409   -0.541450    1.100753
      6          6           0        1.531015    0.502516    1.547761
      7          1           0        1.051594    2.600615    1.391389
      8          1           0        2.795250    3.054150   -0.323081
      9          1           0        4.263718    1.192055   -1.133198
     10          1           0        2.245353   -1.551824    1.478046
     11          1           0        0.770302    0.301321    2.296681
     12          7           0        4.183635   -1.352571   -0.341679
     13          8           0        4.002988   -2.469607    0.138149
     14          8           0        5.029100   -1.074652   -1.189375
     15          6           0       -4.615713   -0.110165    0.201196
     16          6           0       -5.700099   -0.964482   -0.456253
     17          6           0       -6.806639   -1.368206    0.518615
     18          1           0       -4.180087   -0.665884    1.042832
     19          1           0       -5.077154    0.791427    0.627339
     20          1           0       -5.236547   -1.863521   -0.882237
     21          1           0       -6.133062   -0.406740   -1.296540
     22          1           0       -7.295678   -0.481564    0.934917
     23          1           0       -6.394068   -1.946622    1.351575
     24          1           0       -7.571236   -1.978353    0.027724
     25          6           0       -3.502522    0.301352   -0.760670
     26          6           0       -2.418137    1.155666   -0.103222
     27          6           0       -1.311596    1.559393   -1.078089
     28          1           0       -3.041081   -0.600242   -1.186813
     29          1           0       -3.938149    0.857070   -1.602306
     30          1           0       -1.985173    0.597925    0.737067
     31          1           0       -2.881689    2.054707    0.322763
     32          1           0       -1.724167    2.137808   -1.911049
     33          1           0       -0.822558    0.672749   -1.494391
     34          1           0       -0.547000    2.169539   -0.587198
 ---------------------------------------------------------------------

 SCF Done:  E(RHF) =  -669.534621219     A.U. after   15 cycles
 E2 =    -0.2092492296D+01 EUMP2 =    -0.67162711351486D+03

 The electronic state is 1-A.
 Alpha  occ. eigenvalues --  -20.60780 -20.60775 -15.85836 -11.31204 -11.27796
 Alpha  occ. eigenvalues --  -11.27788 -11.27536 -11.26795 -11.26783 -11.22226
 Alpha  occ. eigenvalues --  -11.21919 -11.21845 -11.21772 -11.21533 -11.21349
 Alpha  occ. eigenvalues --   -1.59857  -1.39410  -1.19393  -1.08885  -1.08781
 Alpha  occ. eigenvalues --   -1.04794  -1.03965  -0.96406  -0.95618  -0.87415
 Alpha  occ. eigenvalues --   -0.86194  -0.82453  -0.80040  -0.78683  -0.77489
 Alpha  occ. eigenvalues --   -0.72054  -0.71181  -0.70536  -0.65504  -0.65046
 Alpha  occ. eigenvalues --   -0.64797  -0.62142  -0.61357  -0.59832  -0.58051
 Alpha  occ. eigenvalues --   -0.55681  -0.55323  -0.53480  -0.52908  -0.52882
 Alpha  occ. eigenvalues --   -0.52612  -0.50316  -0.48815  -0.48808  -0.48354
 Alpha  occ. eigenvalues --   -0.47074  -0.46225  -0.46140  -0.44815  -0.44236
 Alpha  occ. eigenvalues --   -0.37275  -0.36394
 Alpha virt. eigenvalues --    0.05022   0.11156   0.16443   0.20464   0.22627
 Alpha virt. eigenvalues --    0.24141   0.25678   0.26673   0.26874   0.27722
 Alpha virt. eigenvalues --    0.28721   0.30086   0.31186   0.31646   0.32383

 Mulliken charges:
               1
     1  C   -0.169379
     2  C   -0.217886
     3  C   -0.170316
     4  C    0.158285
     5  C   -0.171503
     6  C   -0.217586
     7  H    0.226383
     8  H    0.223800
     9  H    0.275858
    10  H    0.275615
    11  H    0.223906
    12  N    0.488096
    13  O   -0.460573
    14  O   -0.460344
    15  C   -0.298257
    16  C   -0.300116
    17  C   -0.475909
    18  H    0.148205
    19  H    0.149113
    20  H    0.153360
    21  H    0.152716
    22  H    0.155034
    23  H    0.155147
    24  H    0.161662
    25  C   -0.298525
    26  C   -0.300573
    27  C   -0.474360
    28  H    0.152127
    29  H    0.151319
    30  H    0.145447
    31  H    0.149875
    32  H    0.155086
    33  H    0.160244
    34  H    0.154049
 Sum of Mulliken charges =  -0.00000

 Dipole moment (field-independent basis, Debye):
    X=             -3.0818    Y=              3.8333    Z=              1.6467  Tot=              5.1869
 Quadrupole moment (field-independent basis, Debye-Ang):
   XX=           -114.8150   YY=            -94.5871   ZZ=            -93.2172
   XY=             14.8756   XZ=              4.3289   YZ=             -2.1004

 Normal termination of Gaussian 16 at Thu May  6 14:24:18 2021.
