 Gaussian 16, Revision A.03,
 Gaussian 16:  EM64L-G16RevA.03 25-Dec-2016

 -------------
 #p 6-31g* mp2
 -------------

 ------------------------------------------------------
 Input file generated by CHIRIPA (05-May-2021 14:55:19)
 ------------------------------------------------------
 Symbolic Z-matrix:
 Charge =  0 Multiplicity = 1

                         Standard orientation:
 ---------------------------------------------------------------------
 Center     Atomic      Atomic             Coordinates (Angstroms)
 Number     Number       Type             X           Y           Z
 ---------------------------------------------------------------------
      1          6           0        4.623235    0.586556   -0.094669
      2          6           0        4.245386   -0.382601   -1.029808
      3          6           0        3.001575   -1.013869   -0.935022
      4          6           0        2.156586   -0.650011    0.112304
      5          6           0        2.504361    0.311797    1.059547
      6          6           0        3.753051    0.930056    0.945191
      7          1           0        5.591352    1.071887   -0.175902
      8          1           0        4.919148   -0.651368   -1.838420
      9          1           0        2.683745   -1.767501   -1.645262
     10          1           0        1.811284    0.558646    1.854611
     11          1           0        4.043840    1.682367    1.672869
     12          7           0        0.837237   -1.311420    0.223009
     13          8           0        0.110901   -0.973072    1.154992
     14          8           0        0.554450   -2.155656   -0.624300
     15          6           0       -2.955458    1.414188   -0.356264
     16          6           0       -1.602568    2.021545    0.016283
     17          6           0       -1.450961    3.465723   -0.462421
     18          1           0       -3.080944    1.455553   -1.446900
     19          1           0       -3.757102    2.030202    0.074189
     20          1           0       -0.803686    1.403791   -0.413583
     21          1           0       -1.480205    1.978556    1.106143
     22          1           0       -2.227179    4.100665   -0.023176
     23          1           0       -1.546816    3.522633   -1.551536
     24          1           0       -0.476637    3.880279   -0.185478
     25          6           0       -3.122061   -0.029222    0.115474
     26          6           0       -4.474952   -0.636578   -0.257073
     27          6           0       -4.626559   -2.080757    0.221630
     28          1           0       -2.320417   -0.645236   -0.314979
     29          1           0       -2.996575   -0.070586    1.206110
     30          1           0       -4.597315   -0.593590   -1.346934
     31          1           0       -5.273833   -0.018825    0.172792
     32          1           0       -4.530703   -2.137668    1.310746
     33          1           0       -3.850341   -2.715698   -0.217615
     34          1           0       -5.600883   -2.495313   -0.055312
 ---------------------------------------------------------------------

 SCF Done:  E(RHF) =  -669.535941176     A.U. after   15 cycles
 E2 =    -0.2093181863D+01 EUMP2 =    -0.67162912303927D+03

 The electronic state is 1-A.
 Alpha  occ. eigenvalues --  -20.61032 -20.61005 -15.86012 -11.31324 -11.27882
 Alpha  occ. eigenvalues --  -11.27875 -11.27614 -11.26879 -11.26868 -11.20799
 Alpha  occ. eigenvalues --  -11.20574 -11.20355 -11.20345 -11.19795 -11.19739
 Alpha  occ. eigenvalues --   -1.60066  -1.39621  -1.19486  -1.08897  -1.07275
 Alpha  occ. eigenvalues --   -1.04876  -1.02515  -0.95742  -0.94951  -0.86278
 Alpha  occ. eigenvalues --   -0.85970  -0.82579  -0.78610  -0.77635  -0.76987
 Alpha  occ. eigenvalues --   -0.72230  -0.71373  -0.70593  -0.65140  -0.64879
 Alpha  occ. eigenvalues --   -0.63919  -0.62223  -0.59928  -0.58370  -0.56553
 Alpha  occ. eigenvalues --   -0.55384  -0.54244  -0.53207  -0.52967  -0.51729
 Alpha  occ. eigenvalues --   -0.51378  -0.49086  -0.49009  -0.48835  -0.46926
 Alpha  occ. eigenvalues --   -0.45696  -0.45213  -0.44460  -0.44141  -0.42703
 Alpha  occ. eigenvalues --   -0.37460  -0.36473
 Alpha virt. eigenvalues --    0.04860   0.11157   0.16353   0.21263   0.23800
 Alpha virt. eigenvalues --    0.25207   0.27082   0.27656   0.27733   0.28796
 Alpha virt. eigenvalues --    0.28981   0.31028   0.32012   0.32343   0.32515

 Mulliken charges:
               1
     1  C   -0.170339
     2  C   -0.218626
     3  C   -0.170903
     4  C    0.158150
     5  C   -0.170187
     6  C   -0.218713
     7  H    0.226164
     8  H    0.223911
     9  H    0.275765
    10  H    0.276489
    11  H    0.224025
    12  N    0.487387
    13  O   -0.455088
    14  O   -0.460847
    15  C   -0.299393
    16  C   -0.293727
    17  C   -0.475012
    18  H    0.145375
    19  H    0.144462
    20  H    0.146468
    21  H    0.152920
    22  H    0.153830
    23  H    0.153477
    24  H    0.152995
    25  C   -0.299109
    26  C   -0.299506
    27  C   -0.475091
    28  H    0.168558
    29  H    0.153053
    30  H    0.147248
    31  H    0.145377
    32  H    0.154627
    33  H    0.162748
    34  H    0.153511
 Sum of Mulliken charges =  -0.00000

 Dipole moment (field-independent basis, Debye):
    X=              4.9257    Y=              2.0990    Z=             -0.2846  Tot=              5.3618
 Quadrupole moment (field-independent basis, Debye-Ang):
   XX=            -76.1110   YY=            -98.5500   ZZ=            -91.1054
   XY=              1.3757   XZ=             -1.8101   YZ=              3.8346

 Normal termination of Gaussian 16 at Thu May  6 15:45:48 2021.
