 Gaussian 16, Revision A.03,
 Gaussian 16:  EM64L-G16RevA.03 25-Dec-2016

 -------------
 #p 6-31g* mp2
 -------------

 ------------------------------------------------------
 Input file generated by CHIRIPA (05-May-2021 14:55:24)
 ------------------------------------------------------
 Symbolic Z-matrix:
 Charge =  0 Multiplicity = 1

                         Standard orientation:
 ---------------------------------------------------------------------
 Center     Atomic      Atomic             Coordinates (Angstroms)
 Number     Number       Type             X           Y           Z
 ---------------------------------------------------------------------
      1          6           0       -4.536315    0.321079   -0.863972
      2          6           0       -3.944021    1.091842    0.141828
      3          6           0       -2.746005    0.684237    0.736103
      4          6           0       -2.164985   -0.504892    0.298290
      5          6           0       -2.730637   -1.294617   -0.701541
      6          6           0       -3.928804   -0.867595   -1.281710
      7          1           0       -5.467021    0.645259   -1.320140
      8          1           0       -4.413578    2.015428    0.468247
      9          1           0       -2.265882    1.261705    1.516763
     10          1           0       -2.238916   -2.210593   -1.005872
     11          1           0       -4.386524   -1.468195   -2.062617
     12          7           0       -0.896619   -0.946684    0.919956
     13          8           0       -0.404700   -1.998276    0.516462
     14          8           0       -0.418409   -0.233002    1.798939
     15          6           0        3.559267    0.070203   -0.532350
     16          6           0        3.491154   -1.325094    0.089335
     17          6           0        4.538685   -2.279695   -0.484432
     18          1           0        3.425349   -0.012823   -1.619602
     19          1           0        4.563308    0.486839   -0.372000
     20          1           0        2.487113   -1.738414   -0.070932
     21          1           0        3.625058   -1.238718    1.175256
     22          1           0        5.548185   -1.892932   -0.311439
     23          1           0        4.403774   -2.395468   -1.564708
     24          1           0        4.472110   -3.271306   -0.026024
     25          6           0        2.518242    1.035920    0.031019
     26          6           0        2.586355    2.431217   -0.590666
     27          6           0        1.538824    3.385818   -0.016899
     28          1           0        1.514201    0.619284   -0.129331
     29          1           0        2.652160    1.118947    1.118271
     30          1           0        2.452451    2.344840   -1.676587
     31          1           0        3.590396    2.844536   -0.430399
     32          1           0        1.673735    3.501591    1.063377
     33          1           0        0.529325    2.999055   -0.189892
     34          1           0        1.605398    4.377428   -0.475308
 ---------------------------------------------------------------------

 SCF Done:  E(RHF) =  -669.536019087     A.U. after   15 cycles
 E2 =    -0.2092897987D+01 EUMP2 =    -0.67162891707436D+03

 The electronic state is 1-A.
 Alpha  occ. eigenvalues --  -20.61038 -20.61026 -15.86026 -11.31347 -11.27904
 Alpha  occ. eigenvalues --  -11.27897 -11.27633 -11.26904 -11.26893 -11.20826
 Alpha  occ. eigenvalues --  -11.20527 -11.20237 -11.20153 -11.20030 -11.19919
 Alpha  occ. eigenvalues --   -1.60080  -1.39635  -1.19509  -1.08917  -1.07308
 Alpha  occ. eigenvalues --   -1.04900  -1.02490  -0.95760  -0.94988  -0.86301
 Alpha  occ. eigenvalues --   -0.86016  -0.82596  -0.78545  -0.77653  -0.77044
 Alpha  occ. eigenvalues --   -0.72254  -0.71399  -0.70613  -0.65163  -0.64900
 Alpha  occ. eigenvalues --   -0.63951  -0.62245  -0.59903  -0.58366  -0.56561
 Alpha  occ. eigenvalues --   -0.55404  -0.54305  -0.53234  -0.52989  -0.51728
 Alpha  occ. eigenvalues --   -0.51405  -0.49078  -0.49029  -0.48941  -0.46899
 Alpha  occ. eigenvalues --   -0.45669  -0.44955  -0.44508  -0.44419  -0.42721
 Alpha  occ. eigenvalues --   -0.37484  -0.36499
 Alpha virt. eigenvalues --    0.04829   0.11130   0.16312   0.21253   0.23812
 Alpha virt. eigenvalues --    0.25181   0.27103   0.27504   0.28037   0.28810
 Alpha virt. eigenvalues --    0.28907   0.31016   0.31803   0.32533   0.32820

 Mulliken charges:
               1
     1  C   -0.170458
     2  C   -0.218509
     3  C   -0.171322
     4  C    0.157245
     5  C   -0.170912
     6  C   -0.218516
     7  H    0.226275
     8  H    0.224327
     9  H    0.276811
    10  H    0.275812
    11  H    0.224035
    12  N    0.486234
    13  O   -0.459393
    14  O   -0.454659
    15  C   -0.298674
    16  C   -0.306453
    17  C   -0.475101
    18  H    0.143414
    19  H    0.144098
    20  H    0.173735
    21  H    0.153280
    22  H    0.149925
    23  H    0.150201
    24  H    0.159428
    25  C   -0.293404
    26  C   -0.299730
    27  C   -0.472866
    28  H    0.150337
    29  H    0.156187
    30  H    0.147414
    31  H    0.149647
    32  H    0.157041
    33  H    0.149153
    34  H    0.155396
 Sum of Mulliken charges =  -0.00000

 Dipole moment (field-independent basis, Debye):
    X=             -4.7699    Y=              1.4204    Z=             -1.9949  Tot=              5.3618
 Quadrupole moment (field-independent basis, Debye-Ang):
   XX=            -77.0626   YY=            -94.4877   ZZ=            -94.4892
   XY=             -0.5342   XZ=              4.8263   YZ=              4.4534

 Normal termination of Gaussian 16 at Thu May  6 15:59:46 2021.
