 Gaussian 16, Revision A.03,
 Gaussian 16:  EM64L-G16RevA.03 25-Dec-2016

 -------------
 #p 6-31g* mp2
 -------------

 ------------------------------------------------------
 Input file generated by CHIRIPA (05-May-2021 14:51:11)
 ------------------------------------------------------
 Symbolic Z-matrix:
 Charge =  0 Multiplicity = 1

                         Standard orientation:
 ---------------------------------------------------------------------
 Center     Atomic      Atomic             Coordinates (Angstroms)
 Number     Number       Type             X           Y           Z
 ---------------------------------------------------------------------
      1          6           0        4.253496   -0.595276   -0.114093
      2          6           0        5.303942    0.427620    0.319764
      3          6           0        6.725728   -0.133672    0.284114
      4          1           0        4.317739   -1.476689    0.538540
      5          1           0        4.486696   -0.941338   -1.130584
      6          1           0        5.068046    0.772677    1.334606
      7          1           0        5.237062    1.306780   -0.333856
      8          1           0        6.985474   -0.460843   -0.727861
      9          1           0        6.815497   -0.997980    0.950082
     10          1           0        7.460584    0.614219    0.597968
     11          6           0        2.827174   -0.049007   -0.083710
     12          6           0        1.776728   -1.071903   -0.517568
     13          6           0        0.354942   -0.510611   -0.481917
     14          1           0        2.593974    0.297054    0.932781
     15          1           0        2.762930    0.832406   -0.736343
     16          1           0        1.843608   -1.951063    0.136053
     17          1           0        2.012624   -1.416960   -1.532409
     18          1           0        0.265172    0.353697   -1.147885
     19          1           0        0.095195   -0.183441    0.530058
     20          1           0       -0.379914   -1.258503   -0.795771
     21          6           0       -3.498833    1.009166   -0.232320
     22          6           0       -2.550248    1.971204    0.483680
     23          6           0       -2.477943    3.341469   -0.190811
     24          1           0       -3.171975    0.889718   -1.274356
     25          1           0       -4.502747    1.454393   -0.268717
     26          1           0       -1.548732    1.523691    0.519938
     27          1           0       -2.879290    2.088227    1.524187
     28          1           0       -3.466113    3.812213   -0.213681
     29          1           0       -2.127995    3.244470   -1.223636
     30          1           0       -1.794228    4.013347    0.337369
     31          6           0       -3.581837   -0.364883    0.430123
     32          6           0       -4.530421   -1.326921   -0.285877
     33          6           0       -4.602727   -2.697186    0.388614
     34          1           0       -2.577923   -0.810109    0.466520
     35          1           0       -3.908695   -0.245434    1.472160
     36          1           0       -4.201379   -1.443943   -1.326384
     37          1           0       -5.531938   -0.879408   -0.322135
     38          1           0       -4.952675   -2.600186    1.421439
     39          1           0       -3.614558   -3.167929    0.411484
     40          1           0       -5.286442   -3.369064   -0.139566
 ---------------------------------------------------------------------

 SCF Done:  E(RHF) =  -470.732335079     A.U. after   11 cycles
 E2 =    -0.1583804489D+01 EUMP2 =    -0.47231613956868D+03

 The electronic state is 1-A.
 Alpha  occ. eigenvalues --  -11.21694 -11.21640 -11.21523 -11.21470 -11.21406
 Alpha  occ. eigenvalues --  -11.21400 -11.21261 -11.21215 -11.21196 -11.21101
 Alpha  occ. eigenvalues --  -11.21026 -11.20975  -1.08504  -1.08306  -1.03616
 Alpha  occ. eigenvalues --   -1.03423  -0.96078  -0.95878  -0.87105  -0.86897
 Alpha  occ. eigenvalues --   -0.79723  -0.79477  -0.78331  -0.78087  -0.65136
 Alpha  occ. eigenvalues --   -0.64947  -0.61009  -0.60863  -0.59444  -0.59251
 Alpha  occ. eigenvalues --   -0.57689  -0.57478  -0.55376  -0.55167  -0.52790
 Alpha  occ. eigenvalues --   -0.52624  -0.52497  -0.52276  -0.50032  -0.49825
 Alpha  occ. eigenvalues --   -0.48144  -0.47713  -0.46753  -0.46482  -0.45942
 Alpha  occ. eigenvalues --   -0.45785  -0.45647  -0.45332  -0.43814  -0.43664
 Alpha virt. eigenvalues --    0.21282   0.22936   0.23947   0.24454   0.25772
 Alpha virt. eigenvalues --    0.26509   0.27312   0.27534   0.27946   0.29572
 Alpha virt. eigenvalues --    0.30297   0.30971   0.31784   0.32142   0.32307

 Mulliken charges:
               1
     1  C   -0.298351
     2  C   -0.299704
     3  C   -0.475752
     4  H    0.149809
     5  H    0.149656
     6  H    0.152059
     7  H    0.152053
     8  H    0.155234
     9  H    0.155250
    10  H    0.160417
    11  C   -0.298743
    12  C   -0.300054
    13  C   -0.480348
    14  H    0.149749
    15  H    0.149837
    16  H    0.152368
    17  H    0.152158
    18  H    0.156396
    19  H    0.158570
    20  H    0.161774
    21  C   -0.296681
    22  C   -0.308148
    23  C   -0.475186
    24  H    0.149189
    25  H    0.148712
    26  H    0.162435
    27  H    0.150399
    28  H    0.154713
    29  H    0.154244
    30  H    0.159536
    31  C   -0.305147
    32  C   -0.299492
    33  C   -0.475448
    34  H    0.157428
    35  H    0.148562
    36  H    0.151322
    37  H    0.151686
    38  H    0.155100
    39  H    0.154435
    40  H    0.159964
 Sum of Mulliken charges =  -0.00000

 Dipole moment (field-independent basis, Debye):
    X=              0.0981    Y=             -0.0286    Z=             -0.0024  Tot=              0.1022
 Quadrupole moment (field-independent basis, Debye-Ang):
   XX=            -85.6789   YY=            -85.9072   ZZ=            -83.6466
   XY=             -0.0393   XZ=             -0.5016   YZ=              0.2694

 Normal termination of Gaussian 16 at Wed May  5 19:50:25 2021.
