 Gaussian 16, Revision A.03,
 Gaussian 16:  EM64L-G16RevA.03 25-Dec-2016

 -------------
 #p 6-31g* mp2
 -------------

 ------------------------------------------------------
 Input file generated by CHIRIPA (05-May-2021 14:51:14)
 ------------------------------------------------------
 Symbolic Z-matrix:
 Charge =  0 Multiplicity = 1

                         Standard orientation:
 ---------------------------------------------------------------------
 Center     Atomic      Atomic             Coordinates (Angstroms)
 Number     Number       Type             X           Y           Z
 ---------------------------------------------------------------------
      1          6           0       -4.789247   -0.581675    0.102439
      2          6           0       -6.302944   -0.605624   -0.112349
      3          6           0       -6.969970   -1.829284    0.516559
      4          1           0       -4.351036   -1.496891   -0.318627
      5          1           0       -4.578559   -0.601664    1.180681
      6          1           0       -6.510740   -0.584199   -1.189836
      7          1           0       -6.737579    0.309845    0.309107
      8          1           0       -6.791959   -1.852613    1.596545
      9          1           0       -6.563831   -2.751736    0.089085
     10          1           0       -8.051844   -1.826258    0.351032
     11          6           0       -4.108153    0.635596   -0.520530
     12          6           0       -2.594456    0.659545   -0.305742
     13          6           0       -1.927430    1.883205   -0.934651
     14          1           0       -4.318842    0.655584   -1.598772
     15          1           0       -4.546364    1.550811   -0.099464
     16          1           0       -2.159821   -0.255924   -0.727199
     17          1           0       -2.386660    0.638119    0.771744
     18          1           0       -2.333569    2.805657   -0.507177
     19          1           0       -2.105441    1.906533   -2.014636
     20          1           0       -0.845556    1.880179   -0.769123
     21          6           0        3.705337   -0.045351    0.383703
     22          6           0        3.119264    1.334106    0.686364
     23          6           0        1.631283    1.280902    1.034034
     24          1           0        3.148955   -0.498632   -0.448115
     25          1           0        3.554302   -0.699161    1.253827
     26          1           0        3.272592    1.985529   -0.183553
     27          1           0        3.677230    1.784236    1.517432
     28          1           0        1.463785    0.653294    1.915313
     29          1           0        1.056850    0.855731    0.204663
     30          1           0        1.232822    2.277809    1.246794
     31          6           0        5.192063   -0.008570    0.034388
     32          6           0        5.778136   -1.388027   -0.268272
     33          6           0        7.266117   -1.334823   -0.615943
     34          1           0        5.343099    0.645241   -0.835735
     35          1           0        5.748444    0.444711    0.866206
     36          1           0        5.220171   -1.838156   -1.099341
     37          1           0        5.624807   -2.039449    0.601644
     38          1           0        7.840551   -0.909650    0.213427
     39          1           0        7.433616   -0.707214   -1.497222
     40          1           0        7.664579   -2.331729   -0.828703
 ---------------------------------------------------------------------

 SCF Done:  E(RHF) =  -470.733113348     A.U. after   11 cycles
 E2 =    -0.1582376637D+01 EUMP2 =    -0.47231548998484D+03

 The electronic state is 1-A.
 Alpha  occ. eigenvalues --  -11.21620 -11.21610 -11.21574 -11.21533 -11.21418
 Alpha  occ. eigenvalues --  -11.21363 -11.21358 -11.21302 -11.21089 -11.21077
 Alpha  occ. eigenvalues --  -11.21050 -11.20942  -1.08445  -1.08383  -1.03556
 Alpha  occ. eigenvalues --   -1.03469  -0.96029  -0.95899  -0.87059  -0.86903
 Alpha  occ. eigenvalues --   -0.79618  -0.79533  -0.78257  -0.78196  -0.65079
 Alpha  occ. eigenvalues --   -0.65014  -0.60983  -0.60874  -0.59415  -0.59262
 Alpha  occ. eigenvalues --   -0.57658  -0.57515  -0.55285  -0.55212  -0.52839
 Alpha  occ. eigenvalues --   -0.52547  -0.52450  -0.52245  -0.49906  -0.49866
 Alpha  occ. eigenvalues --   -0.47939  -0.47837  -0.46625  -0.46575  -0.45796
 Alpha  occ. eigenvalues --   -0.45739  -0.45719  -0.45664  -0.43839  -0.43671
 Alpha virt. eigenvalues --    0.22066   0.22999   0.23488   0.24887   0.26498
 Alpha virt. eigenvalues --    0.26674   0.26963   0.27544   0.27661   0.29015
 Alpha virt. eigenvalues --    0.30727   0.31422   0.31654   0.31744   0.32020

 Mulliken charges:
               1
     1  C   -0.298229
     2  C   -0.299614
     3  C   -0.475675
     4  H    0.149505
     5  H    0.149523
     6  H    0.151837
     7  H    0.151892
     8  H    0.155152
     9  H    0.155115
    10  H    0.160148
    11  C   -0.298146
    12  C   -0.299284
    13  C   -0.482413
    14  H    0.149300
    15  H    0.149578
    16  H    0.150992
    17  H    0.152870
    18  H    0.154574
    19  H    0.154017
    20  H    0.167616
    21  C   -0.298576
    22  C   -0.299788
    23  C   -0.480226
    24  H    0.149813
    25  H    0.149621
    26  H    0.152112
    27  H    0.152094
    28  H    0.155591
    29  H    0.159289
    30  H    0.161147
    31  C   -0.298326
    32  C   -0.299668
    33  C   -0.475718
    34  H    0.149594
    35  H    0.149697
    36  H    0.151945
    37  H    0.151952
    38  H    0.155196
    39  H    0.155211
    40  H    0.160279
 Sum of Mulliken charges =  -0.00000

 Dipole moment (field-independent basis, Debye):
    X=              0.0402    Y=             -0.0001    Z=              0.0203  Tot=              0.0451
 Quadrupole moment (field-independent basis, Debye-Ang):
   XX=            -86.3907   YY=            -85.2395   ZZ=            -83.2682
   XY=             -0.4590   XZ=              0.6162   YZ=              0.6814

 Normal termination of Gaussian 16 at Wed May  5 18:24:24 2021.
