 Gaussian 16, Revision A.03,
 Gaussian 16:  EM64L-G16RevA.03 25-Dec-2016

 -------------
 #p 6-31g* mp2
 -------------

 ------------------------------------------------------
 Input file generated by CHIRIPA (05-May-2021 14:55:23)
 ------------------------------------------------------
 Symbolic Z-matrix:
 Charge =  0 Multiplicity = 1

                         Standard orientation:
 ---------------------------------------------------------------------
 Center     Atomic      Atomic             Coordinates (Angstroms)
 Number     Number       Type             X           Y           Z
 ---------------------------------------------------------------------
      1          6           0        1.892942    1.630552   -0.030154
      2          6           0        3.153022    2.193698    0.196971
      3          6           0        4.302696    1.398996    0.161678
      4          6           0        4.154951    0.038690   -0.104832
      5          6           0        2.913398   -0.551862   -0.335232
      6          6           0        1.777355    0.261982   -0.295064
      7          1           0        1.005142    2.255331   -0.000845
      8          1           0        3.245802    3.256249    0.402941
      9          1           0        5.290469    1.808957    0.333885
     10          1           0        2.852665   -1.614216   -0.538044
     11          1           0        0.800046   -0.178091   -0.471832
     12          7           0        5.364844   -0.812758   -0.144776
     13          8           0        5.207872   -2.008529   -0.381690
     14          8           0        6.447221   -0.268230    0.061587
     15          6           0       -4.333387   -0.003515    0.132437
     16          6           0       -3.385885   -1.033352    0.748602
     17          6           0       -1.929606   -0.567513    0.754785
     18          1           0       -4.011638    0.212441   -0.895563
     19          1           0       -4.251515    0.939646    0.690235
     20          1           0       -3.470538   -1.974713    0.190668
     21          1           0       -3.710041   -1.247026    1.775190
     22          1           0       -1.823982    0.359109    1.328212
     23          1           0       -1.583119   -0.372712   -0.265314
     24          1           0       -1.269651   -1.318830    1.199578
     25          6           0       -5.792811   -0.454772    0.119081
     26          6           0       -6.740313    0.575065   -0.497084
     27          6           0       -8.196593    0.109225   -0.503267
     28          1           0       -5.874683   -1.397934   -0.438717
     29          1           0       -6.114560   -0.670730    1.147081
     30          1           0       -6.416157    0.788739   -1.523672
     31          1           0       -6.655660    1.516424    0.060851
     32          1           0       -8.543080   -0.085576    0.516832
     33          1           0       -8.302216   -0.817396   -1.076694
     34          1           0       -8.856547    0.860543   -0.948060
 ---------------------------------------------------------------------

 SCF Done:  E(RHF) =  -669.535519955     A.U. after   15 cycles
 E2 =    -0.2090970921D+01 EUMP2 =    -0.67162649087604D+03

 The electronic state is 1-A.
 Alpha  occ. eigenvalues --  -20.60692 -20.60687 -15.85743 -11.31086 -11.27654
 Alpha  occ. eigenvalues --  -11.27632 -11.27374 -11.26671 -11.26580 -11.22465
 Alpha  occ. eigenvalues --  -11.22290 -11.22128 -11.22100 -11.21947 -11.21478
 Alpha  occ. eigenvalues --   -1.59768  -1.39322  -1.19250  -1.09121  -1.08649
 Alpha  occ. eigenvalues --   -1.04650  -1.04255  -0.96737  -0.95490  -0.87774
 Alpha  occ. eigenvalues --   -0.86041  -0.82322  -0.80339  -0.78901  -0.77372
 Alpha  occ. eigenvalues --   -0.71962  -0.71090  -0.70360  -0.65753  -0.64900
 Alpha  occ. eigenvalues --   -0.64665  -0.62049  -0.61615  -0.60105  -0.58316
 Alpha  occ. eigenvalues --   -0.56048  -0.55143  -0.53499  -0.53197  -0.52976
 Alpha  occ. eigenvalues --   -0.52638  -0.50661  -0.48739  -0.48719  -0.48615
 Alpha  occ. eigenvalues --   -0.47340  -0.46452  -0.46348  -0.44732  -0.44488
 Alpha  occ. eigenvalues --   -0.37230  -0.36249
 Alpha virt. eigenvalues --    0.05154   0.11371   0.16647   0.20441   0.22329
 Alpha virt. eigenvalues --    0.23759   0.25494   0.26092   0.26947   0.28011
 Alpha virt. eigenvalues --    0.29002   0.29867   0.30906   0.31388   0.31953

 Mulliken charges:
               1
     1  C   -0.173537
     2  C   -0.218531
     3  C   -0.171567
     4  C    0.158976
     5  C   -0.173291
     6  C   -0.224306
     7  H    0.225433
     8  H    0.222841
     9  H    0.275130
    10  H    0.275450
    11  H    0.235316
    12  N    0.488002
    13  O   -0.460707
    14  O   -0.460801
    15  C   -0.299188
    16  C   -0.299419
    17  C   -0.481982
    18  H    0.149081
    19  H    0.149225
    20  H    0.154999
    21  H    0.156087
    22  H    0.156270
    23  H    0.147358
    24  H    0.164474
    25  C   -0.298895
    26  C   -0.300065
    27  C   -0.476082
    28  H    0.150999
    29  H    0.151157
    30  H    0.152085
    31  H    0.151968
    32  H    0.155993
    33  H    0.156082
    34  H    0.161445
 Sum of Mulliken charges =  -0.00000

 Dipole moment (field-independent basis, Debye):
    X=             -4.5348    Y=              2.9613    Z=              0.1907  Tot=              5.4195
 Quadrupole moment (field-independent basis, Debye-Ang):
   XX=           -129.5119   YY=            -91.3990   ZZ=            -94.5536
   XY=             14.8608   XZ=              1.3884   YZ=              0.9804

 Normal termination of Gaussian 16 at Thu May  6 06:18:22 2021.
