 Gaussian 16, Revision A.03,
 Gaussian 16:  EM64L-G16RevA.03 25-Dec-2016

 -------------
 #p 6-31g* mp2
 -------------

 ------------------------------------------------------
 Input file generated by CHIRIPA (05-May-2021 14:51:08)
 ------------------------------------------------------
 Symbolic Z-matrix:
 Charge =  0 Multiplicity = 1

                         Standard orientation:
 ---------------------------------------------------------------------
 Center     Atomic      Atomic             Coordinates (Angstroms)
 Number     Number       Type             X           Y           Z
 ---------------------------------------------------------------------
      1          6           0       -2.386851    0.635384   -0.794125
      2          6           0       -2.485006    2.079884   -0.302424
      3          6           0       -1.499655    3.012562   -1.007399
      4          1           0       -1.361640    0.271486   -0.640941
      5          1           0       -2.568555    0.611049   -1.877540
      6          1           0       -2.304538    2.101314    0.779975
      7          1           0       -3.510152    2.440323   -0.456620
      8          1           0       -1.682061    3.020876   -2.086871
      9          1           0       -0.469597    2.679941   -0.843249
     10          1           0       -1.586887    4.040062   -0.640665
     11          6           0       -3.365684   -0.309104   -0.098744
     12          6           0       -3.267529   -1.753604   -0.590445
     13          6           0       -4.252881   -2.686282    0.114530
     14          1           0       -3.183980   -0.284769    0.984671
     15          1           0       -4.390895    0.054794   -0.251927
     16          1           0       -2.242383   -2.114042   -0.436249
     17          1           0       -3.447998   -1.775034   -1.672844
     18          1           0       -5.282939   -2.353661   -0.049620
     19          1           0       -4.070474   -2.694595    1.194002
     20          1           0       -4.165648   -3.713782   -0.252204
     21          6           0        3.629006   -0.166090    0.316792
     22          6           0        4.009872   -0.780920   -1.030394
     23          6           0        5.519121   -0.779622   -1.275258
     24          1           0        4.008523    0.863850    0.363012
     25          1           0        4.132296   -0.721025    1.120622
     26          1           0        3.504920   -0.225855   -1.831358
     27          1           0        3.629239   -1.809452   -1.073488
     28          1           0        6.036162   -1.350128   -0.496931
     29          1           0        5.911136    0.242466   -1.259107
     30          1           0        5.769061   -1.223576   -2.243914
     31          6           0        2.123529   -0.160191    0.576077
     32          6           0        1.742663    0.454640    1.923263
     33          6           0        0.233414    0.453341    2.168127
     34          1           0        1.620239    0.394745   -0.227753
     35          1           0        1.744013   -1.190130    0.529857
     36          1           0        2.123297    1.483172    1.966357
     37          1           0        2.247616   -0.100425    2.724227
     38          1           0       -0.158601   -0.568746    2.151976
     39          1           0       -0.283627    1.023848    1.389800
     40          1           0       -0.016526    0.897296    3.136783
 ---------------------------------------------------------------------

 SCF Done:  E(RHF) =  -470.732452581     A.U. after   11 cycles
 E2 =    -0.1584570423D+01 EUMP2 =    -0.47231702300427D+03

 The electronic state is 1-A.
 Alpha  occ. eigenvalues --  -11.21664 -11.21630 -11.21574 -11.21559 -11.21476
 Alpha  occ. eigenvalues --  -11.21407 -11.21335 -11.21274 -11.21122 -11.21100
 Alpha  occ. eigenvalues --  -11.21090 -11.21041  -1.08504  -1.08383  -1.03609
 Alpha  occ. eigenvalues --   -1.03494  -0.96038  -0.95961  -0.87080  -0.86960
 Alpha  occ. eigenvalues --   -0.79653  -0.79574  -0.78329  -0.78181  -0.65291
 Alpha  occ. eigenvalues --   -0.64942  -0.61271  -0.60675  -0.59410  -0.59314
 Alpha  occ. eigenvalues --   -0.57627  -0.57569  -0.55343  -0.55221  -0.52729
 Alpha  occ. eigenvalues --   -0.52660  -0.52453  -0.52383  -0.50138  -0.49752
 Alpha  occ. eigenvalues --   -0.48049  -0.47826  -0.46689  -0.46594  -0.46046
 Alpha  occ. eigenvalues --   -0.45787  -0.45673  -0.45392  -0.43833  -0.43754
 Alpha virt. eigenvalues --    0.19946   0.22715   0.23526   0.24622   0.26013
 Alpha virt. eigenvalues --    0.26146   0.26834   0.27745   0.28581   0.30010
 Alpha virt. eigenvalues --    0.30390   0.31255   0.31375   0.31736   0.32226

 Mulliken charges:
               1
     1  C   -0.303045
     2  C   -0.305023
     3  C   -0.477681
     4  H    0.154306
     5  H    0.149503
     6  H    0.154490
     7  H    0.153579
     8  H    0.155865
     9  H    0.154724
    10  H    0.160705
    11  C   -0.298855
    12  C   -0.299865
    13  C   -0.475697
    14  H    0.151527
    15  H    0.149329
    16  H    0.152014
    17  H    0.151739
    18  H    0.155129
    19  H    0.155110
    20  H    0.159994
    21  C   -0.298270
    22  C   -0.299796
    23  C   -0.475767
    24  H    0.149925
    25  H    0.149879
    26  H    0.152258
    27  H    0.152013
    28  H    0.155200
    29  H    0.155293
    30  H    0.160436
    31  C   -0.301511
    32  C   -0.299391
    33  C   -0.485705
    34  H    0.151246
    35  H    0.149615
    36  H    0.152178
    37  H    0.152158
    38  H    0.154800
    39  H    0.167366
    40  H    0.160227
 Sum of Mulliken charges =  -0.00000

 Dipole moment (field-independent basis, Debye):
    X=              0.0164    Y=              0.0070    Z=              0.0088  Tot=              0.0198
 Quadrupole moment (field-independent basis, Debye-Ang):
   XX=            -85.8191   YY=            -84.5566   ZZ=            -84.3873
   XY=             -0.6914   XZ=              1.1105   YZ=             -0.2238

 Normal termination of Gaussian 16 at Thu May  6 11:33:20 2021.
