 Gaussian 16, Revision A.03,
 Gaussian 16:  EM64L-G16RevA.03 25-Dec-2016

 -------------
 #p 6-31g* mp2
 -------------

 ------------------------------------------------------
 Input file generated by CHIRIPA (05-May-2021 14:55:22)
 ------------------------------------------------------
 Symbolic Z-matrix:
 Charge =  0 Multiplicity = 1

                         Standard orientation:
 ---------------------------------------------------------------------
 Center     Atomic      Atomic             Coordinates (Angstroms)
 Number     Number       Type             X           Y           Z
 ---------------------------------------------------------------------
      1          6           0        1.944951   -2.700800    0.805022
      2          6           0        1.295716   -1.660608    1.478086
      3          6           0        1.472918   -0.333937    1.074238
      4          6           0        2.310225   -0.082388   -0.011547
      5          6           0        2.970902   -1.096989   -0.702475
      6          6           0        2.779002   -2.416172   -0.281195
      7          1           0        1.801588   -3.728482    1.125511
      8          1           0        0.647396   -1.878691    2.321985
      9          1           0        0.982502    0.490553    1.577355
     10          1           0        3.611018   -0.848375   -1.540247
     11          1           0        3.284486   -3.221986   -0.805786
     12          7           0        2.505601    1.318135   -0.448309
     13          8           0        3.248471    1.513394   -1.407817
     14          8           0        1.912166    2.194088    0.177134
     15          6           0       -2.292923    0.832781    0.016739
     16          6           0       -2.610599    2.290485    0.351655
     17          6           0       -1.354138    3.141817    0.536944
     18          1           0       -1.673757    0.405769    0.817514
     19          1           0       -1.686934    0.797960   -0.899208
     20          1           0       -3.216974    2.322467    1.265931
     21          1           0       -3.229240    2.714020   -0.449917
     22          1           0       -0.749329    3.139696   -0.375636
     23          1           0       -0.736994    2.745918    1.349962
     24          1           0       -1.604376    4.180202    0.775689
     25          6           0       -3.538820   -0.030960   -0.171458
     26          6           0       -3.221144   -1.488663   -0.506373
     27          6           0       -4.477604   -2.339996   -0.691663
     28          1           0       -4.144809    0.003862    0.744490
     29          1           0       -4.157986    0.396053   -0.972232
     30          1           0       -2.602503   -1.912198    0.295199
     31          1           0       -2.614769   -1.520646   -1.420650
     32          1           0       -5.094749   -1.944096   -1.504680
     33          1           0       -5.082414   -2.337874    0.220917
     34          1           0       -4.227366   -3.378380   -0.930408
 ---------------------------------------------------------------------

 SCF Done:  E(RHF) =  -669.535138122     A.U. after   15 cycles
 E2 =    -0.2093179387D+01 EUMP2 =    -0.67162831750917D+03

 The electronic state is 1-A.
 Alpha  occ. eigenvalues --  -20.60834 -20.60811 -15.85856 -11.31207 -11.27787
 Alpha  occ. eigenvalues --  -11.27783 -11.27528 -11.26798 -11.26786 -11.21758
 Alpha  occ. eigenvalues --  -11.21403 -11.21296 -11.21248 -11.21167 -11.20127
 Alpha  occ. eigenvalues --   -1.59895  -1.39450  -1.19386  -1.08784  -1.08345
 Alpha  occ. eigenvalues --   -1.04789  -1.03331  -0.95760  -0.95609  -0.86754
 Alpha  occ. eigenvalues --   -0.86186  -0.82459  -0.79416  -0.78185  -0.77460
 Alpha  occ. eigenvalues --   -0.72086  -0.71213  -0.70501  -0.65056  -0.64997
 Alpha  occ. eigenvalues --   -0.64785  -0.62149  -0.60729  -0.59186  -0.57351
 Alpha  occ. eigenvalues --   -0.55294  -0.55031  -0.53131  -0.52888  -0.52421
 Alpha  occ. eigenvalues --   -0.52133  -0.49712  -0.48851  -0.48837  -0.47682
 Alpha  occ. eigenvalues --   -0.46471  -0.45726  -0.45607  -0.44697  -0.43609
 Alpha  occ. eigenvalues --   -0.37360  -0.36359
 Alpha virt. eigenvalues --    0.04991   0.11224   0.16411   0.20411   0.23004
 Alpha virt. eigenvalues --    0.23853   0.25707   0.27198   0.27296   0.28174
 Alpha virt. eigenvalues --    0.29562   0.30353   0.31500   0.31865   0.32315

 Mulliken charges:
               1
     1  C   -0.170041
     2  C   -0.220025
     3  C   -0.167461
     4  C    0.155992
     5  C   -0.170616
     6  C   -0.218738
     7  H    0.225782
     8  H    0.223417
     9  H    0.278329
    10  H    0.275575
    11  H    0.223491
    12  N    0.488799
    13  O   -0.460545
    14  O   -0.459706
    15  C   -0.295963
    16  C   -0.302209
    17  C   -0.473127
    18  H    0.139006
    19  H    0.151745
    20  H    0.147399
    21  H    0.151259
    22  H    0.170032
    23  H    0.154035
    24  H    0.157084
    25  C   -0.298141
    26  C   -0.298060
    27  C   -0.475536
    28  H    0.148168
    29  H    0.151434
    30  H    0.145740
    31  H    0.153100
    32  H    0.156814
    33  H    0.154633
    34  H    0.158335
 Sum of Mulliken charges =  -0.00000

 Dipole moment (field-independent basis, Debye):
    X=             -0.5408    Y=             -4.8249    Z=              1.4414  Tot=              5.0645
 Quadrupole moment (field-independent basis, Debye-Ang):
   XX=            -97.6704   YY=            -94.2684   ZZ=            -91.6313
   XY=            -13.1513   XZ=              1.1110   YZ=              0.7025

 Normal termination of Gaussian 16 at Thu May  6 14:13:09 2021.
