 Gaussian 16, Revision A.03,
 Gaussian 16:  EM64L-G16RevA.03 25-Dec-2016

 -------------
 #p 6-31g* mp2
 -------------

 ------------------------------------------------------
 Input file generated by CHIRIPA (05-May-2021 14:53:12)
 ------------------------------------------------------
 Symbolic Z-matrix:
 Charge =  0 Multiplicity = 1

                         Standard orientation:
 ---------------------------------------------------------------------
 Center     Atomic      Atomic             Coordinates (Angstroms)
 Number     Number       Type             X           Y           Z
 ---------------------------------------------------------------------
      1          6           0       -3.181296    0.678747    0.425956
      2          6           0       -2.460206    1.913325   -0.116106
      3          6           0       -2.478337    3.086510    0.864252
      4          1           0       -4.220626    0.943851    0.663566
      5          1           0       -2.712218    0.374586    1.371919
      6          1           0       -2.929623    2.214242   -1.061470
      7          1           0       -1.422525    1.645204   -0.352633
      8          1           0       -1.991859    2.809810    1.805196
      9          1           0       -3.507521    3.382081    1.092332
     10          1           0       -1.957380    3.958445    0.456583
     11          6           0       -3.171697   -0.502483   -0.542719
     12          6           0       -3.892787   -1.737060   -0.000657
     13          6           0       -3.874655   -2.910246   -0.981015
     14          1           0       -3.640775   -0.198322   -1.488683
     15          1           0       -2.132367   -0.767586   -0.780329
     16          1           0       -4.930468   -1.468939    0.235870
     17          1           0       -3.423369   -2.037977    0.944706
     18          1           0       -2.845472   -3.205816   -1.209096
     19          1           0       -4.361134   -2.633545   -1.921959
     20          1           0       -4.395612   -3.782180   -0.573347
     21          6           0        2.856649   -2.450714    0.788599
     22          6           0        3.636270   -1.906489   -0.237331
     23          6           0        3.437238   -0.587891   -0.657133
     24          6           0        2.445383    0.161416   -0.026219
     25          6           0        1.652398   -0.352389    0.998706
     26          6           0        1.868942   -1.673298    1.402260
     27          1           0        3.018064   -3.475930    1.108401
     28          1           0        4.404055   -2.507905   -0.715713
     29          1           0        4.026475   -0.141493   -1.448933
     30          1           0        0.894613    0.271743    1.456569
     31          1           0        1.261977   -2.093321    2.199266
     32          7           0        2.225408    1.558579   -0.462044
     33          8           0        1.345181    2.197943    0.109843
     34          8           0        2.937382    1.987859   -1.367279
 ---------------------------------------------------------------------

 SCF Done:  E(RHF) =  -669.536179790     A.U. after   15 cycles
 E2 =    -0.2091741247D+01 EUMP2 =    -0.67162792103687D+03

 The electronic state is 1-A.
 Alpha  occ. eigenvalues --  -20.60973 -20.60967 -15.85992 -11.31317 -11.27883
 Alpha  occ. eigenvalues --  -11.27873 -11.27611 -11.26888 -11.26877 -11.21614
 Alpha  occ. eigenvalues --  -11.21233 -11.21139 -11.21061 -11.20779 -11.20234
 Alpha  occ. eigenvalues --   -1.60027  -1.39584  -1.19484  -1.08888  -1.08149
 Alpha  occ. eigenvalues --   -1.04880  -1.03153  -0.95733  -0.95622  -0.86651
 Alpha  occ. eigenvalues --   -0.86280  -0.82563  -0.79260  -0.77920  -0.77607
 Alpha  occ. eigenvalues --   -0.72218  -0.71338  -0.70590  -0.65144  -0.64900
 Alpha  occ. eigenvalues --   -0.64775  -0.62228  -0.60547  -0.59030  -0.57199
 Alpha  occ. eigenvalues --   -0.55382  -0.54934  -0.53210  -0.52971  -0.52293
 Alpha  occ. eigenvalues --   -0.52052  -0.49610  -0.48989  -0.48971  -0.47563
 Alpha  occ. eigenvalues --   -0.46340  -0.45550  -0.45446  -0.44737  -0.43426
 Alpha  occ. eigenvalues --   -0.37461  -0.36481
 Alpha virt. eigenvalues --    0.04870   0.11139   0.16344   0.20621   0.22838
 Alpha virt. eigenvalues --    0.24229   0.26402   0.27485   0.27807   0.28313
 Alpha virt. eigenvalues --    0.28802   0.30591   0.31571   0.32020   0.32462

 Mulliken charges:
               1
     1  C   -0.297234
     2  C   -0.306921
     3  C   -0.471617
     4  H    0.148677
     5  H    0.140959
     6  H    0.149877
     7  H    0.167063
     8  H    0.151150
     9  H    0.148755
    10  H    0.169141
    11  C   -0.297847
    12  C   -0.298319
    13  C   -0.475373
    14  H    0.151209
    15  H    0.147126
    16  H    0.152852
    17  H    0.146856
    18  H    0.153184
    19  H    0.156643
    20  H    0.158875
    21  C   -0.170599
    22  C   -0.218470
    23  C   -0.170776
    24  C    0.158384
    25  C   -0.172216
    26  C   -0.218612
    27  H    0.226205
    28  H    0.223997
    29  H    0.275942
    30  H    0.276587
    31  H    0.224088
    32  N    0.488467
    33  O   -0.459589
    34  O   -0.458463
 Sum of Mulliken charges =  -0.00000

 Dipole moment (field-independent basis, Debye):
    X=              0.9849    Y=             -4.8145    Z=              1.4469  Tot=              5.1228
 Quadrupole moment (field-independent basis, Debye-Ang):
   XX=            -88.2734   YY=            -97.4947   ZZ=            -93.2952
   XY=            -12.9622   XZ=              1.4289   YZ=             -0.1364

 Normal termination of Gaussian 16 at Thu May  6 02:31:23 2021.
