 Gaussian 16, Revision A.03,
 Gaussian 16:  EM64L-G16RevA.03 25-Dec-2016

 -------------
 #p 6-31g* mp2
 -------------

 ------------------------------------------------------
 Input file generated by CHIRIPA (05-May-2021 14:55:19)
 ------------------------------------------------------
 Symbolic Z-matrix:
 Charge =  0 Multiplicity = 1

                         Standard orientation:
 ---------------------------------------------------------------------
 Center     Atomic      Atomic             Coordinates (Angstroms)
 Number     Number       Type             X           Y           Z
 ---------------------------------------------------------------------
      1          6           0        2.613481   -0.951260   -2.123328
      2          6           0        3.149853    0.142942   -1.436635
      3          6           0        2.763717    0.413930   -0.120575
      4          6           0        1.834835   -0.433798    0.480944
      5          6           0        1.282472   -1.531748   -0.176849
      6          6           0        1.683143   -1.783645   -1.492356
      7          1           0        2.919086   -1.154354   -3.145460
      8          1           0        3.872547    0.791086   -1.924146
      9          1           0        3.163109    1.254169    0.434314
     10          1           0        0.563967   -2.159916    0.335571
     11          1           0        1.264928   -2.634135   -2.023211
     12          7           0        1.418356   -0.157021    1.873905
     13          8           0        0.598396   -0.919012    2.381518
     14          8           0        1.919767    0.816667    2.431718
     15          6           0       -3.096620    0.256397   -0.180415
     16          6           0       -2.986016   -1.267527   -0.238801
     17          6           0       -4.314895   -1.968030    0.046104
     18          1           0       -3.463974    0.553273    0.811482
     19          1           0       -3.851177    0.590365   -0.906022
     20          1           0       -2.230901   -1.598411    0.485721
     21          1           0       -2.618701   -1.560799   -1.230611
     22          1           0       -5.073505   -1.666471   -0.683398
     23          1           0       -4.683502   -1.704296    1.042686
     24          1           0       -4.212971   -3.056732   -0.000783
     25          6           0       -1.776278    0.970904   -0.463085
     26          6           0       -1.886881    2.494827   -0.404699
     27          6           0       -0.558002    3.195330   -0.689605
     28          1           0       -1.021721    0.636936    0.262522
     29          1           0       -1.408923    0.674028   -1.454982
     30          1           0       -2.254196    2.788099    0.587111
     31          1           0       -2.641996    2.825711   -1.129221
     32          1           0       -0.189395    2.931597   -1.686187
     33          1           0        0.200608    2.893771    0.039898
     34          1           0       -0.659927    4.284033   -0.642717
 ---------------------------------------------------------------------

 SCF Done:  E(RHF) =  -669.535909658     A.U. after   15 cycles
 E2 =    -0.2094373987D+01 EUMP2 =    -0.67163028364548D+03

 The electronic state is 1-A.
 Alpha  occ. eigenvalues --  -20.60950 -20.60941 -15.85954 -11.31198 -11.27788
 Alpha  occ. eigenvalues --  -11.27767 -11.27522 -11.26782 -11.26772 -11.21507
 Alpha  occ. eigenvalues --  -11.21366 -11.21187 -11.21127 -11.20956 -11.20897
 Alpha  occ. eigenvalues --   -1.60001  -1.39558  -1.19388  -1.08812  -1.08237
 Alpha  occ. eigenvalues --   -1.04775  -1.03364  -0.95810  -0.95658  -0.86833
 Alpha  occ. eigenvalues --   -0.86185  -0.82492  -0.79443  -0.78103  -0.77537
 Alpha  occ. eigenvalues --   -0.72185  -0.71329  -0.70507  -0.65055  -0.64864
 Alpha  occ. eigenvalues --   -0.64755  -0.62133  -0.60744  -0.59190  -0.57438
 Alpha  occ. eigenvalues --   -0.55296  -0.55087  -0.53145  -0.52877  -0.52506
 Alpha  occ. eigenvalues --   -0.52249  -0.49751  -0.48956  -0.48933  -0.47759
 Alpha  occ. eigenvalues --   -0.46456  -0.45662  -0.45555  -0.44844  -0.43610
 Alpha  occ. eigenvalues --   -0.37324  -0.36340
 Alpha virt. eigenvalues --    0.04940   0.11173   0.16446   0.20995   0.23050
 Alpha virt. eigenvalues --    0.24160   0.25656   0.26827   0.27543   0.28233
 Alpha virt. eigenvalues --    0.28755   0.30292   0.31140   0.31815   0.32063

 Mulliken charges:
               1
     1  C   -0.170639
     2  C   -0.218522
     3  C   -0.170078
     4  C    0.155584
     5  C   -0.169228
     6  C   -0.218961
     7  H    0.225654
     8  H    0.223680
     9  H    0.275623
    10  H    0.277370
    11  H    0.223772
    12  N    0.490455
    13  O   -0.460530
    14  O   -0.459105
    15  C   -0.296815
    16  C   -0.305316
    17  C   -0.475179
    18  H    0.154990
    19  H    0.147467
    20  H    0.159542
    21  H    0.144333
    22  H    0.154003
    23  H    0.159185
    24  H    0.157792
    25  C   -0.301106
    26  C   -0.299621
    27  C   -0.477528
    28  H    0.152467
    29  H    0.145547
    30  H    0.156699
    31  H    0.149821
    32  H    0.150566
    33  H    0.158011
    34  H    0.160068
 Sum of Mulliken charges =  -0.00000

 Dipole moment (field-independent basis, Debye):
    X=              1.5151    Y=             -0.9732    Z=             -4.7840  Tot=              5.1117
 Quadrupole moment (field-independent basis, Debye-Ang):
   XX=            -88.6565   YY=            -91.6133   ZZ=            -99.2469
   XY=             -0.3421   XZ=             -8.3675   YZ=              2.0305

 Normal termination of Gaussian 16 at Wed May  5 18:53:47 2021.
