 Gaussian 16, Revision A.03,
 Gaussian 16:  EM64L-G16RevA.03 25-Dec-2016

 -------------
 #p 6-31g* mp2
 -------------

 ------------------------------------------------------
 Input file generated by CHIRIPA (05-May-2021 14:51:10)
 ------------------------------------------------------
 Symbolic Z-matrix:
 Charge =  0 Multiplicity = 1

                         Standard orientation:
 ---------------------------------------------------------------------
 Center     Atomic      Atomic             Coordinates (Angstroms)
 Number     Number       Type             X           Y           Z
 ---------------------------------------------------------------------
      1          6           0       -3.896429   -0.219843    0.315234
      2          6           0       -4.689757    0.097405   -0.952824
      3          6           0       -6.097152    0.615689   -0.655478
      4          1           0       -4.445685   -0.964918    0.906947
      5          1           0       -3.831547    0.685287    0.934851
      6          1           0       -4.751939   -0.807696   -1.570515
      7          1           0       -4.138456    0.841670   -1.541681
      8          1           0       -6.051972    1.532825   -0.059306
      9          1           0       -6.668941   -0.125912   -0.088304
     10          1           0       -6.646598    0.836149   -1.576003
     11          6           0       -2.487426   -0.739012    0.034339
     12          6           0       -1.694098   -1.056260    1.302396
     13          6           0       -0.286703   -1.574544    1.005050
     14          1           0       -2.552308   -1.644142   -0.585278
     15          1           0       -1.938170    0.006063   -0.557375
     16          1           0       -2.245399   -1.800525    1.891253
     17          1           0       -1.631916   -0.151159    1.920087
     18          1           0        0.285086   -0.832943    0.437876
     19          1           0       -0.331883   -2.491680    0.408878
     20          1           0        0.262743   -1.795004    1.925576
     21          6           0        3.770067   -0.005787   -0.292062
     22          6           0        3.322086   -1.461500   -0.426962
     23          6           0        4.489969   -2.420128   -0.661212
     24          1           0        4.312504    0.289949   -1.200493
     25          1           0        4.484463    0.075206    0.538885
     26          1           0        2.607691   -1.539479   -1.256524
     27          1           0        2.780486   -1.753745    0.481817
     28          1           0        5.200713   -2.371824    0.170119
     29          1           0        5.026936   -2.156340   -1.578099
     30          1           0        4.147117   -3.455294   -0.754726
     31          6           0        2.613788    0.964642   -0.057511
     32          6           0        3.061769    2.420355    0.077389
     33          6           0        1.893885    3.378983    0.311639
     34          1           0        1.899391    0.883649   -0.888458
     35          1           0        2.071350    0.668906    0.850920
     36          1           0        3.603369    2.712600   -0.831389
     37          1           0        3.776164    2.498334    0.906952
     38          1           0        1.356918    3.115195    1.228527
     39          1           0        1.183142    3.330678   -0.519692
     40          1           0        2.236738    4.414149    0.405152
 ---------------------------------------------------------------------

 SCF Done:  E(RHF) =  -470.732217999     A.U. after   11 cycles
 E2 =    -0.1583905363D+01 EUMP2 =    -0.47231612336267D+03

 The electronic state is 1-A.
 Alpha  occ. eigenvalues --  -11.21625 -11.21581 -11.21530 -11.21500 -11.21406
 Alpha  occ. eigenvalues --  -11.21370 -11.21339 -11.21310 -11.21116 -11.21054
 Alpha  occ. eigenvalues --  -11.21016 -11.20901  -1.08449  -1.08375  -1.03523
 Alpha  occ. eigenvalues --   -1.03474  -0.95996  -0.95918  -0.86996  -0.86958
 Alpha  occ. eigenvalues --   -0.79649  -0.79529  -0.78333  -0.78099  -0.65094
 Alpha  occ. eigenvalues --   -0.64992  -0.60916  -0.60888  -0.59365  -0.59286
 Alpha  occ. eigenvalues --   -0.57647  -0.57506  -0.55326  -0.55171  -0.52748
 Alpha  occ. eigenvalues --   -0.52609  -0.52406  -0.52328  -0.49965  -0.49859
 Alpha  occ. eigenvalues --   -0.47971  -0.47847  -0.46703  -0.46613  -0.45922
 Alpha  occ. eigenvalues --   -0.45713  -0.45688  -0.45255  -0.43781  -0.43707
 Alpha virt. eigenvalues --    0.21915   0.23139   0.24112   0.24215   0.25761
 Alpha virt. eigenvalues --    0.26224   0.26953   0.27817   0.27842   0.29826
 Alpha virt. eigenvalues --    0.30202   0.31366   0.31530   0.31830   0.32126

 Mulliken charges:
               1
     1  C   -0.298232
     2  C   -0.299588
     3  C   -0.475684
     4  H    0.149583
     5  H    0.149568
     6  H    0.151807
     7  H    0.151812
     8  H    0.155214
     9  H    0.155139
    10  H    0.160145
    11  C   -0.298347
    12  C   -0.300380
    13  C   -0.483016
    14  H    0.149298
    15  H    0.149548
    16  H    0.151301
    17  H    0.151132
    18  H    0.167832
    19  H    0.154515
    20  H    0.157186
    21  C   -0.297373
    22  C   -0.304209
    23  C   -0.475546
    24  H    0.149276
    25  H    0.149182
    26  H    0.151804
    27  H    0.159346
    28  H    0.154720
    29  H    0.154652
    30  H    0.160191
    31  C   -0.303769
    32  C   -0.298684
    33  C   -0.475860
    34  H    0.148768
    35  H    0.154388
    36  H    0.152018
    37  H    0.152091
    38  H    0.154906
    39  H    0.154694
    40  H    0.160574
 Sum of Mulliken charges =  -0.00000

 Dipole moment (field-independent basis, Debye):
    X=              0.0343    Y=              0.0091    Z=             -0.0012  Tot=              0.0355
 Quadrupole moment (field-independent basis, Debye-Ang):
   XX=            -86.4256   YY=            -84.7295   ZZ=            -83.8530
   XY=              1.3244   XZ=              0.3799   YZ=             -0.2413

 Normal termination of Gaussian 16 at Thu May  6 03:48:58 2021.
