 Gaussian 16, Revision A.03,
 Gaussian 16:  EM64L-G16RevA.03 25-Dec-2016

 -------------
 #p 6-31g* mp2
 -------------

 ------------------------------------------------------
 Input file generated by CHIRIPA (05-May-2021 14:57:25)
 ------------------------------------------------------
 Symbolic Z-matrix:
 Charge =  0 Multiplicity = 1

                         Standard orientation:
 ---------------------------------------------------------------------
 Center     Atomic      Atomic             Coordinates (Angstroms)
 Number     Number       Type             X           Y           Z
 ---------------------------------------------------------------------
      1          6           0        0.690114   -1.848984    1.165244
      2          6           0        1.034900   -1.972101   -0.184751
      3          6           0        2.083027   -1.218485   -0.721445
      4          6           0        2.768174   -0.347521    0.124300
      5          6           0        2.448462   -0.202599    1.473400
      6          6           0        1.396750   -0.966182    1.988560
      7          1           0       -0.125488   -2.438283    1.573797
      8          1           0        0.487865   -2.656901   -0.826502
      9          1           0        2.370955   -1.294158   -1.762977
     10          1           0        3.012185    0.488419    2.088322
     11          1           0        1.131187   -0.868510    3.037360
     12          7           0        3.879677    0.455575   -0.432476
     13          8           0        4.467748    1.215825    0.333572
     14          8           0        4.141754    0.309585   -1.624381
     15          6           0       -1.343775    2.668206   -0.024880
     16          6           0       -0.782672    1.605391   -0.740496
     17          6           0       -1.461436    0.388357   -0.852994
     18          6           0       -2.704980    0.268322   -0.234546
     19          6           0       -3.290306    1.308765    0.485288
     20          6           0       -2.593598    2.516769    0.584654
     21          1           0       -0.809525    3.610120    0.057411
     22          1           0        0.187801    1.720147   -1.214900
     23          1           0       -1.050242   -0.450733   -1.400959
     24          1           0       -4.259363    1.164310    0.947325
     25          1           0       -3.031789    3.340457    1.141044
     26          7           0       -3.433055   -1.015318   -0.346691
     27          8           0       -4.527234   -1.095689    0.207340
     28          8           0       -2.895756   -1.916757   -0.986499
 ---------------------------------------------------------------------

 SCF Done:  E(RHF) =  -868.338361330     A.U. after   16 cycles
 E2 =    -0.2603078646D+01 EUMP2 =    -0.87094143997639D+03

 The electronic state is 1-A.
 Alpha  occ. eigenvalues --  -20.61435 -20.61395 -20.61318 -20.61313 -15.86452
 Alpha  occ. eigenvalues --  -15.86367 -11.31675 -11.31519 -11.28194 -11.28181
 Alpha  occ. eigenvalues --  -11.28095 -11.28039 -11.27764 -11.27745 -11.27134
 Alpha  occ. eigenvalues --  -11.27044 -11.27021 -11.26944  -1.60493  -1.60404
 Alpha  occ. eigenvalues --   -1.40056  -1.39955  -1.19825  -1.19667  -1.09182
 Alpha  occ. eigenvalues --   -1.09123  -1.05221  -1.05003  -0.96039  -0.96000
 Alpha  occ. eigenvalues --   -0.86602  -0.86407  -0.82876  -0.82837  -0.78014
 Alpha  occ. eigenvalues --   -0.77881  -0.72678  -0.72569  -0.71825  -0.71747
 Alpha  occ. eigenvalues --   -0.70811  -0.70797  -0.65423  -0.65334  -0.65177
 Alpha  occ. eigenvalues --   -0.64969  -0.62581  -0.62349  -0.55586  -0.55542
 Alpha  occ. eigenvalues --   -0.53935  -0.53264  -0.53102  -0.52924  -0.49454
 Alpha  occ. eigenvalues --   -0.49396  -0.49340  -0.49320  -0.45524  -0.45371
 Alpha  occ. eigenvalues --   -0.38049  -0.37464  -0.36920  -0.36306
 Alpha virt. eigenvalues --    0.04518   0.04560   0.10502   0.11360   0.15968
 Alpha virt. eigenvalues --    0.16107   0.20718   0.21580   0.26186   0.27255
 Alpha virt. eigenvalues --    0.28111   0.28594   0.30083   0.31193   0.31932

 Mulliken charges:
               1
     1  C   -0.169169
     2  C   -0.229391
     3  C   -0.180934
     4  C    0.156927
     5  C   -0.171998
     6  C   -0.216315
     7  H    0.235232
     8  H    0.238248
     9  H    0.275988
    10  H    0.275340
    11  H    0.225490
    12  N    0.486529
    13  O   -0.460066
    14  O   -0.460518
    15  C   -0.170696
    16  C   -0.219434
    17  C   -0.163483
    18  C    0.153357
    19  C   -0.171898
    20  C   -0.219959
    21  H    0.229178
    22  H    0.227428
    23  H    0.270195
    24  H    0.274894
    25  H    0.224086
    26  N    0.488155
    27  O   -0.458160
    28  O   -0.469024
 Sum of Mulliken charges =  -0.00000

 Dipole moment (field-independent basis, Debye):
    X=             -1.3313    Y=              1.6536    Z=              2.5072  Tot=              3.2852
 Quadrupole moment (field-independent basis, Debye-Ang):
   XX=           -139.1314   YY=            -99.4110   ZZ=            -99.5878
   XY=            -19.5616   XZ=              1.7256   YZ=              1.1152

 Normal termination of Gaussian 16 at Thu May  6 08:17:55 2021.
