 Gaussian 16, Revision A.03,
 Gaussian 16:  EM64L-G16RevA.03 25-Dec-2016

 -------------
 #p 6-31g* mp2
 -------------

 ------------------------------------------------------
 Input file generated by CHIRIPA (05-May-2021 14:51:09)
 ------------------------------------------------------
 Symbolic Z-matrix:
 Charge =  0 Multiplicity = 1

                         Standard orientation:
 ---------------------------------------------------------------------
 Center     Atomic      Atomic             Coordinates (Angstroms)
 Number     Number       Type             X           Y           Z
 ---------------------------------------------------------------------
      1          6           0        4.520410   -0.598525   -0.096611
      2          6           0        5.956259   -0.073504   -0.070630
      3          6           0        6.979259   -1.128743   -0.492218
      4          1           0        4.443752   -1.471098    0.566476
      5          1           0        4.285667   -0.954057   -1.109471
      6          1           0        6.187763    0.282207    0.941542
      7          1           0        6.029462    0.798037   -0.733708
      8          1           0        6.776228   -1.477106   -1.510070
      9          1           0        6.935429   -1.995867    0.174698
     10          1           0        7.999014   -0.732136   -0.466459
     11          6           0        3.486193    0.444822    0.322376
     12          6           0        2.050343   -0.080198    0.296395
     13          6           0        1.027343    0.975041    0.717983
     14          1           0        3.720936    0.800355    1.335237
     15          1           0        3.562850    1.317396   -0.340711
     16          1           0        1.977140   -0.951740    0.959473
     17          1           0        1.818839   -0.435910   -0.715776
     18          1           0        1.071174    1.842164    0.051068
     19          1           0        1.230374    1.323404    1.735835
     20          1           0        0.007589    0.578434    0.692224
     21          6           0       -4.063004    0.833468   -0.198892
     22          6           0       -2.717755    1.558137   -0.142806
     23          6           0       -2.853633    3.071143   -0.316427
     24          1           0       -4.549981    1.051509   -1.159234
     25          1           0       -4.721150    1.235642    0.583728
     26          1           0       -2.061863    1.153755   -0.924404
     27          1           0       -2.233838    1.338191    0.817436
     28          1           0       -3.486509    3.493918    0.470549
     29          1           0       -3.313557    3.308434   -1.281188
     30          1           0       -1.880055    3.569260   -0.273048
     31          6           0       -3.943598   -0.679766   -0.026873
     32          6           0       -5.288848   -1.404435   -0.082959
     33          6           0       -5.152969   -2.917441    0.090661
     34          1           0       -3.285453   -1.081940   -0.809494
     35          1           0       -3.456622   -0.897807    0.933469
     36          1           0       -5.772765   -1.184489   -1.043201
     37          1           0       -5.944740   -1.000053    0.698640
     38          1           0       -4.693045   -3.154732    1.055423
     39          1           0       -4.520093   -3.340216   -0.696314
     40          1           0       -6.126548   -3.415558    0.047282
 ---------------------------------------------------------------------

 SCF Done:  E(RHF) =  -470.732781471     A.U. after   11 cycles
 E2 =    -0.1582767289D+01 EUMP2 =    -0.47231554875966D+03

 The electronic state is 1-A.
 Alpha  occ. eigenvalues --  -11.21606 -11.21583 -11.21552 -11.21549 -11.21404
 Alpha  occ. eigenvalues --  -11.21374 -11.21337 -11.21313 -11.21074 -11.21058
 Alpha  occ. eigenvalues --  -11.21040 -11.20935  -1.08432  -1.08391  -1.03545
 Alpha  occ. eigenvalues --   -1.03464  -0.95989  -0.95916  -0.87012  -0.86933
 Alpha  occ. eigenvalues --   -0.79690  -0.79468  -0.78260  -0.78193  -0.65060
 Alpha  occ. eigenvalues --   -0.65024  -0.60934  -0.60877  -0.59540  -0.59145
 Alpha  occ. eigenvalues --   -0.57642  -0.57481  -0.55261  -0.55216  -0.52758
 Alpha  occ. eigenvalues --   -0.52583  -0.52432  -0.52303  -0.49920  -0.49871
 Alpha  occ. eigenvalues --   -0.48031  -0.47725  -0.46637  -0.46573  -0.45784
 Alpha  occ. eigenvalues --   -0.45748  -0.45711  -0.45675  -0.43812  -0.43616
 Alpha virt. eigenvalues --    0.22171   0.23052   0.23629   0.24761   0.26250
 Alpha virt. eigenvalues --    0.26595   0.26834   0.27175   0.27877   0.28939
 Alpha virt. eigenvalues --    0.30795   0.30937   0.31539   0.31775   0.32400

 Mulliken charges:
               1
     1  C   -0.298172
     2  C   -0.299581
     3  C   -0.475671
     4  H    0.149558
     5  H    0.149369
     6  H    0.151875
     7  H    0.151871
     8  H    0.155124
     9  H    0.155146
    10  H    0.160179
    11  C   -0.298413
    12  C   -0.299367
    13  C   -0.481602
    14  H    0.149364
    15  H    0.149419
    16  H    0.151580
    17  H    0.151386
    18  H    0.154243
    19  H    0.153724
    20  H    0.169046
    21  C   -0.297728
    22  C   -0.303002
    23  C   -0.476087
    24  H    0.149430
    25  H    0.149364
    26  H    0.153019
    27  H    0.155630
    28  H    0.154977
    29  H    0.154783
    30  H    0.161262
    31  C   -0.298747
    32  C   -0.299494
    33  C   -0.475721
    34  H    0.149370
    35  H    0.149206
    36  H    0.152024
    37  H    0.152002
    38  H    0.155168
    39  H    0.155190
    40  H    0.160279
 Sum of Mulliken charges =  -0.00000

 Dipole moment (field-independent basis, Debye):
    X=             -0.0364    Y=              0.0065    Z=              0.0022  Tot=              0.0370
 Quadrupole moment (field-independent basis, Debye-Ang):
   XX=            -85.6763   YY=            -86.3595   ZZ=            -82.8744
   XY=              0.4219   XZ=              0.2096   YZ=             -0.2528

 Normal termination of Gaussian 16 at Wed May  5 18:08:16 2021.
