 Gaussian 16, Revision A.03,
 Gaussian 16:  EM64L-G16RevA.03 25-Dec-2016

 -------------
 #p 6-31g* mp2
 -------------

 ------------------------------------------------------
 Input file generated by CHIRIPA (05-May-2021 14:53:12)
 ------------------------------------------------------
 Symbolic Z-matrix:
 Charge =  0 Multiplicity = 1

                         Standard orientation:
 ---------------------------------------------------------------------
 Center     Atomic      Atomic             Coordinates (Angstroms)
 Number     Number       Type             X           Y           Z
 ---------------------------------------------------------------------
      1          6           0        3.456924    0.807627   -0.781297
      2          6           0        2.606103    1.891553   -0.118581
      3          6           0        2.091372    2.930697   -1.115088
      4          1           0        4.306863    1.279413   -1.293123
      5          1           0        2.861950    0.308392   -1.558578
      6          1           0        3.202056    2.387665    0.658161
      7          1           0        1.758196    1.417115    0.391888
      8          1           0        1.474479    2.454538   -1.884059
      9          1           0        2.926543    3.430602   -1.616273
     10          1           0        1.485592    3.696081   -0.620035
     11          6           0        3.978800   -0.238531    0.202028
     12          6           0        4.829621   -1.322457   -0.460687
     13          6           0        5.344352   -2.361601    0.535820
     14          1           0        4.573774    0.260704    0.979309
     15          1           0        3.128861   -0.710317    0.713855
     16          1           0        5.677528   -0.848020   -0.971157
     17          1           0        4.233668   -1.818569   -1.237429
     18          1           0        4.509181   -2.861506    1.037005
     19          1           0        5.961245   -1.885442    1.304790
     20          1           0        5.950132   -3.126985    0.040767
     21          6           0       -0.784435    0.387543    1.450612
     22          6           0       -1.924177    1.187487    1.583273
     23          6           0       -3.104383    0.859184    0.909566
     24          6           0       -3.109547   -0.281261    0.107912
     25          6           0       -1.990390   -1.098301   -0.044471
     26          6           0       -0.821114   -0.750792    0.638596
     27          1           0        0.128132    0.650036    1.977599
     28          1           0       -1.898593    2.072114    2.213213
     29          1           0       -4.001199    1.460794    0.994434
     30          1           0       -2.046475   -1.974008   -0.679617
     31          1           0        0.062507   -1.373892    0.533701
     32          7           0       -4.353193   -0.638987   -0.610265
     33          8           0       -4.331924   -1.648899   -1.310452
     34          8           0       -5.325682    0.097313   -0.459385
 ---------------------------------------------------------------------

 SCF Done:  E(RHF) =  -669.535182562     A.U. after   15 cycles
 E2 =    -0.2092239432D+01 EUMP2 =    -0.67162742199406D+03

 The electronic state is 1-A.
 Alpha  occ. eigenvalues --  -20.60791 -20.60786 -15.85846 -11.31227 -11.27799
 Alpha  occ. eigenvalues --  -11.27793 -11.27519 -11.26823 -11.26802 -11.22429
 Alpha  occ. eigenvalues --  -11.22339 -11.22278 -11.22151 -11.21723 -11.21697
 Alpha  occ. eigenvalues --   -1.59866  -1.39419  -1.19403  -1.09240  -1.08795
 Alpha  occ. eigenvalues --   -1.04806  -1.04267  -0.96699  -0.95629  -0.87711
 Alpha  occ. eigenvalues --   -0.86203  -0.82462  -0.80347  -0.79075  -0.77500
 Alpha  occ. eigenvalues --   -0.72063  -0.71190  -0.70534  -0.65894  -0.65052
 Alpha  occ. eigenvalues --   -0.64792  -0.62151  -0.61668  -0.60076  -0.58324
 Alpha  occ. eigenvalues --   -0.55996  -0.55315  -0.53372  -0.53151  -0.53101
 Alpha  occ. eigenvalues --   -0.52894  -0.50631  -0.48829  -0.48817  -0.48640
 Alpha  occ. eigenvalues --   -0.47376  -0.46607  -0.46521  -0.44822  -0.44539
 Alpha  occ. eigenvalues --   -0.37342  -0.36409
 Alpha virt. eigenvalues --    0.04993   0.11191   0.16383   0.19087   0.22669
 Alpha virt. eigenvalues --    0.23653   0.25041   0.26282   0.26866   0.27785
 Alpha virt. eigenvalues --    0.29527   0.30536   0.30955   0.31298   0.32129

 Mulliken charges:
               1
     1  C   -0.298665
     2  C   -0.304837
     3  C   -0.474944
     4  H    0.153524
     5  H    0.150995
     6  H    0.151764
     7  H    0.146355
     8  H    0.159079
     9  H    0.157591
    10  H    0.159659
    11  C   -0.297751
    12  C   -0.300301
    13  C   -0.475799
    14  H    0.151643
    15  H    0.138897
    16  H    0.155193
    17  H    0.152441
    18  H    0.152970
    19  H    0.156413
    20  H    0.163277
    21  C   -0.169527
    22  C   -0.219956
    23  C   -0.170868
    24  C    0.158836
    25  C   -0.171054
    26  C   -0.220286
    27  H    0.227626
    28  H    0.223892
    29  H    0.275830
    30  H    0.275755
    31  H    0.224796
    32  N    0.488045
    33  O   -0.460365
    34  O   -0.460230
 Sum of Mulliken charges =  -0.00000

 Dipole moment (field-independent basis, Debye):
    X=              4.4861    Y=              1.3007    Z=              2.4485  Tot=              5.2737
 Quadrupole moment (field-independent basis, Debye-Ang):
   XX=           -120.2911   YY=            -92.7613   ZZ=            -94.3765
   XY=             -6.4892   XZ=             -8.8880   YZ=              1.7853

 Normal termination of Gaussian 16 at Thu May  6 13:41:08 2021.
