 Gaussian 16, Revision A.03,
 Gaussian 16:  EM64L-G16RevA.03 25-Dec-2016

 -------------
 #p 6-31g* mp2
 -------------

 ------------------------------------------------------
 Input file generated by CHIRIPA (05-May-2021 14:55:24)
 ------------------------------------------------------
 Symbolic Z-matrix:
 Charge =  0 Multiplicity = 1

                         Standard orientation:
 ---------------------------------------------------------------------
 Center     Atomic      Atomic             Coordinates (Angstroms)
 Number     Number       Type             X           Y           Z
 ---------------------------------------------------------------------
      1          6           0        1.833712    1.976938    1.005565
      2          6           0        1.813764    0.812040    1.779604
      3          6           0        2.438054   -0.353323    1.324920
      4          6           0        3.075896   -0.318155    0.085883
      5          6           0        3.113072    0.826819   -0.708435
      6          6           0        2.482159    1.980603   -0.233799
      7          1           0        1.346176    2.877722    1.366525
      8          1           0        1.310932    0.806279    2.742502
      9          1           0        2.437878   -1.268950    1.903751
     10          1           0        3.622333    0.801847   -1.664180
     11          1           0        2.499251    2.883831   -0.837067
     12          7           0        3.740310   -1.545744   -0.406032
     13          8           0        4.295484   -1.488830   -1.501103
     14          8           0        3.693322   -2.541598    0.312790
     15          6           0       -3.523634    0.810056   -0.479691
     16          6           0       -2.027419    0.994594   -0.224206
     17          6           0       -1.495320    2.323254   -0.762099
     18          1           0       -3.715255    0.873188   -1.559617
     19          1           0       -4.072958    1.640913   -0.015671
     20          1           0       -1.481193    0.162899   -0.687387
     21          1           0       -1.839312    0.930824    0.855222
     22          1           0       -2.014178    3.164778   -0.291752
     23          1           0       -1.654025    2.392490   -1.843126
     24          1           0       -0.423829    2.434437   -0.568698
     25          6           0       -4.070331   -0.513521    0.052281
     26          6           0       -5.566546   -0.698058   -0.203203
     27          6           0       -6.098645   -2.026719    0.334689
     28          1           0       -3.521007   -1.344378   -0.411738
     29          1           0       -3.878710   -0.576653    1.132208
     30          1           0       -5.754653   -0.634289   -1.282631
     31          1           0       -6.112772    0.133636    0.259978
     32          1           0       -5.939940   -2.095955    1.415717
     33          1           0       -5.579787   -2.868243   -0.135657
     34          1           0       -7.170136   -2.137902    0.141288
 ---------------------------------------------------------------------

 SCF Done:  E(RHF) =  -669.534806025     A.U. after   15 cycles
 E2 =    -0.2092674168D+01 EUMP2 =    -0.67162748019267D+03

 The electronic state is 1-A.
 Alpha  occ. eigenvalues --  -20.60804 -20.60799 -15.85859 -11.31241 -11.27824
 Alpha  occ. eigenvalues --  -11.27818 -11.27565 -11.26835 -11.26823 -11.22008
 Alpha  occ. eigenvalues --  -11.21810 -11.21713 -11.21621 -11.21524 -11.21228
 Alpha  occ. eigenvalues --   -1.59880  -1.39433  -1.19430  -1.08840  -1.08721
 Alpha  occ. eigenvalues --   -1.04832  -1.03842  -0.96311  -0.95647  -0.87329
 Alpha  occ. eigenvalues --   -0.86230  -0.82478  -0.79909  -0.78533  -0.77518
 Alpha  occ. eigenvalues --   -0.72078  -0.71204  -0.70550  -0.65363  -0.65085
 Alpha  occ. eigenvalues --   -0.64836  -0.62176  -0.61241  -0.59731  -0.57947
 Alpha  occ. eigenvalues --   -0.55599  -0.55326  -0.53473  -0.52921  -0.52857
 Alpha  occ. eigenvalues --   -0.52506  -0.50241  -0.48838  -0.48831  -0.48228
 Alpha  occ. eigenvalues --   -0.46941  -0.46082  -0.45996  -0.44835  -0.44118
 Alpha  occ. eigenvalues --   -0.37325  -0.36415
 Alpha virt. eigenvalues --    0.04998   0.11099   0.16453   0.20909   0.22695
 Alpha virt. eigenvalues --    0.24208   0.26247   0.26818   0.27222   0.27618
 Alpha virt. eigenvalues --    0.28704   0.30844   0.31122   0.31590   0.31840

 Mulliken charges:
               1
     1  C   -0.170312
     2  C   -0.218067
     3  C   -0.170668
     4  C    0.158242
     5  C   -0.170960
     6  C   -0.218402
     7  H    0.227929
     8  H    0.223826
     9  H    0.276009
    10  H    0.276009
    11  H    0.224799
    12  N    0.488066
    13  O   -0.460303
    14  O   -0.460262
    15  C   -0.298597
    16  C   -0.296642
    17  C   -0.483156
    18  H    0.151041
    19  H    0.148470
    20  H    0.156262
    21  H    0.146187
    22  H    0.151622
    23  H    0.156851
    24  H    0.160178
    25  C   -0.298471
    26  C   -0.299844
    27  C   -0.475923
    28  H    0.151713
    29  H    0.148047
    30  H    0.152769
    31  H    0.151387
    32  H    0.154751
    33  H    0.156564
    34  H    0.160884
 Sum of Mulliken charges =  -0.00000

 Dipole moment (field-independent basis, Debye):
    X=             -2.3039    Y=              4.2556    Z=              1.7278  Tot=              5.1385
 Quadrupole moment (field-independent basis, Debye-Ang):
   XX=           -109.6866   YY=            -97.6974   ZZ=            -90.4781
   XY=             14.6171   XZ=              3.9307   YZ=             -1.7131

 Normal termination of Gaussian 16 at Thu May  6 03:09:31 2021.
