 Gaussian 16, Revision A.03,
 Gaussian 16:  EM64L-G16RevA.03 25-Dec-2016

 -------------
 #p 6-31g* mp2
 -------------

 ------------------------------------------------------
 Input file generated by CHIRIPA (05-May-2021 14:57:23)
 ------------------------------------------------------
 Symbolic Z-matrix:
 Charge =  0 Multiplicity = 1

                         Standard orientation:
 ---------------------------------------------------------------------
 Center     Atomic      Atomic             Coordinates (Angstroms)
 Number     Number       Type             X           Y           Z
 ---------------------------------------------------------------------
      1          6           0        3.702757   -1.818315    0.239794
      2          6           0        3.461128   -1.146238    1.442478
      3          6           0        2.807084    0.089383    1.446355
      4          6           0        2.406544    0.626243    0.223801
      5          6           0        2.632796   -0.018979   -0.991020
      6          6           0        3.288550   -1.253536   -0.970982
      7          1           0        4.211498   -2.777762    0.246071
      8          1           0        3.781683   -1.582462    2.384283
      9          1           0        2.607238    0.631200    2.362823
     10          1           0        2.301414    0.441058   -1.914043
     11          1           0        3.474862   -1.773225   -1.906533
     12          7           0        1.713231    1.933777    0.215246
     13          8           0        1.370348    2.385487   -0.875179
     14          8           0        1.525825    2.482153    1.299127
     15          6           0       -4.644982    0.081060    1.044413
     16          6           0       -3.790981   -0.938713    1.477156
     17          6           0       -2.611386   -1.219968    0.781455
     18          6           0       -2.315453   -0.458291   -0.347953
     19          6           0       -3.145978    0.564192   -0.804074
     20          6           0       -4.320327    0.827940   -0.092816
     21          1           0       -5.559282    0.292745    1.590892
     22          1           0       -4.040566   -1.520373    2.360006
     23          1           0       -1.932302   -2.003743    1.094439
     24          1           0       -2.870351    1.126924   -1.687691
     25          1           0       -4.981675    1.620507   -0.431199
     26          7           0       -1.069445   -0.746777   -1.092695
     27          8           0       -0.831377   -0.061306   -2.084709
     28          8           0       -0.354485   -1.652900   -0.670308
 ---------------------------------------------------------------------

 SCF Done:  E(RHF) =  -868.338691355     A.U. after   16 cycles
 E2 =    -0.2601691603D+01 EUMP2 =    -0.87094038295807D+03

 The electronic state is 1-A.
 Alpha  occ. eigenvalues --  -20.60822 -20.60756 -20.59822 -20.59758 -15.85778
 Alpha  occ. eigenvalues --  -15.84824 -11.30973 -11.29860 -11.27574 -11.27481
 Alpha  occ. eigenvalues --  -11.27267 -11.26574 -11.26545 -11.26478 -11.26319
 Alpha  occ. eigenvalues --  -11.26246 -11.25537 -11.25328  -1.59853  -1.58883
 Alpha  occ. eigenvalues --   -1.39401  -1.38434  -1.19137  -1.18051  -1.08577
 Alpha  occ. eigenvalues --   -1.07540  -1.04515  -1.03418  -0.95441  -0.94412
 Alpha  occ. eigenvalues --   -0.85926  -0.84866  -0.82276  -0.81259  -0.77340
 Alpha  occ. eigenvalues --   -0.76319  -0.72027  -0.71255  -0.71052  -0.70259
 Alpha  occ. eigenvalues --   -0.70133  -0.69232  -0.64799  -0.64532  -0.63740
 Alpha  occ. eigenvalues --   -0.63482  -0.61867  -0.60792  -0.55050  -0.54024
 Alpha  occ. eigenvalues --   -0.52857  -0.52616  -0.51792  -0.51562  -0.48794
 Alpha  occ. eigenvalues --   -0.48744  -0.47830  -0.47797  -0.44859  -0.43836
 Alpha  occ. eigenvalues --   -0.37121  -0.36100  -0.36050  -0.34895
 Alpha virt. eigenvalues --    0.05098   0.06262   0.11556   0.12676   0.16697
 Alpha virt. eigenvalues --    0.17731   0.21659   0.22604   0.27576   0.28492
 Alpha virt. eigenvalues --    0.28573   0.29513   0.31199   0.32058   0.32795

 Mulliken charges:
               1
     1  C   -0.168762
     2  C   -0.219564
     3  C   -0.172577
     4  C    0.150552
     5  C   -0.151860
     6  C   -0.209880
     7  H    0.220488
     8  H    0.216342
     9  H    0.268795
    10  H    0.283041
    11  H    0.221675
    12  N    0.484952
    13  O   -0.456747
    14  O   -0.469394
    15  C   -0.169673
    16  C   -0.218404
    17  C   -0.170703
    18  C    0.158447
    19  C   -0.166537
    20  C   -0.218112
    21  H    0.225390
    22  H    0.221934
    23  H    0.272729
    24  H    0.279572
    25  H    0.224574
    26  N    0.485766
    27  O   -0.457017
    28  O   -0.465027
 Sum of Mulliken charges =  -0.00000

 Dipole moment (field-independent basis, Debye):
    X=             -2.1845    Y=             -3.6004    Z=              2.2596  Tot=              4.7792
 Quadrupole moment (field-independent basis, Debye-Ang):
   XX=            -74.1443   YY=           -110.3716   ZZ=           -100.1048
   XY=            -11.4849   XZ=             -3.6146   YZ=             -5.2457

 Normal termination of Gaussian 16 at Wed May  5 19:26:24 2021.
