 Gaussian 16, Revision A.03,
 Gaussian 16:  EM64L-G16RevA.03 25-Dec-2016

 -------------
 #p 6-31g* mp2
 -------------

 ------------------------------------------------------
 Input file generated by CHIRIPA (05-May-2021 14:55:23)
 ------------------------------------------------------
 Symbolic Z-matrix:
 Charge =  0 Multiplicity = 1

                         Standard orientation:
 ---------------------------------------------------------------------
 Center     Atomic      Atomic             Coordinates (Angstroms)
 Number     Number       Type             X           Y           Z
 ---------------------------------------------------------------------
      1          6           0       -2.195213    1.842609   -0.289023
      2          6           0       -1.791289    0.618048    0.253026
      3          6           0       -2.699010   -0.438169    0.375487
      4          6           0       -4.008745   -0.234202   -0.056118
      5          6           0       -4.441535    0.974020   -0.600345
      6          6           0       -3.516717    2.016380   -0.713230
      7          1           0       -1.483433    2.657722   -0.380434
      8          1           0       -0.765631    0.480244    0.583300
      9          1           0       -2.413087   -1.396629    0.791443
     10          1           0       -5.470698    1.081340   -0.920850
     11          1           0       -3.833216    2.966296   -1.134578
     12          7           0       -4.978759   -1.345037    0.068458
     13          8           0       -6.126949   -1.139972   -0.319155
     14          8           0       -4.572497   -2.399741    0.551353
     15          6           0        5.570480   -0.297810    0.290076
     16          6           0        6.388621   -0.760018   -0.916155
     17          6           0        7.673897   -1.485058   -0.515935
     18          1           0        6.188208    0.364349    0.912092
     19          1           0        5.322588   -1.169218    0.911842
     20          1           0        6.633717    0.111820   -1.536190
     21          1           0        5.768810   -1.421000   -1.535472
     22          1           0        7.445131   -2.371859    0.083939
     23          1           0        8.314951   -0.830331    0.083217
     24          1           0        8.243287   -1.806751   -1.393528
     25          6           0        4.282640    0.428685   -0.093854
     26          6           0        3.464499    0.890893    1.112376
     27          6           0        2.179223    1.615933    0.712157
     28          1           0        4.530532    1.300092   -0.715622
     29          1           0        3.664911   -0.233473   -0.715870
     30          1           0        4.084310    1.551875    1.731694
     31          1           0        3.219403    0.019054    1.732412
     32          1           0        1.538169    0.961205    0.113005
     33          1           0        2.407990    2.502734    0.112283
     34          1           0        1.609833    1.937626    1.589750
 ---------------------------------------------------------------------

 SCF Done:  E(RHF) =  -669.535618285     A.U. after   15 cycles
 E2 =    -0.2090855768D+01 EUMP2 =    -0.67162647405355D+03

 The electronic state is 1-A.
 Alpha  occ. eigenvalues --  -20.60710 -20.60704 -15.85762 -11.31109 -11.27680
 Alpha  occ. eigenvalues --  -11.27665 -11.27396 -11.26689 -11.26620 -11.22505
 Alpha  occ. eigenvalues --  -11.22336 -11.22088 -11.22036 -11.21907 -11.21418
 Alpha  occ. eigenvalues --   -1.59785  -1.39340  -1.19276  -1.09097  -1.08671
 Alpha  occ. eigenvalues --   -1.04677  -1.04243  -0.96721  -0.95510  -0.87753
 Alpha  occ. eigenvalues --   -0.86070  -0.82344  -0.80322  -0.78860  -0.77398
 Alpha  occ. eigenvalues --   -0.71980  -0.71108  -0.70378  -0.65740  -0.64925
 Alpha  occ. eigenvalues --   -0.64696  -0.62096  -0.61581  -0.60109  -0.58294
 Alpha  occ. eigenvalues --   -0.56032  -0.55156  -0.53460  -0.53166  -0.53001
 Alpha  occ. eigenvalues --   -0.52724  -0.50634  -0.48742  -0.48737  -0.48616
 Alpha  occ. eigenvalues --   -0.47323  -0.46415  -0.46306  -0.44749  -0.44476
 Alpha  occ. eigenvalues --   -0.37254  -0.36281
 Alpha virt. eigenvalues --    0.05136   0.11331   0.16631   0.20251   0.22409
 Alpha virt. eigenvalues --    0.23727   0.25725   0.26218   0.26977   0.27985
 Alpha virt. eigenvalues --    0.28998   0.30140   0.30828   0.31549   0.31822

 Mulliken charges:
               1
     1  C   -0.173025
     2  C   -0.225191
     3  C   -0.172184
     4  C    0.158862
     5  C   -0.171359
     6  C   -0.218590
     7  H    0.226696
     8  H    0.232747
     9  H    0.275375
    10  H    0.275267
    11  H    0.223042
    12  N    0.488012
    13  O   -0.460692
    14  O   -0.460712
    15  C   -0.298982
    16  C   -0.300194
    17  C   -0.476109
    18  H    0.150734
    19  H    0.150739
    20  H    0.152302
    21  H    0.152762
    22  H    0.156071
    23  H    0.155661
    24  H    0.161676
    25  C   -0.299270
    26  C   -0.299229
    27  C   -0.484859
    28  H    0.150480
    29  H    0.150270
    30  H    0.155842
    31  H    0.153699
    32  H    0.151232
    33  H    0.158625
    34  H    0.160303
 Sum of Mulliken charges =  -0.00000

 Dipole moment (field-independent basis, Debye):
    X=              3.6854    Y=              3.9296    Z=             -0.4316  Tot=              5.4046
 Quadrupole moment (field-independent basis, Debye-Ang):
   XX=           -119.7867   YY=            -94.8091   ZZ=            -94.6761
   XY=            -18.0301   XZ=              3.1680   YZ=             -1.4068

 Normal termination of Gaussian 16 at Thu May  6 12:36:41 2021.
