 Gaussian 16, Revision A.03,
 Gaussian 16:  EM64L-G16RevA.03 25-Dec-2016

 -------------
 #p 6-31g* mp2
 -------------

 ------------------------------------------------------
 Input file generated by CHIRIPA (05-May-2021 14:57:22)
 ------------------------------------------------------
 Symbolic Z-matrix:
 Charge =  0 Multiplicity = 1

                         Standard orientation:
 ---------------------------------------------------------------------
 Center     Atomic      Atomic             Coordinates (Angstroms)
 Number     Number       Type             X           Y           Z
 ---------------------------------------------------------------------
      1          6           0       -1.623862    0.595442   -0.874638
      2          6           0       -2.712207    1.457241   -1.045889
      3          6           0       -3.985513    1.090135   -0.600385
      4          6           0       -4.135174   -0.151765    0.014900
      5          6           0       -3.070475   -1.032348    0.200044
      6          6           0       -1.806148   -0.644417   -0.253314
      7          1           0       -0.638214    0.888708   -1.223767
      8          1           0       -2.573597    2.420742   -1.528070
      9          1           0       -4.845409    1.737942   -0.720148
     10          1           0       -3.239791   -1.986383    0.684366
     11          1           0       -0.962741   -1.315731   -0.118975
     12          7           0       -5.478414   -0.551427    0.490693
     13          8           0       -5.583974   -1.650972    1.029670
     14          8           0       -6.400250    0.242429    0.315632
     15          6           0        2.905205    2.359520    0.486960
     16          6           0        2.472254    1.593116   -0.600099
     17          6           0        3.024034    0.331991   -0.844332
     18          6           0        4.011299   -0.133910    0.022579
     19          6           0        4.463706    0.605903    1.114044
     20          6           0        3.897799    1.864340    1.339061
     21          1           0        2.471082    3.338149    0.669222
     22          1           0        1.701547    1.975139   -1.263511
     23          1           0        2.707428   -0.282311   -1.678484
     24          1           0        5.233622    0.198322    1.757879
     25          1           0        4.235981    2.457341    2.184062
     26          7           0        4.602921   -1.467584   -0.225807
     27          8           0        5.471320   -1.855450    0.552705
     28          8           0        4.187034   -2.099798   -1.194300
 ---------------------------------------------------------------------

 SCF Done:  E(RHF) =  -868.336818894     A.U. after   16 cycles
 E2 =    -0.2599846311D+01 EUMP2 =    -0.87093666520523D+03

 The electronic state is 1-A.
 Alpha  occ. eigenvalues --  -20.61516 -20.61501 -20.61020 -20.61012 -15.86573
 Alpha  occ. eigenvalues --  -15.86074 -11.32073 -11.31529 -11.28749 -11.28624
 Alpha  occ. eigenvalues --  -11.28431 -11.28117 -11.28068 -11.27954 -11.27828
 Alpha  occ. eigenvalues --  -11.27625 -11.27209 -11.27120  -1.60586  -1.60092
 Alpha  occ. eigenvalues --   -1.40136  -1.39642  -1.20273  -1.19716  -1.09632
 Alpha  occ. eigenvalues --   -1.09117  -1.05713  -1.05124  -0.96441  -0.95935
 Alpha  occ. eigenvalues --   -0.87096  -0.86529  -0.83289  -0.82752  -0.78316
 Alpha  occ. eigenvalues --   -0.77766  -0.72784  -0.72292  -0.71916  -0.71415
 Alpha  occ. eigenvalues --   -0.71357  -0.70905  -0.65926  -0.65732  -0.65376
 Alpha  occ. eigenvalues --   -0.65131  -0.63062  -0.62460  -0.56192  -0.55723
 Alpha  occ. eigenvalues --   -0.54000  -0.53781  -0.53455  -0.53220  -0.49555
 Alpha  occ. eigenvalues --   -0.49533  -0.49058  -0.49040  -0.45512  -0.45027
 Alpha  occ. eigenvalues --   -0.38238  -0.37740  -0.37310  -0.36718
 Alpha virt. eigenvalues --    0.04228   0.04754   0.10282   0.10927   0.15532
 Alpha virt. eigenvalues --    0.16225   0.18569   0.21887   0.24879   0.26727
 Alpha virt. eigenvalues --    0.27576   0.28903   0.29827   0.31456   0.32233

 Mulliken charges:
               1
     1  C   -0.171535
     2  C   -0.219684
     3  C   -0.170558
     4  C    0.158980
     5  C   -0.170363
     6  C   -0.219516
     7  H    0.218058
     8  H    0.220813
     9  H    0.276264
    10  H    0.278035
    11  H    0.227800
    12  N    0.487901
    13  O   -0.458647
    14  O   -0.460018
    15  C   -0.169308
    16  C   -0.221745
    17  C   -0.174120
    18  C    0.158995
    19  C   -0.168984
    20  C   -0.218213
    21  H    0.228101
    22  H    0.216548
    23  H    0.274526
    24  H    0.278883
    25  H    0.227299
    26  N    0.487932
    27  O   -0.457106
    28  O   -0.460338
 Sum of Mulliken charges =  -0.00000

 Dipole moment (field-independent basis, Debye):
    X=              2.8044    Y=              6.0354    Z=             -0.5991  Tot=              6.6820
 Quadrupole moment (field-independent basis, Debye-Ang):
   XX=           -157.8767   YY=           -103.3004   ZZ=           -102.1346
   XY=             11.4639   XZ=             14.3265   YZ=             -0.6354

 Normal termination of Gaussian 16 at Wed May  5 20:57:40 2021.
