 Gaussian 16, Revision A.03,
 Gaussian 16:  EM64L-G16RevA.03 25-Dec-2016

 -------------
 #p 6-31g* mp2
 -------------

 ------------------------------------------------------
 Input file generated by CHIRIPA (05-May-2021 14:57:27)
 ------------------------------------------------------
 Symbolic Z-matrix:
 Charge =  0 Multiplicity = 1

                         Standard orientation:
 ---------------------------------------------------------------------
 Center     Atomic      Atomic             Coordinates (Angstroms)
 Number     Number       Type             X           Y           Z
 ---------------------------------------------------------------------
      1          6           0        3.030691   -2.305401   -0.302113
      2          6           0        4.092953   -1.607982    0.282460
      3          6           0        4.086165   -0.210644    0.326614
      4          6           0        2.996252    0.460332   -0.225807
      5          6           0        1.922991   -0.206080   -0.815127
      6          6           0        1.951004   -1.603462   -0.848078
      7          1           0        3.044207   -3.390904   -0.332062
      8          1           0        4.932765   -2.150492    0.707246
      9          1           0        4.895384    0.354374    0.773087
     10          1           0        1.099658    0.362383   -1.230327
     11          1           0        1.124658   -2.142457   -1.302703
     12          7           0        2.977831    1.939654   -0.184993
     13          8           0        2.005936    2.507431   -0.678640
     14          8           0        3.935636    2.503359    0.339871
     15          6           0       -1.025369   -1.591527    0.993407
     16          6           0       -1.350028   -0.404854    1.658931
     17          6           0       -2.441538    0.364995    1.246030
     18          6           0       -3.190119   -0.083591    0.158976
     19          6           0       -2.891922   -1.261349   -0.524584
     20          6           0       -1.795993   -2.015241   -0.094310
     21          1           0       -0.175742   -2.183366    1.320907
     22          1           0       -0.753327   -0.073348    2.503974
     23          1           0       -2.715174    1.287696    1.743185
     24          1           0       -3.505464   -1.566053   -1.363715
     25          1           0       -1.546195   -2.936406   -0.613059
     26          7           0       -4.347990    0.722967   -0.287341
     27          8           0       -4.991684    0.306015   -1.247782
     28          8           0       -4.589910    1.756826    0.331728
 ---------------------------------------------------------------------

 SCF Done:  E(RHF) =  -868.336278533     A.U. after   16 cycles
 E2 =    -0.2602380813D+01 EUMP2 =    -0.87093865934689D+03

 The electronic state is 1-A.
 Alpha  occ. eigenvalues --  -20.61276 -20.61268 -20.60936 -20.60917 -15.86332
 Alpha  occ. eigenvalues --  -15.85993 -11.31841 -11.31496 -11.28418 -11.28397
 Alpha  occ. eigenvalues --  -11.28244 -11.28196 -11.28079 -11.27911 -11.27491
 Alpha  occ. eigenvalues --  -11.27471 -11.27253 -11.27065  -1.60351  -1.60003
 Alpha  occ. eigenvalues --   -1.39897  -1.39552  -1.20054  -1.19729  -1.09435
 Alpha  occ. eigenvalues --   -1.09097  -1.05458  -1.05155  -0.96223  -0.95895
 Alpha  occ. eigenvalues --   -0.86877  -0.86535  -0.83046  -0.82715  -0.78063
 Alpha  occ. eigenvalues --   -0.77733  -0.72542  -0.72209  -0.71685  -0.71330
 Alpha  occ. eigenvalues --   -0.71145  -0.70838  -0.65689  -0.65586  -0.65336
 Alpha  occ. eigenvalues --   -0.65100  -0.62800  -0.62469  -0.55982  -0.55705
 Alpha  occ. eigenvalues --   -0.53956  -0.53564  -0.53276  -0.53232  -0.49317
 Alpha  occ. eigenvalues --   -0.49288  -0.48980  -0.48951  -0.45268  -0.44927
 Alpha  occ. eigenvalues --   -0.38227  -0.38012  -0.36780  -0.36576
 Alpha virt. eigenvalues --    0.04302   0.04967   0.10183   0.11035   0.15633
 Alpha virt. eigenvalues --    0.16543   0.19815   0.21633   0.25453   0.27440
 Alpha virt. eigenvalues --    0.27651   0.28424   0.29673   0.31281   0.31781

 Mulliken charges:
               1
     1  C   -0.176313
     2  C   -0.218721
     3  C   -0.171439
     4  C    0.156304
     5  C   -0.168314
     6  C   -0.223698
     7  H    0.225005
     8  H    0.225239
     9  H    0.277527
    10  H    0.280930
    11  H    0.222046
    12  N    0.487493
    13  O   -0.457125
    14  O   -0.459222
    15  C   -0.167449
    16  C   -0.220384
    17  C   -0.167032
    18  C    0.157586
    19  C   -0.170496
    20  C   -0.229136
    21  H    0.225694
    22  H    0.227236
    23  H    0.280147
    24  H    0.276411
    25  H    0.217034
    26  N    0.488361
    27  O   -0.460679
    28  O   -0.457006
 Sum of Mulliken charges =  -0.00000

 Dipole moment (field-independent basis, Debye):
    X=              4.1166    Y=             -7.7624    Z=              1.5136  Tot=              8.9158
 Quadrupole moment (field-independent basis, Debye-Ang):
   XX=           -126.7427   YY=           -108.3236   ZZ=           -101.4079
   XY=             -6.4062   XZ=             -1.8745   YZ=              3.2696

 Normal termination of Gaussian 16 at Fri May  7 03:36:51 2021.
