 Gaussian 16, Revision A.03,
 Gaussian 16:  EM64L-G16RevA.03 25-Dec-2016

 -------------
 #p 6-31g* mp2
 -------------

 ------------------------------------------------------
 Input file generated by CHIRIPA (05-May-2021 14:53:18)
 ------------------------------------------------------
 Symbolic Z-matrix:
 Charge =  0 Multiplicity = 1

                         Standard orientation:
 ---------------------------------------------------------------------
 Center     Atomic      Atomic             Coordinates (Angstroms)
 Number     Number       Type             X           Y           Z
 ---------------------------------------------------------------------
      1          6           0        2.508354    0.591830   -0.605049
      2          6           0        2.860085    2.076231   -0.709095
      3          6           0        1.715419    2.916668   -1.275839
      4          1           0        2.233454    0.216054   -1.600120
      5          1           0        1.618619    0.476580    0.029366
      6          1           0        3.749713    2.188530   -1.342000
      7          1           0        3.134365    2.448471    0.286306
      8          1           0        0.826548    2.834295   -0.642022
      9          1           0        1.445391    2.572878   -2.279579
     10          1           0        1.988388    3.974510   -1.341554
     11          6           0        3.642669   -0.261387   -0.040178
     12          6           0        3.290938   -1.745788    0.063868
     13          6           0        4.435605   -2.586225    0.630611
     14          1           0        4.532405   -0.146137   -0.674593
     15          1           0        3.917570    0.114389    0.954893
     16          1           0        3.016658   -2.118028   -0.931533
     17          1           0        2.401311   -1.858087    0.696773
     18          1           0        4.705632   -2.242435    1.634352
     19          1           0        5.324476   -2.503852   -0.003206
     20          1           0        4.162635   -3.644067    0.696327
     21          6           0       -3.459124   -2.036851   -1.016970
     22          6           0       -4.061688   -0.774544   -1.021305
     23          6           0       -3.485238    0.289787   -0.321697
     24          6           0       -2.300616    0.055357    0.374725
     25          6           0       -1.676198   -1.190773    0.398184
     26          6           0       -2.270398   -2.240577   -0.308489
     27          1           0       -3.913818   -2.858006   -1.563187
     28          1           0       -4.984893   -0.613417   -1.570647
     29          1           0       -3.930486    1.277203   -0.308164
     30          1           0       -0.756160   -1.320740    0.955010
     31          1           0       -1.800213   -3.219835   -0.303352
     32          7           0       -1.680959    1.174427    1.119109
     33          8           0       -0.637089    0.942015    1.724876
     34          8           0       -2.250877    2.262777    1.082694
 ---------------------------------------------------------------------

 SCF Done:  E(RHF) =  -669.536674903     A.U. after   15 cycles
 E2 =    -0.2092271196D+01 EUMP2 =    -0.67162894609969D+03

 The electronic state is 1-A.
 Alpha  occ. eigenvalues --  -20.61036 -20.61025 -15.86040 -11.31291 -11.27850
 Alpha  occ. eigenvalues --  -11.27846 -11.27580 -11.26845 -11.26833 -11.21499
 Alpha  occ. eigenvalues --  -11.20979 -11.20949 -11.20843 -11.20653 -11.20231
 Alpha  occ. eigenvalues --   -1.60081  -1.39639  -1.19456  -1.08875  -1.07929
 Alpha  occ. eigenvalues --   -1.04842  -1.03052  -0.95728  -0.95485  -0.86510
 Alpha  occ. eigenvalues --   -0.86248  -0.82564  -0.79166  -0.77777  -0.77569
 Alpha  occ. eigenvalues --   -0.72265  -0.71386  -0.70569  -0.65118  -0.64852
 Alpha  occ. eigenvalues --   -0.64530  -0.62191  -0.60430  -0.58904  -0.57106
 Alpha  occ. eigenvalues --   -0.55355  -0.54749  -0.53175  -0.52936  -0.52223
 Alpha  occ. eigenvalues --   -0.51923  -0.49451  -0.49027  -0.48999  -0.47476
 Alpha  occ. eigenvalues --   -0.46200  -0.45530  -0.45239  -0.44617  -0.43287
 Alpha  occ. eigenvalues --   -0.37432  -0.36435
 Alpha virt. eigenvalues --    0.04850   0.11183   0.16328   0.20563   0.23128
 Alpha virt. eigenvalues --    0.24671   0.25249   0.27368   0.27684   0.28387
 Alpha virt. eigenvalues --    0.29272   0.31278   0.31453   0.32124   0.32205

 Mulliken charges:
               1
     1  C   -0.309724
     2  C   -0.297144
     3  C   -0.479514
     4  H    0.142541
     5  H    0.166014
     6  H    0.147073
     7  H    0.156450
     8  H    0.166616
     9  H    0.148547
    10  H    0.159050
    11  C   -0.297171
    12  C   -0.299279
    13  C   -0.475218
    14  H    0.147564
    15  H    0.153261
    16  H    0.148425
    17  H    0.146795
    18  H    0.157330
    19  H    0.155669
    20  H    0.156572
    21  C   -0.170336
    22  C   -0.218691
    23  C   -0.170438
    24  C    0.158508
    25  C   -0.171277
    26  C   -0.218991
    27  H    0.226045
    28  H    0.223830
    29  H    0.275808
    30  H    0.277538
    31  H    0.224313
    32  N    0.488394
    33  O   -0.460422
    34  O   -0.458135
 Sum of Mulliken charges =  -0.00000

 Dipole moment (field-independent basis, Debye):
    X=             -2.3725    Y=             -3.8496    Z=             -2.4874  Tot=              5.1609
 Quadrupole moment (field-independent basis, Debye-Ang):
   XX=            -82.7933   YY=            -94.3628   ZZ=            -96.5457
   XY=              7.1649   XZ=              6.4223   YZ=             -1.8779

 Normal termination of Gaussian 16 at Wed May  5 20:28:02 2021.
