 Gaussian 16, Revision A.03,
 Gaussian 16:  EM64L-G16RevA.03 25-Dec-2016

 -------------
 #p 6-31g* mp2
 -------------

 ------------------------------------------------------
 Input file generated by CHIRIPA (05-May-2021 14:53:13)
 ------------------------------------------------------
 Symbolic Z-matrix:
 Charge =  0 Multiplicity = 1

                         Standard orientation:
 ---------------------------------------------------------------------
 Center     Atomic      Atomic             Coordinates (Angstroms)
 Number     Number       Type             X           Y           Z
 ---------------------------------------------------------------------
      1          6           0        2.915126    1.481556   -0.083350
      2          6           0        1.533518    2.131269   -0.167109
      3          6           0        1.603231    3.640285   -0.403342
      4          1           0        3.487384    1.954823    0.726270
      5          1           0        3.464369    1.683028   -1.013477
      6          1           0        0.986528    1.927459    0.762342
      7          1           0        0.964414    1.656269   -0.976498
      8          1           0        2.125788    3.859847   -1.339999
      9          1           0        2.148028    4.132577    0.408721
     10          1           0        0.604497    4.084348   -0.459896
     11          6           0        2.861952   -0.026834    0.152575
     12          6           0        4.243560   -0.676548    0.236334
     13          6           0        4.173848   -2.185563    0.472566
     14          1           0        2.312709   -0.228306    1.082702
     15          1           0        2.289694   -0.500102   -0.657045
     16          1           0        4.812664   -0.201548    1.045723
     17          1           0        4.790550   -0.472737   -0.693118
     18          1           0        3.629051   -2.677856   -0.339496
     19          1           0        3.651290   -2.405125    1.409224
     20          1           0        5.172582   -2.629627    0.529121
     21          6           0       -4.311971    0.741967    0.624876
     22          6           0       -4.100192    0.391700   -0.712653
     23          6           0       -2.964932   -0.334142   -1.085332
     24          6           0       -2.057973   -0.694918   -0.090066
     25          6           0       -2.240948   -0.360879    1.250914
     26          6           0       -3.383310    0.365224    1.600670
     27          1           0       -5.196626    1.305920    0.905479
     28          1           0       -4.819710    0.682935   -1.472600
     29          1           0       -2.776250   -0.618491   -2.113419
     30          1           0       -1.505873   -0.665409    1.985996
     31          1           0       -3.545188    0.635865    2.640187
     32          7           0       -0.852365   -1.463472   -0.472471
     33          8           0       -0.068379   -1.769318    0.423332
     34          8           0       -0.714223   -1.745466   -1.660760
 ---------------------------------------------------------------------

 SCF Done:  E(RHF) =  -669.535857294     A.U. after   15 cycles
 E2 =    -0.2092851873D+01 EUMP2 =    -0.67162870916746D+03

 The electronic state is 1-A.
 Alpha  occ. eigenvalues --  -20.60948 -20.60915 -15.85943 -11.31279 -11.27841
 Alpha  occ. eigenvalues --  -11.27834 -11.27573 -11.26847 -11.26837 -11.21103
 Alpha  occ. eigenvalues --  -11.20733 -11.20533 -11.20442 -11.19933 -11.19758
 Alpha  occ. eigenvalues --   -1.59986  -1.39543  -1.19441  -1.08846  -1.07465
 Alpha  occ. eigenvalues --   -1.04840  -1.02644  -0.95691  -0.95066  -0.86241
 Alpha  occ. eigenvalues --   -0.86086  -0.82530  -0.78776  -0.77596  -0.77166
 Alpha  occ. eigenvalues --   -0.72168  -0.71282  -0.70553  -0.65099  -0.64846
 Alpha  occ. eigenvalues --   -0.64108  -0.62189  -0.60055  -0.58498  -0.56665
 Alpha  occ. eigenvalues --   -0.55346  -0.54349  -0.53168  -0.52934  -0.51849
 Alpha  occ. eigenvalues --   -0.51471  -0.49062  -0.48939  -0.48911  -0.47066
 Alpha  occ. eigenvalues --   -0.45832  -0.45322  -0.44572  -0.44260  -0.42850
 Alpha  occ. eigenvalues --   -0.37410  -0.36437
 Alpha virt. eigenvalues --    0.04926   0.11191   0.16418   0.21294   0.23622
 Alpha virt. eigenvalues --    0.25221   0.26957   0.27581   0.27698   0.28679
 Alpha virt. eigenvalues --    0.28873   0.31097   0.32168   0.32338   0.32517

 Mulliken charges:
               1
     1  C   -0.297978
     2  C   -0.298790
     3  C   -0.474649
     4  H    0.144962
     5  H    0.147330
     6  H    0.147024
     7  H    0.150800
     8  H    0.155484
     9  H    0.153873
    10  H    0.155585
    11  C   -0.299728
    12  C   -0.300082
    13  C   -0.473671
    14  H    0.154114
    15  H    0.164900
    16  H    0.145160
    17  H    0.147682
    18  H    0.164070
    19  H    0.156236
    20  H    0.152619
    21  C   -0.170568
    22  C   -0.218449
    23  C   -0.171086
    24  C    0.160189
    25  C   -0.170488
    26  C   -0.218511
    27  H    0.225936
    28  H    0.223751
    29  H    0.275664
    30  H    0.275228
    31  H    0.223709
    32  N    0.488621
    33  O   -0.457207
    34  O   -0.461727
 Sum of Mulliken charges =  -0.00000

 Dipole moment (field-independent basis, Debye):
    X=             -4.4643    Y=              2.4877    Z=              1.3190  Tot=              5.2781
 Quadrupole moment (field-independent basis, Debye-Ang):
   XX=            -78.3985   YY=           -100.9709   ZZ=            -89.5052
   XY=             -2.9814   XZ=             -1.0264   YZ=             -0.8427

 Normal termination of Gaussian 16 at Thu May  6 10:28:40 2021.
