 Gaussian 16, Revision A.03,
 Gaussian 16:  EM64L-G16RevA.03 25-Dec-2016

 -------------
 #p 6-31g* mp2
 -------------

 ------------------------------------------------------
 Input file generated by CHIRIPA (05-May-2021 14:53:14)
 ------------------------------------------------------
 Symbolic Z-matrix:
 Charge =  0 Multiplicity = 1

                         Standard orientation:
 ---------------------------------------------------------------------
 Center     Atomic      Atomic             Coordinates (Angstroms)
 Number     Number       Type             X           Y           Z
 ---------------------------------------------------------------------
      1          6           0        4.491598    0.255555   -0.299404
      2          6           0        3.378300    0.497319    0.720451
      3          6           0        2.075146    0.966682    0.072932
      4          1           0        4.672694    1.181914   -0.861549
      5          1           0        4.153915   -0.492483   -1.030023
      6          1           0        3.718500    1.243660    1.449734
      7          1           0        3.199965   -0.429671    1.280365
      8          1           0        1.709373    0.221432   -0.640800
      9          1           0        2.230854    1.904271   -0.470468
     10          1           0        1.292938    1.133452    0.820060
     11          6           0        5.800670   -0.214078    0.332658
     12          6           0        6.913968   -0.455842   -0.687197
     13          6           0        8.217122   -0.925206   -0.039678
     14          1           0        6.138353    0.533960    1.063277
     15          1           0        5.619574   -1.140438    0.894803
     16          1           0        7.092302    0.471147   -1.247111
     17          1           0        6.573768   -1.202184   -1.416480
     18          1           0        8.061414   -1.862795    0.503722
     19          1           0        8.582895   -0.179956    0.674054
     20          1           0        8.999329   -1.091976   -0.786806
     21          6           0       -1.842042    1.253340    0.081197
     22          6           0       -1.848236   -0.137925    0.225645
     23          6           0       -3.049313   -0.851655    0.175148
     24          6           0       -4.231015   -0.138936   -0.022095
     25          6           0       -4.257513    1.247026   -0.169392
     26          6           0       -3.044580    1.940164   -0.115514
     27          1           0       -0.904412    1.799784    0.121737
     28          1           0       -0.915847   -0.673950    0.378529
     29          1           0       -3.082934   -1.928892    0.283994
     30          1           0       -5.202965    1.753667   -0.320570
     31          1           0       -3.042792    3.020621   -0.228007
     32          7           0       -5.508816   -0.883630   -0.077344
     33          8           0       -6.536388   -0.232341   -0.252149
     34          8           0       -5.458591   -2.104509    0.055204
 ---------------------------------------------------------------------

 SCF Done:  E(RHF) =  -669.535452049     A.U. after   15 cycles
 E2 =    -0.2091179644D+01 EUMP2 =    -0.67162663169336D+03

 The electronic state is 1-A.
 Alpha  occ. eigenvalues --  -20.60693 -20.60688 -15.85746 -11.31088 -11.27659
 Alpha  occ. eigenvalues --  -11.27654 -11.27328 -11.26655 -11.26629 -11.22643
 Alpha  occ. eigenvalues --  -11.22508 -11.22187 -11.22117 -11.21998 -11.21493
 Alpha  occ. eigenvalues --   -1.59770  -1.39324  -1.19255  -1.09202  -1.08647
 Alpha  occ. eigenvalues --   -1.04658  -1.04356  -0.96844  -0.95486  -0.87875
 Alpha  occ. eigenvalues --   -0.86048  -0.82326  -0.80437  -0.78953  -0.77380
 Alpha  occ. eigenvalues --   -0.71964  -0.71093  -0.70368  -0.65828  -0.64906
 Alpha  occ. eigenvalues --   -0.64674  -0.62036  -0.61725  -0.60261  -0.58409
 Alpha  occ. eigenvalues --   -0.56116  -0.55207  -0.53480  -0.53258  -0.52978
 Alpha  occ. eigenvalues --   -0.52739  -0.50761  -0.48740  -0.48721  -0.48718
 Alpha  occ. eigenvalues --   -0.47433  -0.46510  -0.46397  -0.44735  -0.44590
 Alpha  occ. eigenvalues --   -0.37223  -0.36267
 Alpha virt. eigenvalues --    0.05150   0.11358   0.16638   0.20115   0.22362
 Alpha virt. eigenvalues --    0.23759   0.25798   0.26035   0.26779   0.27332
 Alpha virt. eigenvalues --    0.28863   0.30075   0.30783   0.31316   0.32357

 Mulliken charges:
               1
     1  C   -0.299509
     2  C   -0.299437
     3  C   -0.484913
     4  H    0.151055
     5  H    0.150679
     6  H    0.155401
     7  H    0.153550
     8  H    0.157182
     9  H    0.159055
    10  H    0.153842
    11  C   -0.299004
    12  C   -0.300204
    13  C   -0.476127
    14  H    0.150652
    15  H    0.150691
    16  H    0.152600
    17  H    0.152751
    18  H    0.155921
    19  H    0.155780
    20  H    0.161854
    21  C   -0.175632
    22  C   -0.222199
    23  C   -0.171101
    24  C    0.158219
    25  C   -0.170934
    26  C   -0.219092
    27  H    0.233651
    28  H    0.225347
    29  H    0.275092
    30  H    0.275129
    31  H    0.223143
    32  N    0.488080
    33  O   -0.460721
    34  O   -0.460802
 Sum of Mulliken charges =  -0.00000

 Dipole moment (field-independent basis, Debye):
    X=              4.8183    Y=              2.6285    Z=              0.1797  Tot=              5.4916
 Quadrupole moment (field-independent basis, Debye-Ang):
   XX=           -132.1365   YY=            -91.1056   ZZ=            -95.6623
   XY=            -13.6244   XZ=             -0.8090   YZ=             -0.6073

 Normal termination of Gaussian 16 at Thu May  6 10:31:34 2021.
