 Gaussian 16, Revision A.03,
 Gaussian 16:  EM64L-G16RevA.03 25-Dec-2016

 -------------
 #p 6-31g* mp2
 -------------

 ------------------------------------------------------
 Input file generated by CHIRIPA (05-May-2021 14:53:18)
 ------------------------------------------------------
 Symbolic Z-matrix:
 Charge =  0 Multiplicity = 1

                         Standard orientation:
 ---------------------------------------------------------------------
 Center     Atomic      Atomic             Coordinates (Angstroms)
 Number     Number       Type             X           Y           Z
 ---------------------------------------------------------------------
      1          6           0        2.911234   -0.414583    0.494465
      2          6           0        1.989522    0.274974    1.500915
      3          6           0        0.752208   -0.558153    1.836690
      4          1           0        2.347970   -0.624224   -0.425171
      5          1           0        3.222064   -1.387661    0.899309
      6          1           0        1.681632    1.247067    1.094893
      7          1           0        2.555098    0.483171    2.418191
      8          1           0        1.042107   -1.522874    2.265494
      9          1           0        0.163678   -0.754637    0.934677
     10          1           0        0.107239   -0.046432    2.557812
     11          6           0        4.152585    0.405940    0.148750
     12          6           0        5.074297   -0.283617   -0.857701
     13          6           0        6.311612    0.549510   -1.193475
     14          1           0        3.841755    1.379018   -0.256094
     15          1           0        4.715849    0.615581    1.068385
     16          1           0        4.508721   -0.491814   -1.774977
     17          1           0        5.382188   -1.255710   -0.451678
     18          1           0        6.900142    0.745994   -0.291462
     19          1           0        6.021712    1.514231   -1.622279
     20          1           0        6.956580    0.037789   -1.914598
     21          6           0       -3.052573    2.502735   -0.069273
     22          6           0       -3.120388    1.879168   -1.319506
     23          6           0       -2.959370    0.495002   -1.432229
     24          6           0       -2.730953   -0.238253   -0.268849
     25          6           0       -2.658056    0.353914    0.991037
     26          6           0       -2.822031    1.739465    1.079983
     27          1           0       -3.178804    3.578527    0.009058
     28          1           0       -3.299312    2.469418   -2.213731
     29          1           0       -3.007166   -0.013428   -2.387547
     30          1           0       -2.478451   -0.260994    1.864563
     31          1           0       -2.768873    2.221045    2.052249
     32          7           0       -2.558925   -1.704340   -0.375597
     33          8           0       -2.358740   -2.327948    0.664438
     34          8           0       -2.627532   -2.202089   -1.497282
 ---------------------------------------------------------------------

 SCF Done:  E(RHF) =  -669.534761050     A.U. after   15 cycles
 E2 =    -0.2092756777D+01 EUMP2 =    -0.67162751782716D+03

 The electronic state is 1-A.
 Alpha  occ. eigenvalues --  -20.60829 -20.60798 -15.85844 -11.31170 -11.27781
 Alpha  occ. eigenvalues --  -11.27742 -11.27521 -11.26765 -11.26750 -11.21507
 Alpha  occ. eigenvalues --  -11.21488 -11.21297 -11.21207 -11.21002 -11.20882
 Alpha  occ. eigenvalues --   -1.59881  -1.39435  -1.19372  -1.08771  -1.08315
 Alpha  occ. eigenvalues --   -1.04772  -1.03420  -0.95880  -0.95596  -0.86903
 Alpha  occ. eigenvalues --   -0.86155  -0.82438  -0.79491  -0.78124  -0.77477
 Alpha  occ. eigenvalues --   -0.72069  -0.71216  -0.70486  -0.65027  -0.64948
 Alpha  occ. eigenvalues --   -0.64769  -0.62137  -0.60817  -0.59253  -0.57480
 Alpha  occ. eigenvalues --   -0.55315  -0.55147  -0.53139  -0.52915  -0.52470
 Alpha  occ. eigenvalues --   -0.52278  -0.49791  -0.48833  -0.48826  -0.47797
 Alpha  occ. eigenvalues --   -0.46528  -0.45679  -0.45595  -0.44754  -0.43688
 Alpha  occ. eigenvalues --   -0.37343  -0.36329
 Alpha virt. eigenvalues --    0.05027   0.11275   0.16476   0.21172   0.22977
 Alpha virt. eigenvalues --    0.24330   0.26468   0.26758   0.27599   0.27876
 Alpha virt. eigenvalues --    0.28613   0.30700   0.31454   0.31598   0.32010

 Mulliken charges:
               1
     1  C   -0.298601
     2  C   -0.300693
     3  C   -0.471579
     4  H    0.151582
     5  H    0.152064
     6  H    0.148228
     7  H    0.150274
     8  H    0.161728
     9  H    0.157899
    10  H    0.147231
    11  C   -0.298004
    12  C   -0.299746
    13  C   -0.475586
    14  H    0.147443
    15  H    0.148915
    16  H    0.152743
    17  H    0.153128
    18  H    0.154782
    19  H    0.153979
    20  H    0.160511
    21  C   -0.170324
    22  C   -0.219256
    23  C   -0.171230
    24  C    0.154521
    25  C   -0.166116
    26  C   -0.220052
    27  H    0.225629
    28  H    0.223258
    29  H    0.275511
    30  H    0.277920
    31  H    0.223297
    32  N    0.488743
    33  O   -0.458048
    34  O   -0.460149
 Sum of Mulliken charges =  -0.00000

 Dipole moment (field-independent basis, Debye):
    X=             -0.6410    Y=              5.0636    Z=              0.3640  Tot=              5.1169
 Quadrupole moment (field-independent basis, Debye-Ang):
   XX=            -92.9540   YY=            -97.8165   ZZ=            -89.7135
   XY=            -15.0608   XZ=              0.4836   YZ=             -2.1380

 Normal termination of Gaussian 16 at Wed May  5 15:48:15 2021.
