 Gaussian 16, Revision A.03,
 Gaussian 16:  EM64L-G16RevA.03 25-Dec-2016

 -------------
 #p 6-31g* mp2
 -------------

 ------------------------------------------------------
 Input file generated by CHIRIPA (05-May-2021 14:57:24)
 ------------------------------------------------------
 Symbolic Z-matrix:
 Charge =  0 Multiplicity = 1

                         Standard orientation:
 ---------------------------------------------------------------------
 Center     Atomic      Atomic             Coordinates (Angstroms)
 Number     Number       Type             X           Y           Z
 ---------------------------------------------------------------------
      1          6           0        2.372493    2.767412    0.175903
      2          6           0        3.688792    2.356125    0.409827
      3          6           0        4.052170    1.015253    0.253089
      4          6           0        3.069351    0.108355   -0.140478
      5          6           0        1.749563    0.487261   -0.381057
      6          6           0        1.408778    1.833314   -0.218097
      7          1           0        2.098988    3.811045    0.300078
      8          1           0        4.439320    3.079359    0.715907
      9          1           0        5.063857    0.669610    0.427554
     10          1           0        1.023469   -0.256858   -0.685184
     11          1           0        0.385753    2.149870   -0.400461
     12          7           0        3.442083   -1.313908   -0.309702
     13          8           0        2.557587   -2.093330   -0.657271
     14          8           0        4.611670   -1.622326   -0.091568
     15          6           0       -1.111146   -1.830534    0.857371
     16          6           0       -1.377887   -1.665905   -0.505812
     17          6           0       -2.426290   -0.844011   -0.929945
     18          6           0       -3.191293   -0.198929    0.040585
     19          6           0       -2.950429   -0.342820    1.406077
     20          6           0       -1.896882   -1.169631    1.807290
     21          1           0       -0.294723   -2.470911    1.177946
     22          1           0       -0.769324   -2.177932   -1.245761
     23          1           0       -2.654761   -0.698796   -1.978818
     24          1           0       -3.574466    0.180646    2.120205
     25          1           0       -1.692030   -1.295622    2.866633
     26          7           0       -4.303913    0.673776   -0.396294
     27          8           0       -4.963199    1.231076    0.478576
     28          8           0       -4.495632    0.783978   -1.605317
 ---------------------------------------------------------------------

 SCF Done:  E(RHF) =  -868.339652107     A.U. after   16 cycles
 E2 =    -0.2601274777D+01 EUMP2 =    -0.87094092688382D+03

 The electronic state is 1-A.
 Alpha  occ. eigenvalues --  -20.61579 -20.61509 -20.61120 -20.61115 -15.86575
 Alpha  occ. eigenvalues --  -15.86173 -11.31620 -11.31521 -11.28170 -11.28091
 Alpha  occ. eigenvalues --  -11.28087 -11.28071 -11.27839 -11.27640 -11.27118
 Alpha  occ. eigenvalues --  -11.27063 -11.27004 -11.26915  -1.60607  -1.60202
 Alpha  occ. eigenvalues --   -1.40177  -1.39753  -1.19779  -1.19682  -1.09226
 Alpha  occ. eigenvalues --   -1.09041  -1.05150  -1.05044  -0.96116  -0.95870
 Alpha  occ. eigenvalues --   -0.86582  -0.86391  -0.82957  -0.82702  -0.78066
 Alpha  occ. eigenvalues --   -0.77771  -0.72814  -0.72378  -0.71921  -0.71538
 Alpha  occ. eigenvalues --   -0.70889  -0.70644  -0.65430  -0.65301  -0.65183
 Alpha  occ. eigenvalues --   -0.64914  -0.62562  -0.62310  -0.55657  -0.55405
 Alpha  occ. eigenvalues --   -0.53632  -0.53444  -0.53111  -0.52974  -0.49580
 Alpha  occ. eigenvalues --   -0.49514  -0.49144  -0.49135  -0.45647  -0.45162
 Alpha  occ. eigenvalues --   -0.37788  -0.37615  -0.36712  -0.36656
 Alpha virt. eigenvalues --    0.04363   0.04800   0.10760   0.10961   0.16000
 Alpha virt. eigenvalues --    0.16219   0.20905   0.21676   0.26587   0.27289
 Alpha virt. eigenvalues --    0.28207   0.28644   0.30748   0.31195   0.31898

 Mulliken charges:
               1
     1  C   -0.169958
     2  C   -0.219384
     3  C   -0.170146
     4  C    0.155098
     5  C   -0.175165
     6  C   -0.223876
     7  H    0.228496
     8  H    0.224836
     9  H    0.275676
    10  H    0.281322
    11  H    0.228185
    12  N    0.488788
    13  O   -0.473116
    14  O   -0.455744
    15  C   -0.171789
    16  C   -0.239893
    17  C   -0.175293
    18  C    0.155583
    19  C   -0.171767
    20  C   -0.219094
    21  H    0.241586
    22  H    0.240064
    23  H    0.276759
    24  H    0.275900
    25  H    0.225639
    26  N    0.487748
    27  O   -0.460231
    28  O   -0.460225
 Sum of Mulliken charges =  -0.00000

 Dipole moment (field-independent basis, Debye):
    X=              2.6559    Y=              1.9097    Z=              2.2338  Tot=              3.9611
 Quadrupole moment (field-independent basis, Debye-Ang):
   XX=           -134.0249   YY=           -102.6915   ZZ=           -100.6915
   XY=             25.7501   XZ=             -2.4938   YZ=              0.2607

 Normal termination of Gaussian 16 at Fri May  7 00:23:37 2021.
