 Gaussian 16, Revision A.03,
 Gaussian 16:  EM64L-G16RevA.03 25-Dec-2016

 -------------
 #p 6-31g* mp2
 -------------

 ------------------------------------------------------
 Input file generated by CHIRIPA (05-May-2021 14:57:22)
 ------------------------------------------------------
 Symbolic Z-matrix:
 Charge =  0 Multiplicity = 1

                         Standard orientation:
 ---------------------------------------------------------------------
 Center     Atomic      Atomic             Coordinates (Angstroms)
 Number     Number       Type             X           Y           Z
 ---------------------------------------------------------------------
      1          6           0       -6.373516    0.465087   -1.144772
      2          6           0       -5.163816    1.069700   -1.501969
      3          6           0       -3.981962    0.744997   -0.829410
      4          6           0       -4.046503   -0.192706    0.200074
      5          6           0       -5.236286   -0.812329    0.579250
      6          6           0       -6.405833   -0.472346   -0.107132
      7          1           0       -7.286828    0.723259   -1.672600
      8          1           0       -5.135727    1.798067   -2.307412
      9          1           0       -3.031802    1.197864   -1.085389
     10          1           0       -5.232766   -1.534780    1.386387
     11          1           0       -7.343871   -0.943490    0.172427
     12          7           0       -2.801842   -0.544543    0.919399
     13          8           0       -2.885314   -1.373718    1.822802
     14          8           0       -1.766371    0.015524    0.566182
     15          6           0        3.003817    2.214589    0.613465
     16          6           0        2.297660    1.062516    0.252090
     17          6           0        2.978632   -0.095607   -0.134661
     18          6           0        4.372273   -0.066355   -0.148709
     19          6           0        5.104190    1.065861    0.205797
     20          6           0        4.402362    2.212589    0.589207
     21          1           0        2.466721    3.109821    0.912605
     22          1           0        1.211510    1.061180    0.269994
     23          1           0        2.456968   -1.001288   -0.419314
     24          1           0        6.186688    1.036743    0.178088
     25          1           0        4.953395    3.105859    0.869343
     26          7           0        5.104226   -1.286376   -0.556377
     27          8           0        6.332221   -1.234897   -0.560428
     28          8           0        4.436078   -2.271006   -0.864139
 ---------------------------------------------------------------------

 SCF Done:  E(RHF) =  -868.339721680     A.U. after   16 cycles
 E2 =    -0.2598242025D+01 EUMP2 =    -0.87093796370528D+03

 The electronic state is 1-A.
 Alpha  occ. eigenvalues --  -20.61592 -20.61530 -20.60065 -20.60053 -15.86612
 Alpha  occ. eigenvalues --  -15.85106 -11.31763 -11.30338 -11.28332 -11.28281
 Alpha  occ. eigenvalues --  -11.27998 -11.27280 -11.27252 -11.26928 -11.26779
 Alpha  occ. eigenvalues --  -11.26594 -11.25956 -11.25675  -1.60622  -1.59139
 Alpha  occ. eigenvalues --   -1.40187  -1.38696  -1.19912  -1.18483  -1.09342
 Alpha  occ. eigenvalues --   -1.07912  -1.05286  -1.03839  -0.96215  -0.94772
 Alpha  occ. eigenvalues --   -0.86693  -0.85251  -0.83062  -0.81587  -0.78133
 Alpha  occ. eigenvalues --   -0.76647  -0.72847  -0.71928  -0.71329  -0.71018
 Alpha  occ. eigenvalues --   -0.70459  -0.69611  -0.65572  -0.65285  -0.64126
 Alpha  occ. eigenvalues --   -0.63806  -0.62639  -0.61164  -0.55787  -0.54381
 Alpha  occ. eigenvalues --   -0.53622  -0.53376  -0.52213  -0.51898  -0.49605
 Alpha  occ. eigenvalues --   -0.49550  -0.48091  -0.48073  -0.45639  -0.44130
 Alpha  occ. eigenvalues --   -0.37874  -0.36879  -0.36486  -0.35441
 Alpha virt. eigenvalues --    0.04399   0.05842   0.10779   0.12201   0.15938
 Alpha virt. eigenvalues --    0.17373   0.20892   0.22371   0.26839   0.27493
 Alpha virt. eigenvalues --    0.28518   0.29153   0.30481   0.31612   0.32306

 Mulliken charges:
               1
     1  C   -0.169987
     2  C   -0.218276
     3  C   -0.170333
     4  C    0.157938
     5  C   -0.170130
     6  C   -0.218397
     7  H    0.227631
     8  H    0.224635
     9  H    0.272206
    10  H    0.277085
    11  H    0.225570
    12  N    0.494047
    13  O   -0.454648
    14  O   -0.475388
    15  C   -0.172640
    16  C   -0.225819
    17  C   -0.172798
    18  C    0.158100
    19  C   -0.173045
    20  C   -0.218616
    21  H    0.223127
    22  H    0.245161
    23  H    0.278444
    24  H    0.272496
    25  H    0.219685
    26  N    0.488060
    27  O   -0.463505
    28  O   -0.460602
 Sum of Mulliken charges =  -0.00000

 Dipole moment (field-independent basis, Debye):
    X=             -7.5140    Y=              5.4530    Z=             -1.0707  Tot=              9.3457
 Quadrupole moment (field-independent basis, Debye-Ang):
   XX=            -87.5024   YY=           -103.8877   ZZ=           -105.7753
   XY=             19.0155   XZ=             15.3018   YZ=             -1.9306

 Normal termination of Gaussian 16 at Fri May  7 06:20:43 2021.
