 Gaussian 16, Revision A.03,
 Gaussian 16:  EM64L-G16RevA.03 25-Dec-2016

 -------------
 #p 6-31g* mp2
 -------------

 ------------------------------------------------------
 Input file generated by CHIRIPA (05-May-2021 14:53:11)
 ------------------------------------------------------
 Symbolic Z-matrix:
 Charge =  0 Multiplicity = 1

                         Standard orientation:
 ---------------------------------------------------------------------
 Center     Atomic      Atomic             Coordinates (Angstroms)
 Number     Number       Type             X           Y           Z
 ---------------------------------------------------------------------
      1          6           0        3.269411   -0.131151    0.515860
      2          6           0        4.158250   -1.210810   -0.102433
      3          6           0        4.242207   -2.471772    0.758217
      4          1           0        3.656092    0.127550    1.511097
      5          1           0        2.260870   -0.539604    0.668848
      6          1           0        5.164448   -0.800010   -0.255488
      7          1           0        3.769520   -1.466834   -1.096393
      8          1           0        3.248147   -2.907828    0.900700
      9          1           0        4.651001   -2.237216    1.746383
     10          1           0        4.882590   -3.230392    0.297495
     11          6           0        3.175517    1.135566   -0.332869
     12          6           0        2.286677    2.215225    0.285424
     13          6           0        2.202721    3.476187   -0.575226
     14          1           0        4.184058    1.544019   -0.485857
     15          1           0        2.788836    0.876865   -1.328106
     16          1           0        2.675408    2.471249    1.279384
     17          1           0        1.280479    1.804426    0.438479
     18          1           0        1.793927    3.241631   -1.563392
     19          1           0        3.196781    3.912243   -0.717708
     20          1           0        1.562337    4.234807   -0.114503
     21          6           0       -4.147598    1.442140    0.514619
     22          6           0       -2.806891    1.751198    0.262610
     23          6           0       -1.894903    0.742841   -0.063026
     24          6           0       -2.359963   -0.569702   -0.128143
     25          6           0       -3.689446   -0.909406    0.117551
     26          6           0       -4.583828    0.115164    0.441415
     27          1           0       -4.849215    2.231753    0.766892
     28          1           0       -2.465296    2.780862    0.318738
     29          1           0       -0.851416    0.954061   -0.262878
     30          1           0       -4.000305   -1.945140    0.053981
     31          1           0       -5.624456   -0.127796    0.636631
     32          7           0       -1.403800   -1.645785   -0.471941
     33          8           0       -1.838561   -2.794273   -0.522876
     34          8           0       -0.237705   -1.320356   -0.683963
 ---------------------------------------------------------------------

 SCF Done:  E(RHF) =  -669.536045344     A.U. after   15 cycles
 E2 =    -0.2092243876D+01 EUMP2 =    -0.67162828921961D+03

 The electronic state is 1-A.
 Alpha  occ. eigenvalues --  -20.60978 -20.60962 -15.86005 -11.31287 -11.27849
 Alpha  occ. eigenvalues --  -11.27831 -11.27580 -11.26852 -11.26836 -11.21616
 Alpha  occ. eigenvalues --  -11.21222 -11.20891 -11.20684 -11.20465 -11.20134
 Alpha  occ. eigenvalues --   -1.60033  -1.39591  -1.19454  -1.08866  -1.07873
 Alpha  occ. eigenvalues --   -1.04846  -1.03051  -0.95715  -0.95484  -0.86518
 Alpha  occ. eigenvalues --   -0.86248  -0.82549  -0.79188  -0.77693  -0.77507
 Alpha  occ. eigenvalues --   -0.72235  -0.71344  -0.70574  -0.65116  -0.64893
 Alpha  occ. eigenvalues --   -0.64455  -0.62209  -0.60421  -0.58942  -0.57084
 Alpha  occ. eigenvalues --   -0.55356  -0.54745  -0.53179  -0.52950  -0.52260
 Alpha  occ. eigenvalues --   -0.51909  -0.49437  -0.48991  -0.48970  -0.47478
 Alpha  occ. eigenvalues --   -0.46215  -0.45276  -0.45117  -0.44716  -0.43255
 Alpha  occ. eigenvalues --   -0.37432  -0.36442
 Alpha virt. eigenvalues --    0.04881   0.11188   0.16375   0.19868   0.23110
 Alpha virt. eigenvalues --    0.24623   0.26225   0.27447   0.27773   0.28466
 Alpha virt. eigenvalues --    0.29611   0.30926   0.31522   0.31987   0.32392

 Mulliken charges:
               1
     1  C   -0.305622
     2  C   -0.298582
     3  C   -0.477358
     4  H    0.143008
     5  H    0.169516
     6  H    0.146044
     7  H    0.158437
     8  H    0.164157
     9  H    0.150131
    10  H    0.157696
    11  C   -0.297321
    12  C   -0.303148
    13  C   -0.476565
    14  H    0.147087
    15  H    0.154999
    16  H    0.153065
    17  H    0.144148
    18  H    0.154860
    19  H    0.158528
    20  H    0.153886
    21  C   -0.170409
    22  C   -0.221667
    23  C   -0.179641
    24  C    0.157637
    25  C   -0.170031
    26  C   -0.218849
    27  H    0.226094
    28  H    0.224512
    29  H    0.289062
    30  H    0.275763
    31  H    0.223832
    32  N    0.489630
    33  O   -0.458608
    34  O   -0.464293
 Sum of Mulliken charges =  -0.00000

 Dipole moment (field-independent basis, Debye):
    X=             -3.5078    Y=              3.6220    Z=              1.1467  Tot=              5.1709
 Quadrupole moment (field-independent basis, Debye-Ang):
   XX=            -76.1714   YY=            -98.1801   ZZ=            -96.0351
   XY=             -3.9677   XZ=             -2.8212   YZ=             -0.7263

 Normal termination of Gaussian 16 at Wed May  5 18:28:18 2021.
