 Gaussian 16, Revision A.03,
 Gaussian 16:  EM64L-G16RevA.03 25-Dec-2016

 -------------
 #p 6-31g* mp2
 -------------

 ------------------------------------------------------
 Input file generated by CHIRIPA (05-May-2021 14:53:13)
 ------------------------------------------------------
 Symbolic Z-matrix:
 Charge =  0 Multiplicity = 1

                         Standard orientation:
 ---------------------------------------------------------------------
 Center     Atomic      Atomic             Coordinates (Angstroms)
 Number     Number       Type             X           Y           Z
 ---------------------------------------------------------------------
      1          6           0       -3.498710   -0.304785   -0.251697
      2          6           0       -3.980115   -1.275509    0.827158
      3          6           0       -4.345312   -2.649872    0.265418
      4          1           0       -4.282875   -0.194665   -1.013212
      5          1           0       -2.626550   -0.737157   -0.761390
      6          1           0       -4.850262   -0.840821    1.335593
      7          1           0       -3.194788   -1.383183    1.586292
      8          1           0       -3.480232   -3.107896   -0.224940
      9          1           0       -5.145112   -2.562452   -0.477064
     10          1           0       -4.686842   -3.327953    1.053722
     11          6           0       -3.129873    1.073440    0.294363
     12          6           0       -2.648468    2.044165   -0.784492
     13          6           0       -2.283270    3.418527   -0.222752
     14          1           0       -4.002033    1.505812    0.804056
     15          1           0       -2.345708    0.963320    1.055878
     16          1           0       -3.433794    2.151839   -1.543626
     17          1           0       -1.778321    1.609476   -1.292927
     18          1           0       -1.483471    3.331108    0.519730
     19          1           0       -3.148351    3.876552    0.267606
     20          1           0       -1.941741    4.096609   -1.011056
     21          6           0        5.018669    0.226850    0.414844
     22          6           0        4.631851   -0.345211   -0.801559
     23          6           0        3.288615   -0.641492   -1.051521
     24          6           0        2.354427   -0.351215   -0.058383
     25          6           0        2.708549    0.218590    1.163587
     26          6           0        4.057477    0.506432    1.391813
     27          1           0        6.064338    0.453731    0.600578
     28          1           0        5.376154   -0.563422   -1.562114
     29          1           0        2.961560   -1.084499   -1.984365
     30          1           0        1.943718    0.424688    1.902487
     31          1           0        4.354992    0.950687    2.337417
     32          7           0        0.929390   -0.660407   -0.311501
     33          8           0        0.125680   -0.395026    0.579712
     34          8           0        0.643138   -1.162279   -1.396316
 ---------------------------------------------------------------------

 SCF Done:  E(RHF) =  -669.537065497     A.U. after   15 cycles
 E2 =    -0.2092524768D+01 EUMP2 =    -0.67162959026522D+03

 The electronic state is 1-A.
 Alpha  occ. eigenvalues --  -20.61230 -20.61223 -15.86221 -11.31448 -11.27996
 Alpha  occ. eigenvalues --  -11.27990 -11.27714 -11.26978 -11.26968 -11.20227
 Alpha  occ. eigenvalues --  -11.20092 -11.20051 -11.19748 -11.19666 -11.19486
 Alpha  occ. eigenvalues --   -1.60260  -1.39820  -1.19603  -1.09027  -1.06804
 Alpha  occ. eigenvalues --   -1.04983  -1.02137  -0.95884  -0.94581  -0.86388
 Alpha  occ. eigenvalues --   -0.85620  -0.82722  -0.78196  -0.77790  -0.76597
 Alpha  occ. eigenvalues --   -0.72445  -0.71563  -0.70711  -0.65264  -0.64990
 Alpha  occ. eigenvalues --   -0.63375  -0.62330  -0.59528  -0.57986  -0.56215
 Alpha  occ. eigenvalues --   -0.55493  -0.53867  -0.53318  -0.53071  -0.51376
 Alpha  occ. eigenvalues --   -0.51047  -0.49194  -0.49173  -0.48527  -0.46539
 Alpha  occ. eigenvalues --   -0.45293  -0.45143  -0.44144  -0.43955  -0.42306
 Alpha  occ. eigenvalues --   -0.37575  -0.36578
 Alpha virt. eigenvalues --    0.04717   0.11079   0.16224   0.21188   0.24498
 Alpha virt. eigenvalues --    0.25575   0.27144   0.27800   0.28513   0.28965
 Alpha virt. eigenvalues --    0.29385   0.30888   0.32280   0.32682   0.32980

 Mulliken charges:
               1
     1  C   -0.301890
     2  C   -0.299063
     3  C   -0.475770
     4  H    0.139414
     5  H    0.172386
     6  H    0.143876
     7  H    0.156659
     8  H    0.159488
     9  H    0.150759
    10  H    0.153750
    11  C   -0.297635
    12  C   -0.299530
    13  C   -0.474820
    14  H    0.138709
    15  H    0.163216
    16  H    0.146547
    17  H    0.157590
    18  H    0.152081
    19  H    0.151794
    20  H    0.154447
    21  C   -0.170186
    22  C   -0.218606
    23  C   -0.170296
    24  C    0.158108
    25  C   -0.170407
    26  C   -0.218532
    27  H    0.226633
    28  H    0.224404
    29  H    0.276206
    30  H    0.275733
    31  H    0.224455
    32  N    0.491558
    33  O   -0.462294
    34  O   -0.458783
 Sum of Mulliken charges =  -0.00000

 Dipole moment (field-independent basis, Debye):
    X=              5.5471    Y=              0.9195    Z=              0.8769  Tot=              5.6908
 Quadrupole moment (field-independent basis, Debye-Ang):
   XX=            -72.1972   YY=            -97.6802   ZZ=            -90.9933
   XY=             -0.0188   XZ=              0.7952   YZ=              1.4225

 Normal termination of Gaussian 16 at Wed May  5 21:46:41 2021.
