 Gaussian 16, Revision A.03,
 Gaussian 16:  EM64L-G16RevA.03 25-Dec-2016

 -------------
 #p 6-31g* mp2
 -------------

 ------------------------------------------------------
 Input file generated by CHIRIPA (05-May-2021 14:57:26)
 ------------------------------------------------------
 Symbolic Z-matrix:
 Charge =  0 Multiplicity = 1

                         Standard orientation:
 ---------------------------------------------------------------------
 Center     Atomic      Atomic             Coordinates (Angstroms)
 Number     Number       Type             X           Y           Z
 ---------------------------------------------------------------------
      1          6           0       -2.893337    2.249189    0.704402
      2          6           0       -4.240013    2.024324    1.008406
      3          6           0       -4.888294    0.872892    0.551803
      4          6           0       -4.156304   -0.036720   -0.209830
      5          6           0       -2.813598    0.159033   -0.529381
      6          6           0       -2.185674    1.317468   -0.062169
      7          1           0       -2.397644    3.146369    1.063223
      8          1           0       -4.792084    2.746182    1.603539
      9          1           0       -5.929983    0.673850    0.772449
     10          1           0       -2.289511   -0.578760   -1.124706
     11          1           0       -1.139737    1.489486   -0.299804
     12          7           0       -4.831833   -1.259397   -0.698831
     13          8           0       -4.164792   -2.045394   -1.368086
     14          8           0       -6.015563   -1.408582   -0.403595
     15          6           0        2.235978   -1.105114    1.615600
     16          6           0        1.952733   -0.036464    0.758699
     17          6           0        2.947287    0.492559   -0.069278
     18          6           0        4.219854   -0.073885   -0.014459
     19          6           0        4.533106   -1.138986    0.828585
     20          6           0        3.522992   -1.652000    1.647752
     21          1           0        1.457341   -1.509854    2.255370
     22          1           0        0.954121    0.390249    0.731621
     23          1           0        2.755404    1.319538   -0.742111
     24          1           0        5.538042   -1.543336    0.833371
     25          1           0        3.745836   -2.481963    2.312242
     26          7           0        5.280981    0.477695   -0.886337
     27          8           0        6.394119   -0.039088   -0.819294
     28          8           0        4.979460    1.416362   -1.620249
 ---------------------------------------------------------------------

 SCF Done:  E(RHF) =  -868.337027214     A.U. after   16 cycles
 E2 =    -0.2599425702D+01 EUMP2 =    -0.87093645291615D+03

 The electronic state is 1-A.
 Alpha  occ. eigenvalues --  -20.61317 -20.61310 -20.61146 -20.61135 -15.86378
 Alpha  occ. eigenvalues --  -15.86202 -11.31863 -11.31642 -11.28513 -11.28442
 Alpha  occ. eigenvalues --  -11.28294 -11.28247 -11.28193 -11.27974 -11.27604
 Alpha  occ. eigenvalues --  -11.27442 -11.27349 -11.27193  -1.60391  -1.60217
 Alpha  occ. eigenvalues --   -1.39941  -1.39770  -1.20069  -1.19830  -1.09437
 Alpha  occ. eigenvalues --   -1.09202  -1.05503  -1.05262  -0.96244  -0.96023
 Alpha  occ. eigenvalues --   -0.86899  -0.86645  -0.83087  -0.82867  -0.78122
 Alpha  occ. eigenvalues --   -0.77900  -0.72591  -0.72418  -0.71719  -0.71542
 Alpha  occ. eigenvalues --   -0.71157  -0.70920  -0.65723  -0.65643  -0.65486
 Alpha  occ. eigenvalues --   -0.65194  -0.62909  -0.62547  -0.55984  -0.55725
 Alpha  occ. eigenvalues --   -0.53825  -0.53678  -0.53564  -0.53266  -0.49362
 Alpha  occ. eigenvalues --   -0.49338  -0.49183  -0.49169  -0.45320  -0.45159
 Alpha  occ. eigenvalues --   -0.38049  -0.37793  -0.37112  -0.36868
 Alpha virt. eigenvalues --    0.04441   0.04653   0.10453   0.10786   0.15784
 Alpha virt. eigenvalues --    0.16122   0.18629   0.21844   0.24672   0.27640
 Alpha virt. eigenvalues --    0.27876   0.28384   0.29797   0.31561   0.31972

 Mulliken charges:
               1
     1  C   -0.170431
     2  C   -0.218708
     3  C   -0.169326
     4  C    0.158556
     5  C   -0.171657
     6  C   -0.224246
     7  H    0.227662
     8  H    0.226180
     9  H    0.278021
    10  H    0.277055
    11  H    0.218747
    12  N    0.487994
    13  O   -0.459364
    14  O   -0.458478
    15  C   -0.170740
    16  C   -0.222478
    17  C   -0.171410
    18  C    0.159016
    19  C   -0.169833
    20  C   -0.218175
    21  H    0.228780
    22  H    0.217811
    23  H    0.272652
    24  H    0.277511
    25  H    0.225998
    26  N    0.488189
    27  O   -0.458525
    28  O   -0.460801
 Sum of Mulliken charges =  -0.00000

 Dipole moment (field-independent basis, Debye):
    X=             -1.4496    Y=              2.2782    Z=              4.8633  Tot=              5.5627
 Quadrupole moment (field-independent basis, Debye-Ang):
   XX=           -149.3185   YY=           -102.9753   ZZ=           -105.1770
   XY=            -30.4538   XZ=              4.6317   YZ=             -1.8895

 Normal termination of Gaussian 16 at Thu May  6 08:21:31 2021.
