 Gaussian 16, Revision A.03,
 Gaussian 16:  EM64L-G16RevA.03 25-Dec-2016

 -------------
 #p 6-31g* mp2
 -------------

 ------------------------------------------------------
 Input file generated by CHIRIPA (05-May-2021 14:51:10)
 ------------------------------------------------------
 Symbolic Z-matrix:
 Charge =  0 Multiplicity = 1

                         Standard orientation:
 ---------------------------------------------------------------------
 Center     Atomic      Atomic             Coordinates (Angstroms)
 Number     Number       Type             X           Y           Z
 ---------------------------------------------------------------------
      1          6           0        3.592489    0.412522   -0.273912
      2          6           0        3.663092   -0.942412   -0.979004
      3          6           0        5.095922   -1.365842   -1.303808
      4          1           0        4.066500    1.173980   -0.908294
      5          1           0        4.181332    0.366963    0.652686
      6          1           0        3.073156   -0.894732   -1.903297
      7          1           0        3.188687   -1.700697   -0.342953
      8          1           0        5.692147   -1.441326   -0.388702
      9          1           0        5.575959   -0.630782   -1.957911
     10          1           0        5.123109   -2.337128   -1.807519
     11          6           0        2.166643    0.849492    0.057369
     12          6           0        2.096040    2.204425    0.762461
     13          6           0        0.663210    2.627856    1.087265
     14          1           0        1.577800    0.895051   -0.869229
     15          1           0        1.692631    0.088034    0.691751
     16          1           0        2.570445    2.962710    0.126410
     17          1           0        2.685976    2.156746    1.686754
     18          1           0        0.183173    1.892795    1.741368
     19          1           0        0.066985    2.703340    0.172159
     20          1           0        0.636023    3.599142    1.590976
     21          6           0       -2.642585   -1.063078    0.691869
     22          6           0       -1.124847   -1.243471    0.735633
     23          6           0       -0.666134   -2.110228    1.908710
     24          1           0       -2.979330   -0.613066    1.635816
     25          1           0       -3.120513   -2.050469    0.628314
     26          1           0       -0.649876   -0.255966    0.797692
     27          1           0       -0.791653   -1.692930   -0.208605
     28          1           0       -1.112981   -3.107873    1.848423
     29          1           0       -0.970398   -1.662743    2.860436
     30          1           0        0.422116   -2.226086    1.920831
     31          6           0       -3.116547   -0.198936   -0.475326
     32          6           0       -4.634285   -0.018543   -0.519089
     33          6           0       -5.092997    0.848214   -1.692168
     34          1           0       -2.638618    0.788454   -0.411771
     35          1           0       -2.779802   -0.648949   -1.419274
     36          1           0       -4.967479    0.430917    0.425148
     37          1           0       -5.109255   -1.006049   -0.581148
     38          1           0       -4.788733    0.400730   -2.643893
     39          1           0       -4.646152    1.845858   -1.631879
     40          1           0       -6.181248    0.964073   -1.704288
 ---------------------------------------------------------------------

 SCF Done:  E(RHF) =  -470.732439458     A.U. after   11 cycles
 E2 =    -0.1584285505D+01 EUMP2 =    -0.47231672496343D+03

 The electronic state is 1-A.
 Alpha  occ. eigenvalues --  -11.21635 -11.21606 -11.21567 -11.21462 -11.21387
 Alpha  occ. eigenvalues --  -11.21351 -11.21317 -11.21290 -11.21155 -11.21085
 Alpha  occ. eigenvalues --  -11.21074 -11.21048  -1.08463  -1.08361  -1.03580
 Alpha  occ. eigenvalues --   -1.03476  -0.96013  -0.95950  -0.87027  -0.86968
 Alpha  occ. eigenvalues --   -0.79721  -0.79498  -0.78412  -0.78013  -0.65152
 Alpha  occ. eigenvalues --   -0.64955  -0.61073  -0.60803  -0.59439  -0.59259
 Alpha  occ. eigenvalues --   -0.57682  -0.57510  -0.55299  -0.55241  -0.52711
 Alpha  occ. eigenvalues --   -0.52646  -0.52445  -0.52373  -0.49972  -0.49885
 Alpha  occ. eigenvalues --   -0.48174  -0.47768  -0.46826  -0.46500  -0.46076
 Alpha  occ. eigenvalues --   -0.45736  -0.45666  -0.45090  -0.43800  -0.43740
 Alpha virt. eigenvalues --    0.20829   0.22465   0.23787   0.24025   0.25967
 Alpha virt. eigenvalues --    0.26304   0.26451   0.27599   0.28929   0.29837
 Alpha virt. eigenvalues --    0.30386   0.31373   0.31614   0.31843   0.32219

 Mulliken charges:
               1
     1  C   -0.297806
     2  C   -0.299731
     3  C   -0.475696
     4  H    0.149494
     5  H    0.149224
     6  H    0.152026
     7  H    0.151680
     8  H    0.155175
     9  H    0.155237
    10  H    0.160247
    11  C   -0.304752
    12  C   -0.299363
    13  C   -0.479501
    14  H    0.149989
    15  H    0.157587
    16  H    0.152073
    17  H    0.151897
    18  H    0.156935
    19  H    0.155745
    20  H    0.160920
    21  C   -0.297355
    22  C   -0.309157
    23  C   -0.477760
    24  H    0.149041
    25  H    0.148953
    26  H    0.163546
    27  H    0.151932
    28  H    0.155765
    29  H    0.154659
    30  H    0.159540
    31  C   -0.299179
    32  C   -0.299559
    33  C   -0.475697
    34  H    0.150481
    35  H    0.149307
    36  H    0.151988
    37  H    0.151837
    38  H    0.154985
    39  H    0.155126
    40  H    0.160164
 Sum of Mulliken charges =  -0.00000

 Dipole moment (field-independent basis, Debye):
    X=              0.0241    Y=              0.0271    Z=             -0.0046  Tot=              0.0365
 Quadrupole moment (field-independent basis, Debye-Ang):
   XX=            -86.1131   YY=            -84.4786   ZZ=            -84.3697
   XY=              0.7482   XZ=              0.0176   YZ=              0.4593

 Normal termination of Gaussian 16 at Wed May  5 16:42:16 2021.
