 Gaussian 16, Revision A.03,
 Gaussian 16:  EM64L-G16RevA.03 25-Dec-2016

 -------------
 #p 6-31g* mp2
 -------------

 ------------------------------------------------------
 Input file generated by CHIRIPA (05-May-2021 14:53:12)
 ------------------------------------------------------
 Symbolic Z-matrix:
 Charge =  0 Multiplicity = 1

                         Standard orientation:
 ---------------------------------------------------------------------
 Center     Atomic      Atomic             Coordinates (Angstroms)
 Number     Number       Type             X           Y           Z
 ---------------------------------------------------------------------
      1          6           0        5.375408    0.100286   -0.426246
      2          6           0        6.812069   -0.365857   -0.188127
      3          6           0        7.811177    0.285639   -1.144751
      4          1           0        5.091278   -0.123381   -1.463641
      5          1           0        5.329103    1.192786   -0.318099
      6          1           0        6.855374   -1.457301   -0.295329
      7          1           0        7.092745   -0.141228    0.848877
      8          1           0        7.797404    1.374660   -1.033200
      9          1           0        7.558685    0.051110   -2.183907
     10          1           0        8.831914   -0.061753   -0.956936
     11          6           0        4.364943   -0.542208    0.522379
     12          6           0        2.928282   -0.076064    0.284261
     13          6           0        1.929173   -0.727560    1.240885
     14          1           0        4.411247   -1.634707    0.414232
     15          1           0        4.649072   -0.318541    1.559774
     16          1           0        2.647605   -0.300693   -0.752744
     17          1           0        2.884976    1.015379    0.391463
     18          1           0        2.181665   -0.493032    2.280040
     19          1           0        1.942946   -1.816582    1.129333
     20          1           0        0.908436   -0.380168    1.053069
     21          6           0       -2.262020    2.061034    0.610207
     22          6           0       -2.027412    0.768914    1.091774
     23          6           0       -2.875690   -0.285036    0.739414
     24          6           0       -3.953977   -0.009939   -0.100175
     25          6           0       -4.214107    1.266591   -0.596254
     26          6           0       -3.352696    2.305317   -0.230788
     27          1           0       -1.597956    2.873856    0.889020
     28          1           0       -1.181153    0.576267    1.745057
     29          1           0       -2.717345   -1.294918    1.097860
     30          1           0       -5.065867    1.427725   -1.245837
     31          1           0       -3.537337    3.307791   -0.606285
     32          7           0       -4.858963   -1.117651   -0.480141
     33          8           0       -5.802039   -0.849197   -1.221205
     34          8           0       -4.608079   -2.233355   -0.029698
 ---------------------------------------------------------------------

 SCF Done:  E(RHF) =  -669.535538798     A.U. after   15 cycles
 E2 =    -0.2090872724D+01 EUMP2 =    -0.67162641152115D+03

 The electronic state is 1-A.
 Alpha  occ. eigenvalues --  -20.60757 -20.60752 -15.85812 -11.31184 -11.27766
 Alpha  occ. eigenvalues --  -11.27756 -11.27506 -11.26773 -11.26743 -11.22234
 Alpha  occ. eigenvalues --  -11.21927 -11.21878 -11.21870 -11.21765 -11.21347
 Alpha  occ. eigenvalues --   -1.59833  -1.39386  -1.19363  -1.08898  -1.08755
 Alpha  occ. eigenvalues --   -1.04768  -1.04026  -0.96489  -0.95587  -0.87516
 Alpha  occ. eigenvalues --   -0.86162  -0.82420  -0.80094  -0.78687  -0.77466
 Alpha  occ. eigenvalues --   -0.72030  -0.71156  -0.70468  -0.65523  -0.65014
 Alpha  occ. eigenvalues --   -0.64798  -0.62153  -0.61416  -0.59864  -0.58088
 Alpha  occ. eigenvalues --   -0.55763  -0.55269  -0.53380  -0.53072  -0.52954
 Alpha  occ. eigenvalues --   -0.52641  -0.50417  -0.48791  -0.48784  -0.48402
 Alpha  occ. eigenvalues --   -0.47112  -0.46236  -0.46144  -0.44790  -0.44279
 Alpha  occ. eigenvalues --   -0.37340  -0.36360
 Alpha virt. eigenvalues --    0.05064   0.11202   0.16471   0.20681   0.22538
 Alpha virt. eigenvalues --    0.23889   0.26169   0.26229   0.27058   0.28293
 Alpha virt. eigenvalues --    0.28424   0.30321   0.30936   0.31556   0.32246

 Mulliken charges:
               1
     1  C   -0.298586
     2  C   -0.300017
     3  C   -0.475942
     4  H    0.150853
     5  H    0.148883
     6  H    0.153031
     7  H    0.152059
     8  H    0.154978
     9  H    0.155877
    10  H    0.161318
    11  C   -0.298992
    12  C   -0.298592
    13  C   -0.482162
    14  H    0.151655
    15  H    0.149756
    16  H    0.155308
    17  H    0.149256
    18  H    0.154730
    19  H    0.160593
    20  H    0.154663
    21  C   -0.171565
    22  C   -0.221043
    23  C   -0.171890
    24  C    0.158429
    25  C   -0.170614
    26  C   -0.218646
    27  H    0.225834
    28  H    0.228225
    29  H    0.276163
    30  H    0.275685
    31  H    0.223438
    32  N    0.488119
    33  O   -0.460524
    34  O   -0.460280
 Sum of Mulliken charges =  -0.00000

 Dipole moment (field-independent basis, Debye):
    X=              3.3067    Y=              3.8820    Z=              1.2993  Tot=              5.2624
 Quadrupole moment (field-independent basis, Debye-Ang):
   XX=           -119.1456   YY=            -92.6791   ZZ=            -94.1339
   XY=            -17.9490   XZ=             -3.3754   YZ=             -1.6626

 Normal termination of Gaussian 16 at Thu May  6 05:42:35 2021.
