 Gaussian 16, Revision A.03,
 Gaussian 16:  EM64L-G16RevA.03 25-Dec-2016

 -------------
 #p 6-31g* mp2
 -------------

 ------------------------------------------------------
 Input file generated by CHIRIPA (05-May-2021 14:53:12)
 ------------------------------------------------------
 Symbolic Z-matrix:
 Charge =  0 Multiplicity = 1

                         Standard orientation:
 ---------------------------------------------------------------------
 Center     Atomic      Atomic             Coordinates (Angstroms)
 Number     Number       Type             X           Y           Z
 ---------------------------------------------------------------------
      1          6           0        5.194479    0.410004    0.393037
      2          6           0        6.265097    0.419557   -0.698600
      3          6           0        7.411041    1.384960   -0.394294
      4          1           0        4.796485    1.426542    0.516312
      5          1           0        5.659629    0.138178    1.350712
      6          1           0        5.797811    0.689935   -1.654192
      7          1           0        6.660453   -0.597159   -0.819424
      8          1           0        7.903602    1.114265    0.545232
      9          1           0        7.036058    2.408672   -0.294279
     10          1           0        8.165043    1.375828   -1.187552
     11          6           0        4.042259   -0.550249    0.103156
     12          6           0        2.971642   -0.559802    1.194793
     13          6           0        1.825697   -1.525206    0.890487
     14          1           0        3.577110   -0.278423   -0.854519
     15          1           0        4.440253   -1.566787   -0.020119
     16          1           0        2.576286    0.456913    1.315617
     17          1           0        3.438927   -0.830181    2.150385
     18          1           0        2.200680   -2.548917    0.790472
     19          1           0        1.333137   -1.254510   -0.049039
     20          1           0        1.071696   -1.516074    1.683746
     21          6           0       -5.367239    1.752284    0.430552
     22          6           0       -4.100498    2.176930    0.016350
     23          6           0       -3.118070    1.245245   -0.331996
     24          6           0       -3.438034   -0.109325   -0.254188
     25          6           0       -4.690878   -0.563702    0.154731
     26          6           0       -5.657874    0.385733    0.498301
     27          1           0       -6.124419    2.482934    0.699300
     28          1           0       -3.871976    3.237568   -0.037219
     29          1           0       -2.129246    1.546380   -0.655976
     30          1           0       -4.889055   -1.627781    0.198084
     31          1           0       -6.640787    0.053054    0.819628
     32          7           0       -2.406150   -1.105053   -0.620438
     33          8           0       -2.713051   -2.292705   -0.543408
     34          8           0       -1.309997   -0.679000   -0.977601
 ---------------------------------------------------------------------

 SCF Done:  E(RHF) =  -669.535966528     A.U. after   15 cycles
 E2 =    -0.2090805586D+01 EUMP2 =    -0.67162677211408D+03

 The electronic state is 1-A.
 Alpha  occ. eigenvalues --  -20.60903 -20.60890 -15.85935 -11.31272 -11.27838
 Alpha  occ. eigenvalues --  -11.27833 -11.27577 -11.26848 -11.26839 -11.21110
 Alpha  occ. eigenvalues --  -11.20792 -11.20689 -11.20649 -11.20560 -11.19592
 Alpha  occ. eigenvalues --   -1.59957  -1.39515  -1.19441  -1.08842  -1.07713
 Alpha  occ. eigenvalues --   -1.04841  -1.02738  -0.95684  -0.95156  -0.86242
 Alpha  occ. eigenvalues --   -0.86163  -0.82518  -0.78825  -0.77570  -0.77498
 Alpha  occ. eigenvalues --   -0.72163  -0.71272  -0.70551  -0.65098  -0.64844
 Alpha  occ. eigenvalues --   -0.64349  -0.62188  -0.60132  -0.58592  -0.56776
 Alpha  occ. eigenvalues --   -0.55345  -0.54433  -0.53171  -0.52933  -0.51850
 Alpha  occ. eigenvalues --   -0.51576  -0.49206  -0.48909  -0.48795  -0.47116
 Alpha  occ. eigenvalues --   -0.45883  -0.45063  -0.45023  -0.44771  -0.43005
 Alpha  occ. eigenvalues --   -0.37420  -0.36443
 Alpha virt. eigenvalues --    0.04952   0.11212   0.16435   0.21339   0.23539
 Alpha virt. eigenvalues --    0.25151   0.27258   0.27343   0.28146   0.28222
 Alpha virt. eigenvalues --    0.28953   0.30911   0.32186   0.32417   0.32539

 Mulliken charges:
               1
     1  C   -0.297370
     2  C   -0.299178
     3  C   -0.475218
     4  H    0.147198
     5  H    0.147889
     6  H    0.151802
     7  H    0.151831
     8  H    0.154375
     9  H    0.153775
    10  H    0.158958
    11  C   -0.298035
    12  C   -0.299159
    13  C   -0.481020
    14  H    0.151658
    15  H    0.149071
    16  H    0.146871
    17  H    0.146759
    18  H    0.151053
    19  H    0.181090
    20  H    0.154186
    21  C   -0.170661
    22  C   -0.218529
    23  C   -0.170708
    24  C    0.158072
    25  C   -0.170688
    26  C   -0.218568
    27  H    0.225901
    28  H    0.223693
    29  H    0.275430
    30  H    0.275889
    31  H    0.223752
    32  N    0.490143
    33  O   -0.458867
    34  O   -0.461395
 Sum of Mulliken charges =  -0.00000

 Dipole moment (field-independent basis, Debye):
    X=             -3.9219    Y=              3.4640    Z=              1.1743  Tot=              5.3628
 Quadrupole moment (field-independent basis, Debye-Ang):
   XX=            -69.5270   YY=            -92.9465   ZZ=            -96.1138
   XY=            -10.2239   XZ=             -4.5184   YZ=             -2.1645

 Normal termination of Gaussian 16 at Wed May  5 21:45:32 2021.
