 Gaussian 16, Revision A.03,
 Gaussian 16:  EM64L-G16RevA.03 25-Dec-2016

 -------------
 #p 6-31g* mp2
 -------------

 ------------------------------------------------------
 Input file generated by CHIRIPA (05-May-2021 14:53:13)
 ------------------------------------------------------
 Symbolic Z-matrix:
 Charge =  0 Multiplicity = 1

                         Standard orientation:
 ---------------------------------------------------------------------
 Center     Atomic      Atomic             Coordinates (Angstroms)
 Number     Number       Type             X           Y           Z
 ---------------------------------------------------------------------
      1          6           0       -4.791912    0.045352    0.213582
      2          6           0       -4.972977   -1.281380   -0.524647
      3          6           0       -6.288548   -1.977676   -0.175023
      4          1           0       -4.836121   -0.135768    1.296258
      5          1           0       -5.634185    0.708745   -0.027001
      6          1           0       -4.129898   -1.941564   -0.283831
      7          1           0       -4.928139   -1.097108   -1.605688
      8          1           0       -7.141437   -1.341001   -0.431590
      9          1           0       -6.338660   -2.190254    0.897778
     10          1           0       -6.397441   -2.924068   -0.713859
     11          6           0       -3.481392    0.753369   -0.125502
     12          6           0       -3.300327    2.080101    0.612727
     13          6           0       -1.984755    2.776397    0.263103
     14          1           0       -2.639119    0.089976    0.115081
     15          1           0       -3.437183    0.934489   -1.208178
     16          1           0       -3.345164    1.895829    1.693768
     17          1           0       -4.143406    2.740285    0.371911
     18          1           0       -1.934643    2.988975   -0.809697
     19          1           0       -1.131867    2.139721    0.519670
     20          1           0       -1.875863    3.722789    0.801939
     21          6           0        5.709183    0.164870   -0.064195
     22          6           0        5.238530   -1.064021    0.409971
     23          6           0        3.867974   -1.339115    0.431093
     24          6           0        2.992252   -0.358102   -0.031527
     25          6           0        3.430318    0.875796   -0.509942
     26          6           0        4.805169    1.129156   -0.521831
     27          1           0        6.775533    0.370127   -0.077016
     28          1           0        5.938289   -1.814774    0.765993
     29          1           0        3.476382   -2.282077    0.792887
     30          1           0        2.708428    1.604429   -0.858347
     31          1           0        5.167831    2.084410   -0.890628
     32          7           0        1.539031   -0.637827   -0.014053
     33          8           0        0.788063    0.243122   -0.427104
     34          8           0        1.178481   -1.732729    0.412363
 ---------------------------------------------------------------------

 SCF Done:  E(RHF) =  -669.536359208     A.U. after   15 cycles
 E2 =    -0.2090989489D+01 EUMP2 =    -0.67162734869633D+03

 The electronic state is 1-A.
 Alpha  occ. eigenvalues --  -20.61006 -20.60998 -15.86026 -11.31319 -11.27881
 Alpha  occ. eigenvalues --  -11.27873 -11.27614 -11.26881 -11.26871 -11.20576
 Alpha  occ. eigenvalues --  -11.20386 -11.20277 -11.20250 -11.19943 -11.19677
 Alpha  occ. eigenvalues --   -1.60061  -1.39617  -1.19486  -1.08897  -1.07236
 Alpha  occ. eigenvalues --   -1.04877  -1.02393  -0.95743  -0.94836  -0.86279
 Alpha  occ. eigenvalues --   -0.85855  -0.82577  -0.78473  -0.77632  -0.77007
 Alpha  occ. eigenvalues --   -0.72249  -0.71371  -0.70594  -0.65142  -0.64880
 Alpha  occ. eigenvalues --   -0.63868  -0.62224  -0.59793  -0.58225  -0.56440
 Alpha  occ. eigenvalues --   -0.55384  -0.54114  -0.53211  -0.52968  -0.51585
 Alpha  occ. eigenvalues --   -0.51244  -0.49032  -0.49012  -0.48748  -0.46777
 Alpha  occ. eigenvalues --   -0.45530  -0.45006  -0.44581  -0.44386  -0.42638
 Alpha  occ. eigenvalues --   -0.37464  -0.36477
 Alpha virt. eigenvalues --    0.04867   0.11178   0.16347   0.21297   0.24030
 Alpha virt. eigenvalues --    0.25439   0.27225   0.27804   0.28096   0.28796
 Alpha virt. eigenvalues --    0.29174   0.30871   0.32216   0.32626   0.32847

 Mulliken charges:
               1
     1  C   -0.297586
     2  C   -0.299671
     3  C   -0.475024
     4  H    0.147361
     5  H    0.144771
     6  H    0.157068
     7  H    0.150273
     8  H    0.152550
     9  H    0.153858
    10  H    0.157906
    11  C   -0.301822
    12  C   -0.298158
    13  C   -0.482219
    14  H    0.168527
    15  H    0.146911
    16  H    0.148233
    17  H    0.145490
    18  H    0.151131
    19  H    0.176326
    20  H    0.149780
    21  C   -0.170500
    22  C   -0.218612
    23  C   -0.170654
    24  C    0.157647
    25  C   -0.170755
    26  C   -0.218587
    27  H    0.226104
    28  H    0.223871
    29  H    0.275794
    30  H    0.276491
    31  H    0.224063
    32  N    0.490783
    33  O   -0.462008
    34  O   -0.459339
 Sum of Mulliken charges =  -0.00000

 Dipole moment (field-independent basis, Debye):
    X=              5.5174    Y=              0.8293    Z=             -0.0815  Tot=              5.5800
 Quadrupole moment (field-independent basis, Debye-Ang):
   XX=            -66.6009   YY=            -92.4069   ZZ=            -94.3443
   XY=             -0.1265   XZ=              0.6031   YZ=             -2.5116

 Normal termination of Gaussian 16 at Thu May  6 20:19:38 2021.
