 Gaussian 16, Revision A.03,
 Gaussian 16:  EM64L-G16RevA.03 25-Dec-2016

 -------------
 #p 6-31g* mp2
 -------------

 ------------------------------------------------------
 Input file generated by CHIRIPA (05-May-2021 14:55:20)
 ------------------------------------------------------
 Symbolic Z-matrix:
 Charge =  0 Multiplicity = 1

                         Standard orientation:
 ---------------------------------------------------------------------
 Center     Atomic      Atomic             Coordinates (Angstroms)
 Number     Number       Type             X           Y           Z
 ---------------------------------------------------------------------
      1          6           0        2.520327    2.337497    0.358131
      2          6           0        1.541884    1.609724   -0.327081
      3          6           0        1.699404    0.237625   -0.544062
      4          6           0        2.852938   -0.377434   -0.059964
      5          6           0        3.845636    0.320329    0.626306
      6          6           0        3.667058    1.691616    0.831803
      7          1           0        2.389782    3.403062    0.522227
      8          1           0        0.650299    2.108693   -0.696066
      9          1           0        0.957678   -0.349914   -1.071376
     10          1           0        4.723676   -0.204793    0.982271
     11          1           0        4.428581    2.254286    1.364279
     12          7           0        3.030844   -1.829584   -0.283594
     13          8           0        4.056174   -2.348045    0.152908
     14          8           0        2.141587   -2.421822   -0.891141
     15          6           0       -3.655335    0.930890    0.143805
     16          6           0       -2.548880    1.712740   -0.565035
     17          6           0       -2.644551    3.220048   -0.326992
     18          1           0       -4.632358    1.296645   -0.200568
     19          1           0       -3.606956    1.136543    1.222119
     20          1           0       -2.598463    1.504590   -1.641525
     21          1           0       -1.574376    1.344950   -0.219077
     22          1           0       -2.572674    3.446612    0.741700
     23          1           0       -3.602579    3.607160   -0.688831
     24          1           0       -1.844059    3.759547   -0.842756
     25          6           0       -3.573125   -0.577348   -0.084650
     26          6           0       -4.679579   -1.359197    0.624191
     27          6           0       -4.583908   -2.866506    0.386148
     28          1           0       -3.621505   -0.783001   -1.162964
     29          1           0       -2.596102   -0.943103    0.259723
     30          1           0       -5.654083   -0.991407    0.278233
     31          1           0       -4.629996   -1.151048    1.700682
     32          1           0       -3.625880   -3.253618    0.747987
     33          1           0       -4.655786   -3.093070   -0.682544
     34          1           0       -5.384400   -3.406004    0.901912
 ---------------------------------------------------------------------

 SCF Done:  E(RHF) =  -669.535528588     A.U. after   15 cycles
 E2 =    -0.2091629660D+01 EUMP2 =    -0.67162715824812D+03

 The electronic state is 1-A.
 Alpha  occ. eigenvalues --  -20.60754 -20.60749 -15.85808 -11.31172 -11.27748
 Alpha  occ. eigenvalues --  -11.27729 -11.27476 -11.26760 -11.26704 -11.22435
 Alpha  occ. eigenvalues --  -11.21968 -11.21899 -11.21765 -11.21665 -11.21061
 Alpha  occ. eigenvalues --   -1.59830  -1.39383  -1.19345  -1.08892  -1.08737
 Alpha  occ. eigenvalues --   -1.04748  -1.03996  -0.96424  -0.95573  -0.87439
 Alpha  occ. eigenvalues --   -0.86143  -0.82412  -0.80112  -0.78656  -0.77446
 Alpha  occ. eigenvalues --   -0.72025  -0.71154  -0.70449  -0.65551  -0.64992
 Alpha  occ. eigenvalues --   -0.64744  -0.62157  -0.61337  -0.59842  -0.58029
 Alpha  occ. eigenvalues --   -0.55688  -0.55239  -0.53157  -0.53076  -0.52860
 Alpha  occ. eigenvalues --   -0.52803  -0.50350  -0.48786  -0.48780  -0.48394
 Alpha  occ. eigenvalues --   -0.47123  -0.46192  -0.46077  -0.44789  -0.44235
 Alpha  occ. eigenvalues --   -0.37325  -0.36338
 Alpha virt. eigenvalues --    0.05056   0.11281   0.16443   0.19907   0.22781
 Alpha virt. eigenvalues --    0.23666   0.25470   0.26146   0.26549   0.28644
 Alpha virt. eigenvalues --    0.29293   0.30386   0.30929   0.31419   0.32356

 Mulliken charges:
               1
     1  C   -0.172039
     2  C   -0.223435
     3  C   -0.173465
     4  C    0.158580
     5  C   -0.171031
     6  C   -0.218531
     7  H    0.225906
     8  H    0.232054
     9  H    0.276605
    10  H    0.275550
    11  H    0.223347
    12  N    0.488081
    13  O   -0.460575
    14  O   -0.460367
    15  C   -0.297684
    16  C   -0.307061
    17  C   -0.477347
    18  H    0.151749
    19  H    0.151119
    20  H    0.153868
    21  H    0.147341
    22  H    0.157567
    23  H    0.160933
    24  H    0.153211
    25  C   -0.299992
    26  C   -0.300141
    27  C   -0.476562
    28  H    0.150665
    29  H    0.151645
    30  H    0.151773
    31  H    0.152228
    32  H    0.158987
    33  H    0.156221
    34  H    0.160797
 Sum of Mulliken charges =  -0.00000

 Dipole moment (field-independent basis, Debye):
    X=             -0.7732    Y=              5.0580    Z=              0.8208  Tot=              5.1822
 Quadrupole moment (field-independent basis, Debye-Ang):
   XX=            -93.6726   YY=           -100.3924   ZZ=            -93.7222
   XY=             15.1011   XZ=              5.2308   YZ=             -0.5975

 Normal termination of Gaussian 16 at Thu May  6 01:21:05 2021.
