 Gaussian 16, Revision A.03,
 Gaussian 16:  EM64L-G16RevA.03 25-Dec-2016

 -------------
 #p 6-31g* mp2
 -------------

 ------------------------------------------------------
 Input file generated by CHIRIPA (05-May-2021 14:51:11)
 ------------------------------------------------------
 Symbolic Z-matrix:
 Charge =  0 Multiplicity = 1

                         Standard orientation:
 ---------------------------------------------------------------------
 Center     Atomic      Atomic             Coordinates (Angstroms)
 Number     Number       Type             X           Y           Z
 ---------------------------------------------------------------------
      1          6           0        2.469775   -0.624617    0.586853
      2          6           0        3.448012    0.438756    0.086577
      3          6           0        4.066399    1.254306    1.222477
      4          1           0        1.673445   -0.137613    1.166189
      5          1           0        2.993487   -1.297661    1.279770
      6          1           0        2.922961    1.108766   -0.606261
      7          1           0        4.242001   -0.050816   -0.491797
      8          1           0        4.614644    0.602611    1.910461
      9          1           0        3.288110    1.768782    1.795347
     10          1           0        4.762457    2.008562    0.842397
     11          6           0        1.843317   -1.448159   -0.537005
     12          6           0        0.865081   -2.511532   -0.036728
     13          6           0        0.246693   -3.327082   -1.172629
     14          1           0        1.319606   -0.775115   -1.229922
     15          1           0        2.639647   -1.935163   -1.116341
     16          1           0        0.071092   -2.021960    0.541645
     17          1           0        1.390132   -3.181542    0.656109
     18          1           0        1.024983   -3.841558   -1.745499
     19          1           0       -0.301552   -2.675387   -1.860613
     20          1           0       -0.449365   -4.081338   -0.792548
     21          6           0       -1.579588    1.276685   -0.464024
     22          6           0       -1.241756    2.754745   -0.266051
     23          6           0       -0.085490    3.220591   -1.151392
     24          1           0       -0.687270    0.671666   -0.252682
     25          1           0       -1.831839    1.103566   -1.519389
     26          1           0       -0.991561    2.925293    0.788905
     27          1           0       -2.135036    3.356302   -0.477703
     28          1           0       -0.329123    3.079113   -2.209327
     29          1           0        0.820849    2.645655   -0.935523
     30          1           0        0.139239    4.280075   -0.993746
     31          6           0       -2.733505    0.796091    0.414176
     32          6           0       -3.071336   -0.681969    0.216203
     33          6           0       -4.227603   -1.147816    1.101543
     34          1           0       -2.481253    0.969211    1.469540
     35          1           0       -3.625823    1.401109    0.202834
     36          1           0       -2.178056   -1.283526    0.427855
     37          1           0       -3.321532   -0.852518   -0.838753
     38          1           0       -5.133942   -0.572879    0.885675
     39          1           0       -3.983970   -1.006337    2.159479
     40          1           0       -4.452332   -2.207298    0.943898
 ---------------------------------------------------------------------

 SCF Done:  E(RHF) =  -470.732856595     A.U. after   11 cycles
 E2 =    -0.1585304065D+01 EUMP2 =    -0.47231816066001D+03

 The electronic state is 1-A.
 Alpha  occ. eigenvalues --  -11.21669 -11.21645 -11.21616 -11.21613 -11.21466
 Alpha  occ. eigenvalues --  -11.21444 -11.21404 -11.21369 -11.21137 -11.21103
 Alpha  occ. eigenvalues --  -11.21091 -11.21058  -1.08535  -1.08426  -1.03605
 Alpha  occ. eigenvalues --   -1.03533  -0.96044  -0.95989  -0.87055  -0.87010
 Alpha  occ. eigenvalues --   -0.79671  -0.79606  -0.78320  -0.78276  -0.65492
 Alpha  occ. eigenvalues --   -0.64764  -0.61221  -0.60751  -0.59411  -0.59350
 Alpha  occ. eigenvalues --   -0.57650  -0.57606  -0.55462  -0.55160  -0.52720
 Alpha  occ. eigenvalues --   -0.52692  -0.52493  -0.52385  -0.50023  -0.49913
 Alpha  occ. eigenvalues --   -0.48116  -0.47831  -0.46824  -0.46598  -0.46176
 Alpha  occ. eigenvalues --   -0.45831  -0.45614  -0.45332  -0.43834  -0.43807
 Alpha virt. eigenvalues --    0.18840   0.21690   0.23756   0.25076   0.25727
 Alpha virt. eigenvalues --    0.25919   0.27070   0.27497   0.28529   0.29861
 Alpha virt. eigenvalues --    0.30822   0.31539   0.31667   0.31834   0.32169

 Mulliken charges:
               1
     1  C   -0.299889
     2  C   -0.304875
     3  C   -0.475601
     4  H    0.149378
     5  H    0.150124
     6  H    0.156215
     7  H    0.152633
     8  H    0.155344
     9  H    0.155038
    10  H    0.160666
    11  C   -0.301102
    12  C   -0.306302
    13  C   -0.475764
    14  H    0.152173
    15  H    0.150467
    16  H    0.156406
    17  H    0.152244
    18  H    0.155099
    19  H    0.156654
    20  H    0.160085
    21  C   -0.306764
    22  C   -0.299083
    23  C   -0.481339
    24  H    0.157340
    25  H    0.149442
    26  H    0.151721
    27  H    0.152526
    28  H    0.155467
    29  H    0.159416
    30  H    0.160957
    31  C   -0.297563
    32  C   -0.308427
    33  C   -0.475221
    34  H    0.149125
    35  H    0.150089
    36  H    0.160463
    37  H    0.152067
    38  H    0.155250
    39  H    0.155058
    40  H    0.160482
 Sum of Mulliken charges =  -0.00000

 Dipole moment (field-independent basis, Debye):
    X=              0.0005    Y=             -0.0036    Z=             -0.0139  Tot=              0.0144
 Quadrupole moment (field-independent basis, Debye-Ang):
   XX=            -84.6373   YY=            -84.9274   ZZ=            -85.0609
   XY=             -1.4339   XZ=              0.6351   YZ=             -0.4217

 Normal termination of Gaussian 16 at Wed May  5 23:06:15 2021.
