 Gaussian 16, Revision A.03,
 Gaussian 16:  EM64L-G16RevA.03 25-Dec-2016

 -------------
 #p 6-31g* mp2
 -------------

 ------------------------------------------------------
 Input file generated by CHIRIPA (05-May-2021 14:55:25)
 ------------------------------------------------------
 Symbolic Z-matrix:
 Charge =  0 Multiplicity = 1

                         Standard orientation:
 ---------------------------------------------------------------------
 Center     Atomic      Atomic             Coordinates (Angstroms)
 Number     Number       Type             X           Y           Z
 ---------------------------------------------------------------------
      1          6           0       -3.384512   -2.177406    0.532642
      2          6           0       -4.006148   -1.198088    1.314323
      3          6           0       -3.823610    0.158585    1.030307
      4          6           0       -3.009166    0.501884   -0.047709
      5          6           0       -2.376224   -0.450404   -0.845092
      6          6           0       -2.572964   -1.801102   -0.542675
      7          1           0       -3.531828   -3.228982    0.760420
      8          1           0       -4.636951   -1.487406    2.150044
      9          1           0       -4.292868    0.937415    1.619068
     10          1           0       -1.753137   -0.131180   -1.671698
     11          1           0       -2.088936   -2.559487   -1.151456
     12          7           0       -2.808403    1.934970   -0.358124
     13          8           0       -2.086041    2.211399   -1.313329
     14          8           0       -3.377209    2.754659    0.359656
     15          6           0        3.144291   -0.439823    0.101852
     16          6           0        2.557621   -1.572114   -0.741784
     17          6           0        1.056713   -1.759361   -0.518159
     18          1           0        2.953236   -0.645597    1.163972
     19          1           0        2.617890    0.495162   -0.135003
     20          1           0        3.085904   -2.504417   -0.504415
     21          1           0        2.750263   -1.363717   -1.802008
     22          1           0        0.512104   -0.844592   -0.773501
     23          1           0        0.849652   -1.991774    0.531465
     24          1           0        0.658036   -2.573812   -1.131011
     25          6           0        4.643880   -0.240354   -0.110688
     26          6           0        5.230550    0.891937    0.732947
     27          6           0        6.731459    1.079184    0.509323
     28          1           0        5.170281   -1.175339    0.126167
     29          1           0        4.834936   -0.034580   -1.172808
     30          1           0        5.037908    0.683540    1.793171
     31          1           0        4.702267    1.824240    0.495579
     32          1           0        6.938519    1.311597   -0.540301
     33          1           0        7.276067    0.164415    0.764664
     34          1           0        7.130136    1.893635    1.122175
 ---------------------------------------------------------------------

 SCF Done:  E(RHF) =  -669.534673720     A.U. after   15 cycles
 E2 =    -0.2092281214D+01 EUMP2 =    -0.67162695493372D+03

 The electronic state is 1-A.
 Alpha  occ. eigenvalues --  -20.60758 -20.60751 -15.85809 -11.31144 -11.27706
 Alpha  occ. eigenvalues --  -11.27693 -11.27441 -11.26726 -11.26688 -11.21851
 Alpha  occ. eigenvalues --  -11.21560 -11.21550 -11.21467 -11.21385 -11.21015
 Alpha  occ. eigenvalues --   -1.59833  -1.39387  -1.19318  -1.08717  -1.08520
 Alpha  occ. eigenvalues --   -1.04724  -1.03668  -0.96148  -0.95556  -0.87179
 Alpha  occ. eigenvalues --   -0.86117  -0.82391  -0.79748  -0.78307  -0.77431
 Alpha  occ. eigenvalues --   -0.72029  -0.71155  -0.70437  -0.65156  -0.64965
 Alpha  occ. eigenvalues --   -0.64729  -0.62106  -0.61046  -0.59531  -0.57744
 Alpha  occ. eigenvalues --   -0.55452  -0.55202  -0.53259  -0.52981  -0.52628
 Alpha  occ. eigenvalues --   -0.52422  -0.50065  -0.48786  -0.48783  -0.48047
 Alpha  occ. eigenvalues --   -0.46749  -0.45859  -0.45756  -0.44797  -0.43925
 Alpha  occ. eigenvalues --   -0.37297  -0.36238
 Alpha virt. eigenvalues --    0.05075   0.11256   0.16538   0.20735   0.22874
 Alpha virt. eigenvalues --    0.24097   0.26264   0.26436   0.27095   0.27979
 Alpha virt. eigenvalues --    0.29200   0.29309   0.31347   0.31812   0.32364

 Mulliken charges:
               1
     1  C   -0.172563
     2  C   -0.218417
     3  C   -0.171486
     4  C    0.157551
     5  C   -0.170547
     6  C   -0.212946
     7  H    0.225363
     8  H    0.223117
     9  H    0.275287
    10  H    0.275133
    11  H    0.225009
    12  N    0.488299
    13  O   -0.461416
    14  O   -0.460346
    15  C   -0.299849
    16  C   -0.300271
    17  C   -0.477915
    18  H    0.149323
    19  H    0.154859
    20  H    0.151347
    21  H    0.152916
    22  H    0.158548
    23  H    0.157544
    24  H    0.149759
    25  C   -0.298466
    26  C   -0.300217
    27  C   -0.475839
    28  H    0.148458
    29  H    0.150450
    30  H    0.151621
    31  H    0.154814
    32  H    0.155626
    33  H    0.154303
    34  H    0.160950
 Sum of Mulliken charges =  -0.00000

 Dipole moment (field-independent basis, Debye):
    X=             -0.6590    Y=             -5.0009    Z=              1.1267  Tot=              5.1684
 Quadrupole moment (field-independent basis, Debye-Ang):
   XX=            -90.3322   YY=            -99.9539   ZZ=            -91.7734
   XY=             14.0145   XZ=             -5.7403   YZ=              1.2988

 Normal termination of Gaussian 16 at Thu May  6 16:02:39 2021.
