 Gaussian 16, Revision A.03,
 Gaussian 16:  EM64L-G16RevA.03 25-Dec-2016

 -------------
 #p 6-31g* mp2
 -------------

 ------------------------------------------------------
 Input file generated by CHIRIPA (05-May-2021 14:55:21)
 ------------------------------------------------------
 Symbolic Z-matrix:
 Charge =  0 Multiplicity = 1

                         Standard orientation:
 ---------------------------------------------------------------------
 Center     Atomic      Atomic             Coordinates (Angstroms)
 Number     Number       Type             X           Y           Z
 ---------------------------------------------------------------------
      1          6           0       -0.551578    0.614586    0.574003
      2          6           0       -1.093048    0.861045   -0.691931
      3          6           0       -2.413427    0.504004   -0.981189
      4          6           0       -3.167305   -0.100469    0.023585
      5          6           0       -2.656331   -0.359174    1.294517
      6          6           0       -1.333569    0.006336    1.561446
      7          1           0        0.475050    0.895233    0.790033
      8          1           0       -0.488079    1.333277   -1.460731
      9          1           0       -2.857769    0.683200   -1.952718
     10          1           0       -3.283993   -0.831420    2.040467
     11          1           0       -0.915693   -0.186283    2.545479
     12          7           0       -4.566392   -0.482935   -0.270820
     13          8           0       -5.209792   -1.014209    0.631632
     14          8           0       -4.993105   -0.244195   -1.398454
     15          6           0        3.477907    0.678817   -0.418460
     16          6           0        3.348565    1.855596    0.549241
     17          6           0        2.784820    3.110474   -0.118042
     18          1           0        4.124064    0.971502   -1.257366
     19          1           0        2.491117    0.455452   -0.847122
     20          1           0        4.335052    2.075784    0.976997
     21          1           0        2.702794    1.560013    1.386037
     22          1           0        1.789541    2.913892   -0.529597
     23          1           0        3.431073    3.432594   -0.940962
     24          1           0        2.700790    3.939319    0.591757
     25          6           0        4.040091   -0.582985    0.233869
     26          6           0        4.169434   -1.759764   -0.733833
     27          6           0        4.733178   -3.014642   -0.066549
     28          1           0        5.026881   -0.359620    0.662529
     29          1           0        3.393933   -0.875669    1.072773
     30          1           0        4.815204   -1.464181   -1.570629
     31          1           0        3.182946   -1.979952   -1.161589
     32          1           0        4.086925   -3.336762    0.756369
     33          1           0        5.728456   -2.818060    0.345005
     34          1           0        4.817208   -3.843487   -0.776348
 ---------------------------------------------------------------------

 SCF Done:  E(RHF) =  -669.535132758     A.U. after   15 cycles
 E2 =    -0.2092594946D+01 EUMP2 =    -0.67162772770341D+03

 The electronic state is 1-A.
 Alpha  occ. eigenvalues --  -20.60752 -20.60747 -15.85806 -11.31174 -11.27748
 Alpha  occ. eigenvalues --  -11.27744 -11.27436 -11.26758 -11.26745 -11.22932
 Alpha  occ. eigenvalues --  -11.22572 -11.22365 -11.22341 -11.22305 -11.21668
 Alpha  occ. eigenvalues --   -1.59828  -1.39381  -1.19347  -1.09514  -1.08735
 Alpha  occ. eigenvalues --   -1.04753  -1.04544  -0.96973  -0.95575  -0.87988
 Alpha  occ. eigenvalues --   -0.86150  -0.82410  -0.80623  -0.79272  -0.77457
 Alpha  occ. eigenvalues --   -0.72024  -0.71151  -0.70545  -0.66162  -0.64996
 Alpha  occ. eigenvalues --   -0.64742  -0.62130  -0.61924  -0.60352  -0.58567
 Alpha  occ. eigenvalues --   -0.56288  -0.55196  -0.53645  -0.53387  -0.53068
 Alpha  occ. eigenvalues --   -0.52843  -0.50931  -0.48909  -0.48785  -0.48778
 Alpha  occ. eigenvalues --   -0.47703  -0.46797  -0.46729  -0.44787  -0.44786
 Alpha  occ. eigenvalues --   -0.37314  -0.36358
 Alpha virt. eigenvalues --    0.05068   0.11233   0.16522   0.18166   0.22608
 Alpha virt. eigenvalues --    0.23943   0.24163   0.25531   0.27001   0.28124
 Alpha virt. eigenvalues --    0.29273   0.30030   0.30704   0.31443   0.31791

 Mulliken charges:
               1
     1  C   -0.177773
     2  C   -0.224616
     3  C   -0.170406
     4  C    0.158158
     5  C   -0.170464
     6  C   -0.221932
     7  H    0.240638
     8  H    0.224853
     9  H    0.275690
    10  H    0.275563
    11  H    0.223467
    12  N    0.487970
    13  O   -0.460448
    14  O   -0.460427
    15  C   -0.302404
    16  C   -0.306575
    17  C   -0.477245
    18  H    0.155513
    19  H    0.143823
    20  H    0.160960
    21  H    0.143556
    22  H    0.147481
    23  H    0.161439
    24  H    0.166034
    25  C   -0.297606
    26  C   -0.300766
    27  C   -0.476254
    28  H    0.152965
    29  H    0.146469
    30  H    0.153763
    31  H    0.153497
    32  H    0.155585
    33  H    0.156247
    34  H    0.163247
 Sum of Mulliken charges =  -0.00000

 Dipole moment (field-independent basis, Debye):
    X=              5.1974    Y=              1.3443    Z=              1.0042  Tot=              5.4616
 Quadrupole moment (field-independent basis, Debye-Ang):
   XX=           -124.6934   YY=            -95.5370   ZZ=            -90.5255
   XY=             -3.7560   XZ=             -4.2081   YZ=             -1.7114

 Normal termination of Gaussian 16 at Wed May  5 20:37:28 2021.
