 Gaussian 16, Revision A.03,
 Gaussian 16:  EM64L-G16RevA.03 25-Dec-2016

 -------------
 #p 6-31g* mp2
 -------------

 ------------------------------------------------------
 Input file generated by CHIRIPA (05-May-2021 14:57:21)
 ------------------------------------------------------
 Symbolic Z-matrix:
 Charge =  0 Multiplicity = 1

                         Standard orientation:
 ---------------------------------------------------------------------
 Center     Atomic      Atomic             Coordinates (Angstroms)
 Number     Number       Type             X           Y           Z
 ---------------------------------------------------------------------
      1          6           0       -2.247789    2.074709    0.712024
      2          6           0       -3.366171    2.273624   -0.104172
      3          6           0       -4.174962    1.195417   -0.475486
      4          6           0       -3.834533   -0.073900   -0.010478
      5          6           0       -2.726823   -0.304244    0.803900
      6          6           0       -1.932241    0.788678    1.162660
      7          1           0       -1.625019    2.918002    0.995593
      8          1           0       -3.613638    3.271264   -0.455624
      9          1           0       -5.046567    1.321032   -1.106314
     10          1           0       -2.505514   -1.310424    1.138625
     11          1           0       -1.064297    0.631224    1.796638
     12          7           0       -4.683243   -1.223139   -0.396927
     13          8           0       -4.361897   -2.331545    0.025933
     14          8           0       -5.653737   -0.993745   -1.115367
     15          6           0        6.188489   -0.279855   -0.399199
     16          6           0        5.519813    0.915691   -0.682152
     17          6           0        4.138246    1.018148   -0.494202
     18          6           0        3.453561   -0.099619   -0.019765
     19          6           0        4.091366   -1.304542    0.271195
     20          6           0        5.473393   -1.384209    0.075735
     21          1           0        7.261902   -0.350595   -0.548120
     22          1           0        6.072597    1.774962   -1.051108
     23          1           0        3.595508    1.931550   -0.705274
     24          1           0        3.513248   -2.144076    0.637770
     25          1           0        5.990067   -2.313959    0.296317
     26          7           0        1.990715   -0.003216    0.183185
     27          8           0        1.410364   -1.002347    0.602194
     28          8           0        1.452185    1.069651   -0.080594
 ---------------------------------------------------------------------

 SCF Done:  E(RHF) =  -868.340215209     A.U. after   16 cycles
 E2 =    -0.2599273748D+01 EUMP2 =    -0.87093948895694D+03

 The electronic state is 1-A.
 Alpha  occ. eigenvalues --  -20.61756 -20.61733 -20.59622 -20.59609 -15.86756
 Alpha  occ. eigenvalues --  -15.84657 -11.31840 -11.29723 -11.28385 -11.28357
 Alpha  occ. eigenvalues --  -11.28059 -11.27327 -11.27304 -11.26312 -11.26116
 Alpha  occ. eigenvalues --  -11.25882 -11.25315 -11.24990  -1.60804  -1.58699
 Alpha  occ. eigenvalues --   -1.40362  -1.38261  -1.19984  -1.17843  -1.09433
 Alpha  occ. eigenvalues --   -1.07292  -1.05342  -1.03181  -0.96314  -0.94185
 Alpha  occ. eigenvalues --   -0.86753  -0.84600  -0.83155  -0.81021  -0.78235
 Alpha  occ. eigenvalues --   -0.76110  -0.72983  -0.72101  -0.71086  -0.70888
 Alpha  occ. eigenvalues --   -0.70017  -0.68957  -0.65639  -0.65343  -0.63487
 Alpha  occ. eigenvalues --   -0.63177  -0.62692  -0.60544  -0.55852  -0.53712
 Alpha  occ. eigenvalues --   -0.53684  -0.53429  -0.51582  -0.51297  -0.49745
 Alpha  occ. eigenvalues --   -0.49648  -0.47655  -0.47611  -0.45827  -0.43734
 Alpha  occ. eigenvalues --   -0.37945  -0.36931  -0.35789  -0.34736
 Alpha virt. eigenvalues --    0.04264   0.06384   0.10728   0.12902   0.15820
 Alpha virt. eigenvalues --    0.17976   0.20902   0.22989   0.26831   0.27768
 Alpha virt. eigenvalues --    0.28953   0.29745   0.30507   0.31967   0.32503

 Mulliken charges:
               1
     1  C   -0.167740
     2  C   -0.219902
     3  C   -0.174362
     4  C    0.156762
     5  C   -0.172692
     6  C   -0.202174
     7  H    0.223011
     8  H    0.216744
     9  H    0.269693
    10  H    0.275163
    11  H    0.231805
    12  N    0.488199
    13  O   -0.462723
    14  O   -0.465651
    15  C   -0.169674
    16  C   -0.218515
    17  C   -0.170600
    18  C    0.158258
    19  C   -0.170232
    20  C   -0.218522
    21  H    0.227959
    22  H    0.225038
    23  H    0.274610
    24  H    0.277027
    25  H    0.225985
    26  N    0.488715
    27  O   -0.462102
    28  O   -0.464080
 Sum of Mulliken charges =  -0.00000

 Dipole moment (field-independent basis, Debye):
    X=              8.8504    Y=              3.6388    Z=              0.7373  Tot=              9.5976
 Quadrupole moment (field-independent basis, Debye-Ang):
   XX=            -92.4124   YY=            -99.7034   ZZ=           -104.3864
   XY=            -19.4969   XZ=             -6.5919   YZ=             -3.6407

 Normal termination of Gaussian 16 at Wed May  5 20:53:59 2021.
