 Gaussian 16, Revision A.03,
 Gaussian 16:  EM64L-G16RevA.03 25-Dec-2016

 -------------
 #p 6-31g* mp2
 -------------

 ------------------------------------------------------
 Input file generated by CHIRIPA (05-May-2021 14:53:14)
 ------------------------------------------------------
 Symbolic Z-matrix:
 Charge =  0 Multiplicity = 1

                         Standard orientation:
 ---------------------------------------------------------------------
 Center     Atomic      Atomic             Coordinates (Angstroms)
 Number     Number       Type             X           Y           Z
 ---------------------------------------------------------------------
      1          6           0        5.434044   -0.058452    0.141110
      2          6           0        6.053271    0.544400   -1.120284
      3          6           0        7.437124    1.144740   -0.870611
      4          1           0        5.364156    0.718341    0.914837
      5          1           0        6.105194   -0.833622    0.536159
      6          1           0        5.380500    1.317243   -1.513615
      7          1           0        6.121516   -0.233870   -1.891162
      8          1           0        8.127568    0.380195   -0.499991
      9          1           0        7.382341    1.940121   -0.120299
     10          1           0        7.861252    1.570055   -1.785533
     11          6           0        4.050491   -0.662570   -0.092450
     12          6           0        3.431265   -1.265422    1.168943
     13          6           0        2.047412   -1.865762    0.919270
     14          1           0        3.379342    0.112600   -0.487500
     15          1           0        4.120379   -1.439363   -0.866177
     16          1           0        3.363019   -0.487152    1.939821
     17          1           0        4.104036   -2.038265    1.562274
     18          1           0        2.102194   -2.661144    0.168958
     19          1           0        1.356968   -1.101217    0.548650
     20          1           0        1.623283   -2.291077    1.834192
     21          6           0       -1.935763    1.840115    0.879476
     22          6           0       -3.196340    2.337556    0.533038
     23          6           0       -4.184219    1.483246    0.034239
     24          6           0       -3.875930    0.130983   -0.105870
     25          6           0       -2.629461   -0.394819    0.230491
     26          6           0       -1.656839    0.477917    0.727365
     27          1           0       -1.174281    2.510921    1.266207
     28          1           0       -3.415767    3.395001    0.650111
     29          1           0       -5.168477    1.841709   -0.241729
     30          1           0       -2.440342   -1.453736    0.102636
     31          1           0       -0.678734    0.088807    0.995599
     32          7           0       -4.913677   -0.783191   -0.632906
     33          8           0       -4.617070   -1.970482   -0.746927
     34          8           0       -6.004021   -0.295119   -0.921998
 ---------------------------------------------------------------------

 SCF Done:  E(RHF) =  -669.535539120     A.U. after   15 cycles
 E2 =    -0.2090719450D+01 EUMP2 =    -0.67162625856974D+03

 The electronic state is 1-A.
 Alpha  occ. eigenvalues --  -20.60726 -20.60720 -15.85779 -11.31142 -11.27718
 Alpha  occ. eigenvalues --  -11.27699 -11.27461 -11.26735 -11.26692 -11.22374
 Alpha  occ. eigenvalues --  -11.22058 -11.22049 -11.22026 -11.21898 -11.21450
 Alpha  occ. eigenvalues --   -1.59801  -1.39355  -1.19316  -1.09042  -1.08713
 Alpha  occ. eigenvalues --   -1.04718  -1.04164  -0.96626  -0.95548  -0.87649
 Alpha  occ. eigenvalues --   -0.86118  -0.82380  -0.80230  -0.78827  -0.77425
 Alpha  occ. eigenvalues --   -0.71997  -0.71124  -0.70429  -0.65688  -0.64968
 Alpha  occ. eigenvalues --   -0.64737  -0.62120  -0.61524  -0.59994  -0.58214
 Alpha  occ. eigenvalues --   -0.55947  -0.55218  -0.53332  -0.53106  -0.53042
 Alpha  occ. eigenvalues --   -0.52753  -0.50552  -0.48760  -0.48752  -0.48532
 Alpha  occ. eigenvalues --   -0.47254  -0.46374  -0.46286  -0.44760  -0.44403
 Alpha  occ. eigenvalues --   -0.37302  -0.36320
 Alpha virt. eigenvalues --    0.05106   0.11312   0.16576   0.20055   0.22483
 Alpha virt. eigenvalues --    0.23673   0.25483   0.26339   0.27071   0.28340
 Alpha virt. eigenvalues --    0.28662   0.30142   0.31059   0.31439   0.32102

 Mulliken charges:
               1
     1  C   -0.298654
     2  C   -0.300003
     3  C   -0.475986
     4  H    0.148939
     5  H    0.151212
     6  H    0.151516
     7  H    0.153419
     8  H    0.156141
     9  H    0.154955
    10  H    0.161605
    11  C   -0.298606
    12  C   -0.299636
    13  C   -0.482270
    14  H    0.147435
    15  H    0.152433
    16  H    0.150379
    17  H    0.156189
    18  H    0.162011
    19  H    0.147589
    20  H    0.162336
    21  C   -0.172250
    22  C   -0.218485
    23  C   -0.171129
    24  C    0.158630
    25  C   -0.173077
    26  C   -0.225913
    27  H    0.225499
    28  H    0.223136
    29  H    0.275453
    30  H    0.276201
    31  H    0.233843
    32  N    0.488110
    33  O   -0.460316
    34  O   -0.460705
 Sum of Mulliken charges =  -0.00000

 Dipole moment (field-independent basis, Debye):
    X=              3.8580    Y=              3.1580    Z=              1.8429  Tot=              5.3155
 Quadrupole moment (field-independent basis, Debye-Ang):
   XX=           -121.6074   YY=            -90.4061   ZZ=            -95.9508
   XY=            -15.9925   XZ=             -7.4902   YZ=             -0.2485

 Normal termination of Gaussian 16 at Wed May  5 17:03:51 2021.
