 Gaussian 16, Revision A.03,
 Gaussian 16:  EM64L-G16RevA.03 25-Dec-2016

 -------------
 #p 6-31g* mp2
 -------------

 ------------------------------------------------------
 Input file generated by CHIRIPA (05-May-2021 14:55:25)
 ------------------------------------------------------
 Symbolic Z-matrix:
 Charge =  0 Multiplicity = 1

                         Standard orientation:
 ---------------------------------------------------------------------
 Center     Atomic      Atomic             Coordinates (Angstroms)
 Number     Number       Type             X           Y           Z
 ---------------------------------------------------------------------
      1          6           0       -4.476782   -1.893283   -0.674088
      2          6           0       -5.195129   -0.724595   -0.400835
      3          6           0       -4.526378    0.470315   -0.118858
      4          6           0       -3.132393    0.460507   -0.118587
      5          6           0       -2.388496   -0.687490   -0.386931
      6          6           0       -3.078223   -1.871040   -0.666277
      7          1           0       -5.004431   -2.817105   -0.892112
      8          1           0       -6.281320   -0.738913   -0.406206
      9          1           0       -5.057624    1.389540    0.096130
     10          1           0       -1.306279   -0.642062   -0.374258
     11          1           0       -2.517738   -2.777141   -0.878128
     12          7           0       -2.413313    1.719492    0.178537
     13          8           0       -1.184744    1.684547    0.172597
     14          8           0       -3.091882    2.717389    0.411736
     15          6           0        4.843041   -0.471359   -0.096515
     16          6           0        5.580587    0.783816   -0.564004
     17          6           0        6.943149    0.472431   -1.183890
     18          1           0        5.466601   -1.004608    0.634076
     19          1           0        4.711899   -1.150506   -0.950305
     20          1           0        5.709074    1.461001    0.290119
     21          1           0        4.955116    1.314240   -1.293424
     22          1           0        6.830124   -0.183846   -2.052870
     23          1           0        7.588366   -0.036252   -0.460330
     24          1           0        7.453063    1.383887   -1.511144
     25          6           0        3.479279   -0.176350    0.525459
     26          6           0        2.741733   -1.431526    0.992949
     27          6           0        1.379171   -1.120140    1.612834
     28          1           0        3.610420    0.502796    1.379249
     29          1           0        2.855719    0.356899   -0.205131
     30          1           0        3.367203   -1.961949    1.722368
     31          1           0        2.613245   -2.108710    0.138826
     32          1           0        0.733954   -0.611458    0.889274
     33          1           0        1.492196   -0.463863    2.481815
     34          1           0        0.869257   -2.031597    1.940088
 ---------------------------------------------------------------------

 SCF Done:  E(RHF) =  -669.535596764     A.U. after   15 cycles
 E2 =    -0.2091348436D+01 EUMP2 =    -0.67162694520042D+03

 The electronic state is 1-A.
 Alpha  occ. eigenvalues --  -20.60816 -20.60811 -15.85858 -11.31196 -11.27767
 Alpha  occ. eigenvalues --  -11.27750 -11.27511 -11.26781 -11.26769 -11.21433
 Alpha  occ. eigenvalues --  -11.21291 -11.21110 -11.20998 -11.20870 -11.20828
 Alpha  occ. eigenvalues --   -1.59883  -1.39439  -1.19371  -1.08772  -1.08150
 Alpha  occ. eigenvalues --   -1.04771  -1.03290  -0.95744  -0.95603  -0.86757
 Alpha  occ. eigenvalues --   -0.86170  -0.82443  -0.79352  -0.77944  -0.77490
 Alpha  occ. eigenvalues --   -0.72082  -0.71199  -0.70490  -0.65027  -0.64848
 Alpha  occ. eigenvalues --   -0.64727  -0.62155  -0.60680  -0.59106  -0.57333
 Alpha  occ. eigenvalues --   -0.55317  -0.54994  -0.53101  -0.52888  -0.52451
 Alpha  occ. eigenvalues --   -0.52120  -0.49671  -0.48836  -0.48831  -0.47644
 Alpha  occ. eigenvalues --   -0.46375  -0.45484  -0.45409  -0.44832  -0.43537
 Alpha  occ. eigenvalues --   -0.37353  -0.36369
 Alpha virt. eigenvalues --    0.05025   0.11263   0.16532   0.20801   0.23100
 Alpha virt. eigenvalues --    0.24200   0.26217   0.27195   0.27670   0.28021
 Alpha virt. eigenvalues --    0.29329   0.30282   0.31568   0.31899   0.32135

 Mulliken charges:
               1
     1  C   -0.170436
     2  C   -0.218895
     3  C   -0.170232
     4  C    0.155818
     5  C   -0.171904
     6  C   -0.221679
     7  H    0.225639
     8  H    0.223446
     9  H    0.275599
    10  H    0.284085
    11  H    0.224023
    12  N    0.488492
    13  O   -0.463331
    14  O   -0.459771
    15  C   -0.298177
    16  C   -0.299772
    17  C   -0.475570
    18  H    0.148279
    19  H    0.147101
    20  H    0.153135
    21  H    0.153861
    22  H    0.153966
    23  H    0.154316
    24  H    0.160330
    25  C   -0.299023
    26  C   -0.299321
    27  C   -0.485629
    28  H    0.152416
    29  H    0.155737
    30  H    0.151215
    31  H    0.146157
    32  H    0.165172
    33  H    0.161999
    34  H    0.152956
 Sum of Mulliken charges =  -0.00000

 Dipole moment (field-independent basis, Debye):
    X=             -2.5801    Y=             -4.3094    Z=             -1.0227  Tot=              5.1258
 Quadrupole moment (field-independent basis, Debye-Ang):
   XX=            -76.1403   YY=            -98.4680   ZZ=            -94.6912
   XY=             11.0004   XZ=              4.0825   YZ=              0.5780

 Normal termination of Gaussian 16 at Wed May  5 17:40:53 2021.
