 Gaussian 16, Revision A.03,
 Gaussian 16:  EM64L-G16RevA.03 25-Dec-2016

 -------------
 #p 6-31g* mp2
 -------------

 ------------------------------------------------------
 Input file generated by CHIRIPA (05-May-2021 14:57:25)
 ------------------------------------------------------
 Symbolic Z-matrix:
 Charge =  0 Multiplicity = 1

                         Standard orientation:
 ---------------------------------------------------------------------
 Center     Atomic      Atomic             Coordinates (Angstroms)
 Number     Number       Type             X           Y           Z
 ---------------------------------------------------------------------
      1          6           0       -1.394310    2.516486   -0.697164
      2          6           0       -2.592725    2.594403    0.019949
      3          6           0       -3.330346    1.439693    0.297628
      4          6           0       -2.837910    0.218086   -0.158961
      5          6           0       -1.647412    0.107885   -0.875801
      6          6           0       -0.926303    1.275664   -1.141966
      7          1           0       -0.827721    3.418569   -0.908399
      8          1           0       -2.958603    3.556687    0.366630
      9          1           0       -4.261218    1.471274    0.850708
     10          1           0       -1.308170   -0.865651   -1.208310
     11          1           0        0.004077    1.212140   -1.699104
     12          7           0       -3.610056   -1.011272    0.128910
     13          8           0       -3.154703   -2.075450   -0.284389
     14          8           0       -4.655996   -0.887386    0.762391
     15          6           0        1.203746   -2.443009    0.132786
     16          6           0        2.334766   -2.382563   -0.687982
     17          6           0        3.176784   -1.266993   -0.655527
     18          6           0        2.856333   -0.225189    0.213523
     19          6           0        1.736763   -0.255827    1.043532
     20          6           0        0.908874   -1.381320    0.994404
     21          1           0        0.555133   -3.313466    0.101097
     22          1           0        2.566234   -3.205607   -1.358108
     23          1           0        4.058818   -1.194091   -1.280123
     24          1           0        1.532010    0.580202    1.701217
     25          1           0        0.031184   -1.425526    1.632958
     26          7           0        3.740261    0.961068    0.256708
     27          8           0        3.436004    1.865745    1.031062
     28          8           0        4.720603    0.963716   -0.484615
 ---------------------------------------------------------------------

 SCF Done:  E(RHF) =  -868.338738680     A.U. after   16 cycles
 E2 =    -0.2602270780D+01 EUMP2 =    -0.87094100946078D+03

 The electronic state is 1-A.
 Alpha  occ. eigenvalues --  -20.61401 -20.61357 -20.61292 -20.61279 -15.86424
 Alpha  occ. eigenvalues --  -15.86337 -11.31635 -11.31564 -11.28168 -11.28129
 Alpha  occ. eigenvalues --  -11.28104 -11.28091 -11.27754 -11.27740 -11.27137
 Alpha  occ. eigenvalues --  -11.27050 -11.27033 -11.26994  -1.60461  -1.60371
 Alpha  occ. eigenvalues --   -1.40020  -1.39923  -1.19808  -1.19703  -1.09172
 Alpha  occ. eigenvalues --   -1.09137  -1.05212  -1.05012  -0.96028  -0.95992
 Alpha  occ. eigenvalues --   -0.86590  -0.86418  -0.82857  -0.82816  -0.77958
 Alpha  occ. eigenvalues --   -0.77896  -0.72640  -0.72543  -0.71796  -0.71710
 Alpha  occ. eigenvalues --   -0.70801  -0.70761  -0.65400  -0.65348  -0.65133
 Alpha  occ. eigenvalues --   -0.65009  -0.62494  -0.62416  -0.55556  -0.55533
 Alpha  occ. eigenvalues --   -0.53879  -0.53210  -0.53155  -0.53053  -0.49412
 Alpha  occ. eigenvalues --   -0.49369  -0.49310  -0.49297  -0.45472  -0.45341
 Alpha  occ. eigenvalues --   -0.37931  -0.37573  -0.37426  -0.35890
 Alpha virt. eigenvalues --    0.04420   0.04702   0.10062   0.11796   0.15860
 Alpha virt. eigenvalues --    0.16256   0.21053   0.21409   0.26933   0.27024
 Alpha virt. eigenvalues --    0.27752   0.28511   0.30778   0.30904   0.31942

 Mulliken charges:
               1
     1  C   -0.171124
     2  C   -0.219503
     3  C   -0.171949
     4  C    0.152379
     5  C   -0.170809
     6  C   -0.219318
     7  H    0.232025
     8  H    0.225737
     9  H    0.275785
    10  H    0.273429
    11  H    0.227433
    12  N    0.487865
    13  O   -0.467314
    14  O   -0.457615
    15  C   -0.178539
    16  C   -0.220480
    17  C   -0.174113
    18  C    0.153017
    19  C   -0.170155
    20  C   -0.220125
    21  H    0.238071
    22  H    0.226285
    23  H    0.276006
    24  H    0.275962
    25  H    0.230804
    26  N    0.487301
    27  O   -0.461484
    28  O   -0.459573
 Sum of Mulliken charges =  -0.00000

 Dipole moment (field-independent basis, Debye):
    X=             -0.3806    Y=              0.1802    Z=             -1.1312  Tot=              1.2070
 Quadrupole moment (field-independent basis, Debye-Ang):
   XX=           -135.2868   YY=            -98.9555   ZZ=           -101.9630
   XY=            -27.0182   XZ=             -2.9132   YZ=              1.1733

 Normal termination of Gaussian 16 at Thu May  6 22:51:24 2021.
