 Gaussian 16, Revision A.03,
 Gaussian 16:  EM64L-G16RevA.03 25-Dec-2016

 -------------
 #p 6-31g* mp2
 -------------

 ------------------------------------------------------
 Input file generated by CHIRIPA (05-May-2021 14:57:26)
 ------------------------------------------------------
 Symbolic Z-matrix:
 Charge =  0 Multiplicity = 1

                         Standard orientation:
 ---------------------------------------------------------------------
 Center     Atomic      Atomic             Coordinates (Angstroms)
 Number     Number       Type             X           Y           Z
 ---------------------------------------------------------------------
      1          6           0        4.450345    1.326569   -0.880966
      2          6           0        4.177501    0.005010   -1.249151
      3          6           0        3.225703   -0.744396   -0.551283
      4          6           0        2.562478   -0.138044    0.514438
      5          6           0        2.812142    1.176529    0.905402
      6          6           0        3.767998    1.907087    0.193241
      7          1           0        5.191301    1.901404   -1.428639
      8          1           0        4.705884   -0.448415   -2.082975
      9          1           0        2.994908   -1.769380   -0.815024
     10          1           0        2.269232    1.601271    1.741023
     11          1           0        3.977841    2.933230    0.481410
     12          7           0        1.552704   -0.921430    1.260805
     13          8           0        0.982071   -0.364223    2.195972
     14          8           0        1.350996   -2.077820    0.896509
     15          6           0       -4.556004    1.576098    0.364619
     16          6           0       -4.714370    0.194032    0.510674
     17          6           0       -3.708591   -0.683698    0.095286
     18          6           0       -2.552263   -0.142575   -0.464520
     19          6           0       -2.364857    1.229624   -0.623389
     20          6           0       -3.383820    2.088580   -0.200949
     21          1           0       -5.342438    2.250649    0.690043
     22          1           0       -5.623634   -0.206791    0.949561
     23          1           0       -3.805053   -1.757873    0.196574
     24          1           0       -1.447201    1.599435   -1.064485
     25          1           0       -3.258092    3.161469   -0.315612
     26          7           0       -1.480511   -1.061850   -0.908006
     27          8           0       -0.471287   -0.560005   -1.398162
     28          8           0       -1.669990   -2.266819   -0.757055
 ---------------------------------------------------------------------

 SCF Done:  E(RHF) =  -868.337926401     A.U. after   16 cycles
 E2 =    -0.2601546092D+01 EUMP2 =    -0.87093947249277D+03

 The electronic state is 1-A.
 Alpha  occ. eigenvalues --  -20.60231 -20.60080 -20.59817 -20.59685 -15.85189
 Alpha  occ. eigenvalues --  -15.84785 -11.30611 -11.30213 -11.27238 -11.27165
 Alpha  occ. eigenvalues --  -11.26984 -11.26904 -11.26733 -11.26660 -11.26274
 Alpha  occ. eigenvalues --  -11.26223 -11.25962 -11.25845  -1.59198  -1.58813
 Alpha  occ. eigenvalues --   -1.38763  -1.38367  -1.18792  -1.18417  -1.08184
 Alpha  occ. eigenvalues --   -1.07815  -1.04222  -1.03857  -0.95016  -0.94639
 Alpha  occ. eigenvalues --   -0.85622  -0.85253  -0.81866  -0.81486  -0.76891
 Alpha  occ. eigenvalues --   -0.76503  -0.71482  -0.71066  -0.70847  -0.69935
 Alpha  occ. eigenvalues --   -0.69680  -0.69578  -0.64467  -0.64250  -0.64095
 Alpha  occ. eigenvalues --   -0.63900  -0.61582  -0.61212  -0.54744  -0.54407
 Alpha  occ. eigenvalues --   -0.52524  -0.52335  -0.52157  -0.51976  -0.48231
 Alpha  occ. eigenvalues --   -0.48172  -0.47811  -0.47749  -0.44180  -0.43717
 Alpha  occ. eigenvalues --   -0.36769  -0.36394  -0.35817  -0.35451
 Alpha virt. eigenvalues --    0.05628   0.06110   0.11833   0.12202   0.17112
 Alpha virt. eigenvalues --    0.17528   0.21872   0.22184   0.27759   0.28071
 Alpha virt. eigenvalues --    0.28769   0.29125   0.31348   0.31694   0.33008

 Mulliken charges:
               1
     1  C   -0.171639
     2  C   -0.219833
     3  C   -0.159827
     4  C    0.166555
     5  C   -0.174520
     6  C   -0.220011
     7  H    0.221417
     8  H    0.221379
     9  H    0.280563
    10  H    0.270157
    11  H    0.217827
    12  N    0.487692
    13  O   -0.473332
    14  O   -0.447759
    15  C   -0.170749
    16  C   -0.218275
    17  C   -0.167930
    18  C    0.163564
    19  C   -0.169854
    20  C   -0.218232
    21  H    0.223429
    22  H    0.222349
    23  H    0.276914
    24  H    0.271432
    25  H    0.219931
    26  N    0.491684
    27  O   -0.474827
    28  O   -0.448110
 Sum of Mulliken charges =  -0.00000

 Dipole moment (field-independent basis, Debye):
    X=             -0.3878    Y=              5.5015    Z=             -1.1526  Tot=              5.6343
 Quadrupole moment (field-independent basis, Debye-Ang):
   XX=            -67.6411   YY=           -100.6642   ZZ=           -108.6176
   XY=              0.2475   XZ=             -9.2712   YZ=              1.4911

 Normal termination of Gaussian 16 at Thu May  6 18:08:53 2021.
