 Gaussian 16, Revision A.03,
 Gaussian 16:  EM64L-G16RevA.03 25-Dec-2016

 -------------
 #p 6-31g* mp2
 -------------

 ------------------------------------------------------
 Input file generated by CHIRIPA (05-May-2021 14:55:21)
 ------------------------------------------------------
 Symbolic Z-matrix:
 Charge =  0 Multiplicity = 1

                         Standard orientation:
 ---------------------------------------------------------------------
 Center     Atomic      Atomic             Coordinates (Angstroms)
 Number     Number       Type             X           Y           Z
 ---------------------------------------------------------------------
      1          6           0        3.028652    2.188701    0.223056
      2          6           0        3.131856    1.498689   -0.989278
      3          6           0        2.695801    0.174345   -1.091826
      4          6           0        2.159249   -0.431986    0.042972
      5          6           0        2.043103    0.228933    1.264850
      6          6           0        2.485562    1.552742    1.344274
      7          1           0        3.369877    3.217276    0.293735
      8          1           0        3.553206    1.990060   -1.861668
      9          1           0        2.763943   -0.383272   -2.018021
     10          1           0        1.618653   -0.287486    2.117242
     11          1           0        2.404180    2.086158    2.287083
     12          7           0        1.694228   -1.833726   -0.053350
     13          8           0        1.225262   -2.345449    0.960971
     14          8           0        1.807514   -2.394145   -1.141345
     15          6           0       -2.535934    0.907018   -0.309693
     16          6           0       -3.298853    2.159077    0.124230
     17          6           0       -2.634295    3.451050   -0.352178
     18          1           0       -1.509493    0.957844    0.078612
     19          1           0       -2.455413    0.896551   -1.405503
     20          1           0       -3.379113    2.166474    1.218816
     21          1           0       -4.323654    2.105174   -0.264992
     22          1           0       -2.568120    3.470013   -1.444818
     23          1           0       -1.618213    3.531661    0.047421
     24          1           0       -3.196187    4.333634   -0.030959
     25          6           0       -3.187947   -0.392556    0.159044
     26          6           0       -2.425028   -1.644615   -0.274878
     27          6           0       -3.089585   -2.936588    0.201529
     28          1           0       -3.268467   -0.382089    1.254855
     29          1           0       -4.214387   -0.443382   -0.229261
     30          1           0       -1.400226   -1.590713    0.114343
     31          1           0       -2.344767   -1.652011   -1.369465
     32          1           0       -4.105667   -3.017199   -0.198069
     33          1           0       -3.155760   -2.955551    1.294170
     34          1           0       -2.527692   -3.819172   -0.119690
 ---------------------------------------------------------------------

 SCF Done:  E(RHF) =  -669.536267056     A.U. after   15 cycles
 E2 =    -0.2092163736D+01 EUMP2 =    -0.67162843079233D+03

 The electronic state is 1-A.
 Alpha  occ. eigenvalues --  -20.60943 -20.60935 -15.85958 -11.31300 -11.27871
 Alpha  occ. eigenvalues --  -11.27845 -11.27588 -11.26870 -11.26850 -11.21518
 Alpha  occ. eigenvalues --  -11.21145 -11.21139 -11.20886 -11.20721 -11.20141
 Alpha  occ. eigenvalues --   -1.59997  -1.39554  -1.19462  -1.08863  -1.08043
 Alpha  occ. eigenvalues --   -1.04858  -1.03076  -0.95705  -0.95552  -0.86578
 Alpha  occ. eigenvalues --   -0.86258  -0.82538  -0.79193  -0.77810  -0.77591
 Alpha  occ. eigenvalues --   -0.72186  -0.71317  -0.70566  -0.65117  -0.64859
 Alpha  occ. eigenvalues --   -0.64678  -0.62206  -0.60473  -0.58962  -0.57124
 Alpha  occ. eigenvalues --   -0.55359  -0.54863  -0.53185  -0.52949  -0.52231
 Alpha  occ. eigenvalues --   -0.51979  -0.49528  -0.48953  -0.48947  -0.47494
 Alpha  occ. eigenvalues --   -0.46269  -0.45489  -0.45317  -0.44673  -0.43338
 Alpha  occ. eigenvalues --   -0.37432  -0.36454
 Alpha virt. eigenvalues --    0.04920   0.11172   0.16390   0.21318   0.23118
 Alpha virt. eigenvalues --    0.24792   0.26720   0.27284   0.27635   0.28301
 Alpha virt. eigenvalues --    0.28396   0.30815   0.31763   0.32014   0.32559

 Mulliken charges:
               1
     1  C   -0.170483
     2  C   -0.218204
     3  C   -0.170288
     4  C    0.158594
     5  C   -0.172005
     6  C   -0.218839
     7  H    0.226212
     8  H    0.224007
     9  H    0.275968
    10  H    0.275826
    11  H    0.223933
    12  N    0.487773
    13  O   -0.458862
    14  O   -0.457684
    15  C   -0.298308
    16  C   -0.298893
    17  C   -0.474985
    18  H    0.146261
    19  H    0.149029
    20  H    0.150517
    21  H    0.152651
    22  H    0.154916
    23  H    0.151501
    24  H    0.159073
    25  C   -0.297919
    26  C   -0.304652
    27  C   -0.474242
    28  H    0.147676
    29  H    0.147862
    30  H    0.161156
    31  H    0.150683
    32  H    0.149443
    33  H    0.153823
    34  H    0.168459
 Sum of Mulliken charges =  -0.00000

 Dipole moment (field-independent basis, Debye):
    X=              1.8218    Y=              4.8059    Z=              0.3147  Tot=              5.1492
 Quadrupole moment (field-independent basis, Debye-Ang):
   XX=            -88.2673   YY=           -100.6188   ZZ=            -89.4441
   XY=              9.9422   XZ=             -0.1550   YZ=              0.5251

 Normal termination of Gaussian 16 at Thu May  6 17:31:33 2021.
