 Gaussian 16, Revision A.03,
 Gaussian 16:  EM64L-G16RevA.03 25-Dec-2016

 -------------
 #p 6-31g* mp2
 -------------

 ------------------------------------------------------
 Input file generated by CHIRIPA (05-May-2021 14:57:23)
 ------------------------------------------------------
 Symbolic Z-matrix:
 Charge =  0 Multiplicity = 1

                         Standard orientation:
 ---------------------------------------------------------------------
 Center     Atomic      Atomic             Coordinates (Angstroms)
 Number     Number       Type             X           Y           Z
 ---------------------------------------------------------------------
      1          6           0       -5.827962    0.083154    0.238654
      2          6           0       -4.965062    1.178093    0.352815
      3          6           0       -3.589555    1.021423    0.157921
      4          6           0       -3.108915   -0.250064   -0.151266
      5          6           0       -3.943087   -1.360421   -0.271904
      6          6           0       -5.315125   -1.180381   -0.072793
      7          1           0       -6.895142    0.213936    0.391691
      8          1           0       -5.360534    2.160535    0.594586
      9          1           0       -2.898976    1.851932    0.240216
     10          1           0       -3.519319   -2.327493   -0.514000
     11          1           0       -5.982901   -2.032523   -0.162090
     12          7           0       -1.654564   -0.428294   -0.359824
     13          8           0       -1.256060   -1.558839   -0.631300
     14          8           0       -0.940685    0.565930   -0.247867
     15          6           0        2.191775    2.460159    0.005407
     16          6           0        3.017338    2.045682   -1.044914
     17          6           0        3.663323    0.806874   -0.993856
     18          6           0        3.460448    0.004186    0.127671
     19          6           0        2.644099    0.389098    1.190076
     20          6           0        2.008114    1.632005    1.117590
     21          1           0        1.693843    3.424087   -0.042579
     22          1           0        3.161811    2.686765   -1.909892
     23          1           0        4.307898    0.461257   -1.792911
     24          1           0        2.519464   -0.271817    2.039238
     25          1           0        1.367541    1.951300    1.934757
     26          7           0        4.139030   -1.309454    0.193066
     27          8           0        3.943932   -1.998176    1.192185
     28          8           0        4.853152   -1.625490   -0.756033
 ---------------------------------------------------------------------

 SCF Done:  E(RHF) =  -868.337388370     A.U. after   16 cycles
 E2 =    -0.2600107887D+01 EUMP2 =    -0.87093749625718D+03

 The electronic state is 1-A.
 Alpha  occ. eigenvalues --  -20.61167 -20.61117 -20.59579 -20.59569 -15.86188
 Alpha  occ. eigenvalues --  -15.84624 -11.31550 -11.29787 -11.28160 -11.28079
 Alpha  occ. eigenvalues --  -11.27840 -11.27145 -11.27092 -11.26377 -11.26321
 Alpha  occ. eigenvalues --  -11.26106 -11.25409 -11.25345  -1.60218  -1.58649
 Alpha  occ. eigenvalues --   -1.39775  -1.38212  -1.19719  -1.17933  -1.09111
 Alpha  occ. eigenvalues --   -1.07388  -1.05121  -1.03344  -0.95949  -0.94266
 Alpha  occ. eigenvalues --   -0.86519  -0.84779  -0.82784  -0.81128  -0.77840
 Alpha  occ. eigenvalues --   -0.76188  -0.72414  -0.71544  -0.70865  -0.70823
 Alpha  occ. eigenvalues --   -0.69951  -0.69136  -0.65372  -0.65121  -0.63638
 Alpha  occ. eigenvalues --   -0.63422  -0.62473  -0.60747  -0.55613  -0.53924
 Alpha  occ. eigenvalues --   -0.53449  -0.53214  -0.51646  -0.51506  -0.49165
 Alpha  occ. eigenvalues --   -0.49111  -0.47619  -0.47601  -0.45184  -0.43666
 Alpha  occ. eigenvalues --   -0.37694  -0.36725  -0.35860  -0.34848
 Alpha virt. eigenvalues --    0.04681   0.06384   0.10929   0.12764   0.16185
 Alpha virt. eigenvalues --    0.17941   0.21071   0.22586   0.26968   0.27923
 Alpha virt. eigenvalues --    0.28495   0.29463   0.30650   0.32046   0.32188

 Mulliken charges:
               1
     1  C   -0.170664
     2  C   -0.218228
     3  C   -0.171462
     4  C    0.158331
     5  C   -0.170497
     6  C   -0.218320
     7  H    0.226683
     8  H    0.223064
     9  H    0.270640
    10  H    0.277914
    11  H    0.225229
    12  N    0.489419
    13  O   -0.455115
    14  O   -0.466330
    15  C   -0.163237
    16  C   -0.217284
    17  C   -0.170701
    18  C    0.161348
    19  C   -0.165760
    20  C   -0.199334
    21  H    0.217927
    22  H    0.217206
    23  H    0.271002
    24  H    0.270971
    25  H    0.216042
    26  N    0.488828
    27  O   -0.463130
    28  O   -0.464543
 Sum of Mulliken charges =  -0.00000

 Dipole moment (field-independent basis, Debye):
    X=             -7.8540    Y=              5.1429    Z=              0.5015  Tot=              9.4013
 Quadrupole moment (field-independent basis, Debye-Ang):
   XX=            -90.5404   YY=           -101.1633   ZZ=           -102.1944
   XY=             16.7821   XZ=             -4.5807   YZ=              0.5305

 Normal termination of Gaussian 16 at Fri May  7 00:18:18 2021.
