 Gaussian 16, Revision A.03,
 Gaussian 16:  EM64L-G16RevA.03 25-Dec-2016

 -------------
 #p 6-31g* mp2
 -------------

 ------------------------------------------------------
 Input file generated by CHIRIPA (05-May-2021 14:55:22)
 ------------------------------------------------------
 Symbolic Z-matrix:
 Charge =  0 Multiplicity = 1

                         Standard orientation:
 ---------------------------------------------------------------------
 Center     Atomic      Atomic             Coordinates (Angstroms)
 Number     Number       Type             X           Y           Z
 ---------------------------------------------------------------------
      1          6           0        2.294194    2.039552   -0.568737
      2          6           0        3.688721    2.079488   -0.467642
      3          6           0        4.416751    0.910908   -0.224867
      4          6           0        3.714850   -0.285689   -0.087820
      5          6           0        2.325982   -0.357901   -0.183324
      6          6           0        1.618466    0.823129   -0.426506
      7          1           0        1.736610    2.952168   -0.757489
      8          1           0        4.216150    3.022758   -0.577669
      9          1           0        5.496818    0.913217   -0.141997
     10          1           0        1.828143   -1.313164   -0.069100
     11          1           0        0.535508    0.789115   -0.504535
     12          7           0        4.474724   -1.529403    0.169410
     13          8           0        3.832770   -2.570971    0.286313
     14          8           0        5.697880   -1.439107    0.249254
     15          6           0       -4.962593   -0.547849    0.011482
     16          6           0       -6.448923   -0.348299   -0.286823
     17          6           0       -7.171251   -1.660098   -0.595403
     18          1           0       -4.485109   -1.037565   -0.848245
     19          1           0       -4.855520   -1.235319    0.861962
     20          1           0       -6.553190    0.339676   -1.135608
     21          1           0       -6.922886    0.141172    0.573638
     22          1           0       -7.096869   -2.349389    0.251914
     23          1           0       -6.725073   -2.149758   -1.467043
     24          1           0       -8.232448   -1.494233   -0.805668
     25          6           0       -4.226818    0.754466    0.321868
     26          6           0       -2.740489    0.554916    0.620174
     27          6           0       -2.018160    1.866715    0.928753
     28          1           0       -4.333891    1.441936   -0.528612
     29          1           0       -4.704302    1.244182    1.181596
     30          1           0       -2.266526    0.065444   -0.240287
     31          1           0       -2.636221   -0.133059    1.468959
     32          1           0       -2.464338    2.356375    1.800394
     33          1           0       -2.092542    2.556006    0.081436
     34          1           0       -0.956964    1.700849    1.139018
 ---------------------------------------------------------------------

 SCF Done:  E(RHF) =  -669.535480922     A.U. after   15 cycles
 E2 =    -0.2091258193D+01 EUMP2 =    -0.67162673911486D+03

 The electronic state is 1-A.
 Alpha  occ. eigenvalues --  -20.60740 -20.60735 -15.85793 -11.31156 -11.27731
 Alpha  occ. eigenvalues --  -11.27718 -11.27463 -11.26739 -11.26685 -11.22532
 Alpha  occ. eigenvalues --  -11.22102 -11.22072 -11.22017 -11.21886 -11.21391
 Alpha  occ. eigenvalues --   -1.59815  -1.39369  -1.19329  -1.09076  -1.08722
 Alpha  occ. eigenvalues --   -1.04734  -1.04201  -0.96651  -0.95557  -0.87671
 Alpha  occ. eigenvalues --   -0.86125  -0.82389  -0.80278  -0.78845  -0.77441
 Alpha  occ. eigenvalues --   -0.72011  -0.71139  -0.70432  -0.65716  -0.64978
 Alpha  occ. eigenvalues --   -0.64773  -0.62158  -0.61566  -0.60009  -0.58241
 Alpha  occ. eigenvalues --   -0.55925  -0.55220  -0.53447  -0.53147  -0.53021
 Alpha  occ. eigenvalues --   -0.52643  -0.50581  -0.48770  -0.48766  -0.48582
 Alpha  occ. eigenvalues --   -0.47311  -0.46395  -0.46290  -0.44775  -0.44438
 Alpha  occ. eigenvalues --   -0.37304  -0.36327
 Alpha virt. eigenvalues --    0.05097   0.11201   0.16571   0.19802   0.22598
 Alpha virt. eigenvalues --    0.23792   0.25741   0.26445   0.26836   0.28140
 Alpha virt. eigenvalues --    0.29146   0.30041   0.30750   0.31160   0.31850

 Mulliken charges:
               1
     1  C   -0.172793
     2  C   -0.218446
     3  C   -0.170976
     4  C    0.158676
     5  C   -0.172826
     6  C   -0.224739
     7  H    0.226412
     8  H    0.223313
     9  H    0.275520
    10  H    0.275859
    11  H    0.233958
    12  N    0.488092
    13  O   -0.460436
    14  O   -0.460580
    15  C   -0.299059
    16  C   -0.300175
    17  C   -0.476128
    18  H    0.149954
    19  H    0.151419
    20  H    0.152065
    21  H    0.152761
    22  H    0.156298
    23  H    0.155816
    24  H    0.161510
    25  C   -0.298290
    26  C   -0.302649
    27  C   -0.483995
    28  H    0.149782
    29  H    0.152221
    30  H    0.146843
    31  H    0.157055
    32  H    0.162246
    33  H    0.152935
    34  H    0.158359
 Sum of Mulliken charges =  -0.00000

 Dipole moment (field-independent basis, Debye):
    X=             -2.8705    Y=              4.3756    Z=             -0.8618  Tot=              5.3037
 Quadrupole moment (field-independent basis, Debye-Ang):
   XX=           -110.6791   YY=            -97.1057   ZZ=            -94.4661
   XY=             19.2857   XZ=             -3.8025   YZ=             -0.4876

 Normal termination of Gaussian 16 at Wed May  5 15:58:34 2021.
