 Gaussian 16, Revision A.03,
 Gaussian 16:  EM64L-G16RevA.03 25-Dec-2016

 -------------
 #p 6-31g* mp2
 -------------

 ------------------------------------------------------
 Input file generated by CHIRIPA (05-May-2021 14:53:17)
 ------------------------------------------------------
 Symbolic Z-matrix:
 Charge =  0 Multiplicity = 1

                         Standard orientation:
 ---------------------------------------------------------------------
 Center     Atomic      Atomic             Coordinates (Angstroms)
 Number     Number       Type             X           Y           Z
 ---------------------------------------------------------------------
      1          6           0        3.168089   -0.107766   -0.312473
      2          6           0        2.250842   -1.261200    0.095243
      3          6           0        0.833294   -1.113265   -0.458349
      4          1           0        2.733510    0.838907    0.036665
      5          1           0        3.206010   -0.048672   -1.409043
      6          1           0        2.215756   -1.318972    1.190710
      7          1           0        2.687752   -2.205255   -0.254739
      8          1           0        0.848736   -1.078062   -1.552481
      9          1           0        0.374059   -0.186743   -0.098819
     10          1           0        0.194542   -1.948547   -0.154770
     11          6           0        4.588639   -0.241406    0.233334
     12          6           0        5.505886    0.912029   -0.174382
     13          6           0        6.923435    0.764093    0.379211
     14          1           0        4.550718   -0.300500    1.329904
     15          1           0        5.023218   -1.188078   -0.115804
     16          1           0        5.068977    1.856083    0.175600
     17          1           0        5.540973    0.969800   -1.269849
     18          1           0        7.382670   -0.162429    0.019680
     19          1           0        6.907992    0.728890    1.473342
     20          1           0        7.562186    1.599375    0.075631
     21          6           0       -2.796421   -2.375063    0.093799
     22          6           0       -2.688225   -1.692209   -1.122148
     23          6           0       -2.815918   -0.300786   -1.168867
     24          6           0       -3.052551    0.379194    0.024835
     25          6           0       -3.165330   -0.272665    1.251884
     26          6           0       -3.034209   -1.664364    1.274852
     27          1           0       -2.695894   -3.456062    0.120866
     28          1           0       -2.503582   -2.241547   -2.040940
     29          1           0       -2.736552    0.252992   -2.096471
     30          1           0       -3.349666    0.302335    2.151224
     31          1           0       -3.118697   -2.192043    2.220611
     32          7           0       -3.189548    1.852378   -0.012053
     33          8           0       -3.397791    2.428314    1.053577
     34          8           0       -3.086091    2.403229   -1.105899
 ---------------------------------------------------------------------

 SCF Done:  E(RHF) =  -669.534724711     A.U. after   15 cycles
 E2 =    -0.2092791931D+01 EUMP2 =    -0.67162751664247D+03

 The electronic state is 1-A.
 Alpha  occ. eigenvalues --  -20.60781 -20.60776 -15.85834 -11.31201 -11.27765
 Alpha  occ. eigenvalues --  -11.27743 -11.27491 -11.26787 -11.26756 -11.21700
 Alpha  occ. eigenvalues --  -11.21585 -11.21433 -11.21373 -11.21142 -11.21063
 Alpha  occ. eigenvalues --   -1.59858  -1.39410  -1.19371  -1.08774  -1.08467
 Alpha  occ. eigenvalues --   -1.04770  -1.03576  -0.96026  -0.95605  -0.87049
 Alpha  occ. eigenvalues --   -0.86171  -0.82433  -0.79648  -0.78279  -0.77478
 Alpha  occ. eigenvalues --   -0.72052  -0.71182  -0.70484  -0.65100  -0.65025
 Alpha  occ. eigenvalues --   -0.64776  -0.62117  -0.60979  -0.59436  -0.57646
 Alpha  occ. eigenvalues --   -0.55332  -0.55280  -0.53551  -0.52865  -0.52468
 Alpha  occ. eigenvalues --   -0.52244  -0.49953  -0.48811  -0.48807  -0.47969
 Alpha  occ. eigenvalues --   -0.46675  -0.45820  -0.45745  -0.44815  -0.43835
 Alpha  occ. eigenvalues --   -0.37287  -0.36319
 Alpha virt. eigenvalues --    0.05023   0.11285   0.16465   0.21309   0.22832
 Alpha virt. eigenvalues --    0.24252   0.26568   0.27066   0.27494   0.27998
 Alpha virt. eigenvalues --    0.28293   0.30752   0.31387   0.31844   0.31993

 Mulliken charges:
               1
     1  C   -0.298744
     2  C   -0.300679
     3  C   -0.474667
     4  H    0.152518
     5  H    0.149231
     6  H    0.150928
     7  H    0.149173
     8  H    0.149911
     9  H    0.158240
    10  H    0.157831
    11  C   -0.298144
    12  C   -0.299878
    13  C   -0.475729
    14  H    0.149292
    15  H    0.148453
    16  H    0.153624
    17  H    0.151983
    18  H    0.154452
    19  H    0.155131
    20  H    0.160815
    21  C   -0.172935
    22  C   -0.212651
    23  C   -0.169075
    24  C    0.158901
    25  C   -0.171615
    26  C   -0.217041
    27  H    0.225560
    28  H    0.223681
    29  H    0.275643
    30  H    0.275510
    31  H    0.223445
    32  N    0.487632
    33  O   -0.460615
    34  O   -0.460178
 Sum of Mulliken charges =  -0.00000

 Dipole moment (field-independent basis, Debye):
    X=              0.4007    Y=             -5.1647    Z=              0.1229  Tot=              5.1817
 Quadrupole moment (field-independent basis, Debye-Ang):
   XX=            -99.5530   YY=            -99.1753   ZZ=            -89.2673
   XY=             16.2618   XZ=             -1.7118   YZ=              0.4177

 Normal termination of Gaussian 16 at Thu May  6 20:30:49 2021.
