 Gaussian 16, Revision A.03,
 Gaussian 16:  EM64L-G16RevA.03 25-Dec-2016

 -------------
 #p 6-31g* mp2
 -------------

 ------------------------------------------------------
 Input file generated by CHIRIPA (05-May-2021 14:57:22)
 ------------------------------------------------------
 Symbolic Z-matrix:
 Charge =  0 Multiplicity = 1

                         Standard orientation:
 ---------------------------------------------------------------------
 Center     Atomic      Atomic             Coordinates (Angstroms)
 Number     Number       Type             X           Y           Z
 ---------------------------------------------------------------------
      1          6           0       -2.550588    2.274606    0.906963
      2          6           0       -1.703147    1.523186    0.086151
      3          6           0       -2.155749    0.342468   -0.510173
      4          6           0       -3.467574   -0.059181   -0.263023
      5          6           0       -4.335985    0.667688    0.549882
      6          6           0       -3.861991    1.845215    1.135806
      7          1           0       -2.190687    3.190577    1.366163
      8          1           0       -0.684210    1.854237   -0.093342
      9          1           0       -1.520939   -0.258483   -1.149934
     10          1           0       -5.346603    0.312182    0.710147
     11          1           0       -4.522352    2.426762    1.772807
     12          7           0       -3.958047   -1.307466   -0.888819
     13          8           0       -5.118080   -1.639791   -0.655323
     14          8           0       -3.173159   -1.929910   -1.600965
     15          6           0        2.095909   -1.296991    1.997321
     16          6           0        1.532788   -0.209563    1.321363
     17          6           0        2.238888    0.435490    0.301619
     18          6           0        3.511530   -0.035332   -0.017753
     19          6           0        4.099641   -1.116235    0.637276
     20          6           0        3.375283   -1.746064    1.653726
     21          1           0        1.540302   -1.792169    2.788203
     22          1           0        0.539397    0.141357    1.586080
     23          1           0        1.826814    1.279567   -0.237959
     24          1           0        5.091878   -1.443247    0.351017
     25          1           0        3.815112   -2.590340    2.176978
     26          7           0        4.268711    0.639499   -1.095566
     27          8           0        5.388241    0.205453   -1.358043
     28          8           0        3.728323    1.589699   -1.657471
 ---------------------------------------------------------------------

 SCF Done:  E(RHF) =  -868.337023298     A.U. after   16 cycles
 E2 =    -0.2600920076D+01 EUMP2 =    -0.87093794337433D+03

 The electronic state is 1-A.
 Alpha  occ. eigenvalues --  -20.61275 -20.61269 -20.61187 -20.61170 -15.86337
 Alpha  occ. eigenvalues --  -15.86235 -11.31845 -11.31659 -11.28484 -11.28441
 Alpha  occ. eigenvalues --  -11.28325 -11.28244 -11.28153 -11.27884 -11.27573
 Alpha  occ. eigenvalues --  -11.27437 -11.27207 -11.27162  -1.60350  -1.60253
 Alpha  occ. eigenvalues --   -1.39898  -1.39808  -1.20066  -1.19806  -1.09425
 Alpha  occ. eigenvalues --   -1.09172  -1.05519  -1.05217  -0.96222  -0.96016
 Alpha  occ. eigenvalues --   -0.86882  -0.86611  -0.83100  -0.82827  -0.78151
 Alpha  occ. eigenvalues --   -0.77851  -0.72548  -0.72452  -0.71680  -0.71575
 Alpha  occ. eigenvalues --   -0.71134  -0.70915  -0.65713  -0.65604  -0.65393
 Alpha  occ. eigenvalues --   -0.65223  -0.63013  -0.62384  -0.55966  -0.55675
 Alpha  occ. eigenvalues --   -0.53893  -0.53565  -0.53527  -0.53238  -0.49323
 Alpha  occ. eigenvalues --   -0.49294  -0.49217  -0.49200  -0.45271  -0.45203
 Alpha  occ. eigenvalues --   -0.38049  -0.37748  -0.37153  -0.36777
 Alpha virt. eigenvalues --    0.04434   0.04651   0.10434   0.10840   0.15751
 Alpha virt. eigenvalues --    0.16166   0.18864   0.21923   0.24505   0.27553
 Alpha virt. eigenvalues --    0.27752   0.28815   0.30233   0.31072   0.31729

 Mulliken charges:
               1
     1  C   -0.172777
     2  C   -0.229511
     3  C   -0.172716
     4  C    0.158321
     5  C   -0.169359
     6  C   -0.218923
     7  H    0.229111
     8  H    0.224730
     9  H    0.280171
    10  H    0.278060
    11  H    0.226209
    12  N    0.487916
    13  O   -0.458940
    14  O   -0.458106
    15  C   -0.170330
    16  C   -0.222477
    17  C   -0.181232
    18  C    0.161900
    19  C   -0.170031
    20  C   -0.217403
    21  H    0.228714
    22  H    0.226092
    23  H    0.268611
    24  H    0.277496
    25  H    0.226096
    26  N    0.488572
    27  O   -0.457580
    28  O   -0.462615
 Sum of Mulliken charges =  -0.00000

 Dipole moment (field-independent basis, Debye):
    X=             -1.0467    Y=              1.8695    Z=              6.0404  Tot=              6.4091
 Quadrupole moment (field-independent basis, Debye-Ang):
   XX=           -127.5997   YY=           -103.9218   ZZ=           -106.2435
   XY=            -27.7736   XZ=              3.7866   YZ=             -1.6342

 Normal termination of Gaussian 16 at Wed May  5 20:57:49 2021.
