 Gaussian 16, Revision A.03,
 Gaussian 16:  EM64L-G16RevA.03 25-Dec-2016

 -------------
 #p 6-31g* mp2
 -------------

 ------------------------------------------------------
 Input file generated by CHIRIPA (05-May-2021 14:55:19)
 ------------------------------------------------------
 Symbolic Z-matrix:
 Charge =  0 Multiplicity = 1

                         Standard orientation:
 ---------------------------------------------------------------------
 Center     Atomic      Atomic             Coordinates (Angstroms)
 Number     Number       Type             X           Y           Z
 ---------------------------------------------------------------------
      1          6           0       -2.138477   -2.156844    0.745470
      2          6           0       -1.788302   -1.123330    1.620539
      3          6           0       -2.071220    0.207103    1.297344
      4          6           0       -2.708139    0.469182    0.085346
      5          6           0       -3.069595   -0.538571   -0.807445
      6          6           0       -2.776881   -1.861686   -0.463598
      7          1           0       -1.914895   -3.187514    1.004557
      8          1           0       -1.292429   -1.349594    2.560198
      9          1           0       -1.811214    1.026595    1.956318
     10          1           0       -3.563065   -0.281839   -1.736958
     11          1           0       -3.049994   -2.662296   -1.145124
     12          7           0       -3.012837    1.873778   -0.267738
     13          8           0       -3.574673    2.078345   -1.341577
     14          8           0       -2.684054    2.743537    0.536039
     15          6           0        3.046959   -0.826193   -0.613664
     16          6           0        1.867050   -1.493430    0.093863
     17          6           0        1.166671   -2.535212   -0.779037
     18          1           0        2.691167   -0.352166   -1.538679
     19          1           0        3.768566   -1.597937   -0.915473
     20          1           0        1.148539   -0.720519    0.395474
     21          1           0        2.225657   -1.965761    1.017400
     22          1           0        1.864933   -3.326961   -1.069149
     23          1           0        0.781696   -2.074644   -1.694610
     24          1           0        0.326358   -2.999687   -0.253682
     25          6           0        3.757319    0.217714    0.246205
     26          6           0        4.937228    0.884951   -0.461321
     27          6           0        5.637607    1.926733    0.411580
     28          1           0        3.035712    0.989459    0.548014
     29          1           0        4.113111   -0.256313    1.171222
     30          1           0        4.578621    1.357282   -1.384858
     31          1           0        5.655737    0.112041   -0.762932
     32          1           0        6.022581    1.466166    1.327151
     33          1           0        4.939345    2.718481    0.701691
     34          1           0        6.477919    2.391207   -0.113776
 ---------------------------------------------------------------------

 SCF Done:  E(RHF) =  -669.534520020     A.U. after   15 cycles
 E2 =    -0.2093339918D+01 EUMP2 =    -0.67162785993816D+03

 The electronic state is 1-A.
 Alpha  occ. eigenvalues --  -20.60817 -20.60812 -15.85872 -11.31246 -11.27831
 Alpha  occ. eigenvalues --  -11.27813 -11.27563 -11.26839 -11.26818 -11.21909
 Alpha  occ. eigenvalues --  -11.21686 -11.21603 -11.21519 -11.21465 -11.21111
 Alpha  occ. eigenvalues --   -1.59893  -1.39446  -1.19433  -1.08841  -1.08618
 Alpha  occ. eigenvalues --   -1.04833  -1.03739  -0.96209  -0.95652  -0.87220
 Alpha  occ. eigenvalues --   -0.86228  -0.82489  -0.79813  -0.78436  -0.77524
 Alpha  occ. eigenvalues --   -0.72090  -0.71218  -0.70570  -0.65254  -0.65083
 Alpha  occ. eigenvalues --   -0.64829  -0.62174  -0.61139  -0.59649  -0.57855
 Alpha  occ. eigenvalues --   -0.55495  -0.55360  -0.53344  -0.52920  -0.52741
 Alpha  occ. eigenvalues --   -0.52500  -0.50129  -0.48850  -0.48844  -0.48137
 Alpha  occ. eigenvalues --   -0.46839  -0.45982  -0.45889  -0.44850  -0.44015
 Alpha  occ. eigenvalues --   -0.37314  -0.36400
 Alpha virt. eigenvalues --    0.04970   0.11188   0.16380   0.20837   0.22784
 Alpha virt. eigenvalues --    0.24264   0.26453   0.26833   0.26965   0.27664
 Alpha virt. eigenvalues --    0.28464   0.30517   0.31191   0.31781   0.32470

 Mulliken charges:
               1
     1  C   -0.169932
     2  C   -0.216015
     3  C   -0.172620
     4  C    0.158620
     5  C   -0.171426
     6  C   -0.216167
     7  H    0.226058
     8  H    0.224703
     9  H    0.275967
    10  H    0.275824
    11  H    0.224185
    12  N    0.488043
    13  O   -0.460281
    14  O   -0.460473
    15  C   -0.298410
    16  C   -0.302756
    17  C   -0.472683
    18  H    0.151903
    19  H    0.149160
    20  H    0.155868
    21  H    0.147112
    22  H    0.153863
    23  H    0.157093
    24  H    0.150868
    25  C   -0.298778
    26  C   -0.299904
    27  C   -0.476088
    28  H    0.150990
    29  H    0.148020
    30  H    0.153686
    31  H    0.151457
    32  H    0.154263
    33  H    0.156851
    34  H    0.160999
 Sum of Mulliken charges =  -0.00000

 Dipole moment (field-independent basis, Debye):
    X=              1.0208    Y=             -4.8881    Z=              1.2294  Tot=              5.1426
 Quadrupole moment (field-independent basis, Debye-Ang):
   XX=           -100.3646   YY=            -99.8621   ZZ=            -91.1273
   XY=             14.1617   XZ=             -1.4408   YZ=              0.9674

 Normal termination of Gaussian 16 at Thu May  6 06:05:34 2021.
