 Gaussian 16, Revision A.03,
 Gaussian 16:  EM64L-G16RevA.03 25-Dec-2016

 -------------
 #p 6-31g* mp2
 -------------

 ------------------------------------------------------
 Input file generated by CHIRIPA (05-May-2021 14:51:10)
 ------------------------------------------------------
 Symbolic Z-matrix:
 Charge =  0 Multiplicity = 1

                         Standard orientation:
 ---------------------------------------------------------------------
 Center     Atomic      Atomic             Coordinates (Angstroms)
 Number     Number       Type             X           Y           Z
 ---------------------------------------------------------------------
      1          6           0        1.965498   -1.246286    0.685564
      2          6           0        0.647505   -1.942186    0.344094
      3          6           0       -0.009186   -2.594502    1.561072
      4          1           0        2.655253   -1.978018    1.128004
      5          1           0        1.781174   -0.484872    1.456063
      6          1           0        0.834019   -2.701113   -0.426528
      7          1           0       -0.039124   -1.208755   -0.097760
      8          1           0       -0.223803   -1.845868    2.330543
      9          1           0        0.654302   -3.346705    1.999907
     10          1           0       -0.949926   -3.086139    1.294309
     11          6           0        2.634024   -0.589386   -0.520787
     12          6           0        3.952017    0.106514   -0.179316
     13          6           0        4.608708    0.758830   -1.396294
     14          1           0        2.818348   -1.350801   -1.291285
     15          1           0        1.944269    0.142345   -0.963226
     16          1           0        4.638647   -0.626917    0.262537
     17          1           0        3.765503    0.865440    0.591306
     18          1           0        3.945220    1.511032   -1.835129
     19          1           0        4.823325    0.010195   -2.165766
     20          1           0        5.549448    1.250466   -1.129532
     21          6           0       -2.852864    0.402331    0.026071
     22          6           0       -3.289744   -0.298163   -1.260953
     23          6           0       -4.396874   -1.326587   -1.027709
     24          1           0       -2.509078   -0.351356    0.747674
     25          1           0       -3.723234    0.895822    0.480292
     26          1           0       -2.418527   -0.789025   -1.713337
     27          1           0       -3.632350    0.457296   -1.979645
     28          1           0       -5.282953   -0.848032   -0.598231
     29          1           0       -4.062232   -2.101434   -0.330409
     30          1           0       -4.693936   -1.815296   -1.960864
     31          6           0       -1.746658    1.433342   -0.190848
     32          6           0       -1.309778    2.133836    1.096174
     33          6           0       -0.202648    3.162259    0.862932
     34          1           0       -0.876288    0.939851   -0.645070
     35          1           0       -2.090444    2.187029   -0.912452
     36          1           0       -0.967172    1.378377    1.814867
     37          1           0       -2.180995    2.624698    1.548560
     38          1           0       -0.537289    3.937107    0.165632
     39          1           0        0.683430    2.683705    0.433453
     40          1           0        0.094414    3.650968    1.796087
 ---------------------------------------------------------------------

 SCF Done:  E(RHF) =  -470.733064083     A.U. after   11 cycles
 E2 =    -0.1585077266D+01 EUMP2 =    -0.47231814134843D+03

 The electronic state is 1-A.
 Alpha  occ. eigenvalues --  -11.21676 -11.21647 -11.21644 -11.21615 -11.21474
 Alpha  occ. eigenvalues --  -11.21442 -11.21415 -11.21372 -11.21165 -11.21151
 Alpha  occ. eigenvalues --  -11.21095 -11.21082  -1.08550  -1.08428  -1.03591
 Alpha  occ. eigenvalues --   -1.03572  -0.96059  -0.96007  -0.87067  -0.87028
 Alpha  occ. eigenvalues --   -0.79667  -0.79629  -0.78386  -0.78216  -0.65592
 Alpha  occ. eigenvalues --   -0.64726  -0.60977  -0.60965  -0.59408  -0.59383
 Alpha  occ. eigenvalues --   -0.57648  -0.57632  -0.55468  -0.55178  -0.52735
 Alpha  occ. eigenvalues --   -0.52715  -0.52466  -0.52442  -0.50057  -0.49897
 Alpha  occ. eigenvalues --   -0.47977  -0.47955  -0.46831  -0.46626  -0.46189
 Alpha  occ. eigenvalues --   -0.45845  -0.45737  -0.45264  -0.43845  -0.43822
 Alpha virt. eigenvalues --    0.18307   0.21284   0.23729   0.24418   0.25203
 Alpha virt. eigenvalues --    0.26154   0.27123   0.27791   0.29293   0.29800
 Alpha virt. eigenvalues --    0.30190   0.31539   0.31794   0.32130   0.32412

 Mulliken charges:
               1
     1  C   -0.298740
     2  C   -0.309652
     3  C   -0.476333
     4  H    0.150193
     5  H    0.150185
     6  H    0.152206
     7  H    0.161906
     8  H    0.155251
     9  H    0.155824
    10  H    0.160068
    11  C   -0.301581
    12  C   -0.300178
    13  C   -0.475777
    14  H    0.150000
    15  H    0.151262
    16  H    0.152268
    17  H    0.152499
    18  H    0.155393
    19  H    0.155234
    20  H    0.160545
    21  C   -0.302475
    22  C   -0.301102
    23  C   -0.475733
    24  H    0.153949
    25  H    0.150241
    26  H    0.153175
    27  H    0.152040
    28  H    0.155240
    29  H    0.155170
    30  H    0.160369
    31  C   -0.304117
    32  C   -0.300414
    33  C   -0.477375
    34  H    0.153140
    35  H    0.150541
    36  H    0.152100
    37  H    0.152675
    38  H    0.155727
    39  H    0.155669
    40  H    0.160607
 Sum of Mulliken charges =  -0.00000

 Dipole moment (field-independent basis, Debye):
    X=              0.0010    Y=             -0.0009    Z=             -0.0015  Tot=              0.0020
 Quadrupole moment (field-independent basis, Debye-Ang):
   XX=            -84.9155   YY=            -84.3375   ZZ=            -85.3366
   XY=             -1.9262   XZ=              0.4801   YZ=              0.4705

 Normal termination of Gaussian 16 at Wed May  5 15:10:02 2021.
