 Gaussian 16, Revision A.03,
 Gaussian 16:  EM64L-G16RevA.03 25-Dec-2016

 -------------
 #p 6-31g* mp2
 -------------

 ------------------------------------------------------
 Input file generated by CHIRIPA (05-May-2021 14:51:13)
 ------------------------------------------------------
 Symbolic Z-matrix:
 Charge =  0 Multiplicity = 1

                         Standard orientation:
 ---------------------------------------------------------------------
 Center     Atomic      Atomic             Coordinates (Angstroms)
 Number     Number       Type             X           Y           Z
 ---------------------------------------------------------------------
      1          6           0       -2.680899   -0.720468    0.475641
      2          6           0       -1.930609   -0.773293    1.806904
      3          6           0       -1.207819   -2.102754    2.025770
      4          1           0       -3.406516   -1.544489    0.438034
      5          1           0       -1.970356   -0.891990   -0.344788
      6          1           0       -2.642119   -0.600348    2.624497
      7          1           0       -1.206828    0.051064    1.841426
      8          1           0       -0.476501   -2.279153    1.230373
      9          1           0       -1.919947   -2.934266    2.017894
     10          1           0       -0.678081   -2.118820    2.983361
     11          6           0       -3.408525    0.602364    0.242398
     12          6           0       -4.158814    0.655189   -1.088865
     13          6           0       -4.881604    1.984649   -1.307732
     14          1           0       -4.119068    0.773886    1.062827
     15          1           0       -2.682907    1.426385    0.280005
     16          1           0       -4.882596   -0.169168   -1.123387
     17          1           0       -3.447304    0.482243   -1.906459
     18          1           0       -4.169476    2.816162   -1.299855
     19          1           0       -5.612923    2.161049   -0.512334
     20          1           0       -5.411342    2.000716   -2.265322
     21          6           0        2.959706   -0.415626   -0.951376
     22          6           0        2.303570   -1.744293   -0.574396
     23          6           0        2.140342   -2.683227   -1.770036
     24          1           0        2.356764    0.076864   -1.726527
     25          1           0        3.943061   -0.614430   -1.399578
     26          1           0        1.322334   -1.542973   -0.125774
     27          1           0        2.908040   -2.233588    0.200085
     28          1           0        3.113864   -2.913248   -2.214946
     29          1           0        1.519147   -2.218709   -2.542656
     30          1           0        1.669295   -3.626988   -1.477989
     31          6           0        3.129717    0.533730    0.233338
     32          6           0        3.785854    1.862397   -0.143642
     33          6           0        3.949082    2.801332    1.051997
     34          1           0        2.146363    0.732534    0.681540
     35          1           0        3.732660    0.041240    1.008490
     36          1           0        3.181383    2.351692   -0.918123
     37          1           0        4.767090    1.661077   -0.592265
     38          1           0        4.570276    2.336813    1.824618
     39          1           0        2.975559    3.031352    1.496907
     40          1           0        4.420128    3.745092    0.759951
 ---------------------------------------------------------------------

 SCF Done:  E(RHF) =  -470.733323728     A.U. after   11 cycles
 E2 =    -0.1582838022D+01 EUMP2 =    -0.47231616174982D+03

 The electronic state is 1-A.
 Alpha  occ. eigenvalues --  -11.21634 -11.21633 -11.21630 -11.21629 -11.21444
 Alpha  occ. eigenvalues --  -11.21439 -11.21385 -11.21380 -11.21107 -11.21096
 Alpha  occ. eigenvalues --  -11.21094 -11.21044  -1.08476  -1.08453  -1.03581
 Alpha  occ. eigenvalues --   -1.03537  -0.96019  -0.95991  -0.87039  -0.87004
 Alpha  occ. eigenvalues --   -0.79678  -0.79569  -0.78303  -0.78253  -0.65194
 Alpha  occ. eigenvalues --   -0.65011  -0.61103  -0.60832  -0.59396  -0.59351
 Alpha  occ. eigenvalues --   -0.57669  -0.57565  -0.55348  -0.55246  -0.52707
 Alpha  occ. eigenvalues --   -0.52686  -0.52447  -0.52414  -0.50052  -0.49873
 Alpha  occ. eigenvalues --   -0.48046  -0.47851  -0.46818  -0.46492  -0.45911
 Alpha  occ. eigenvalues --   -0.45794  -0.45758  -0.45568  -0.43818  -0.43807
 Alpha virt. eigenvalues --    0.20295   0.23371   0.23537   0.24489   0.26049
 Alpha virt. eigenvalues --    0.26828   0.27008   0.27658   0.28201   0.28806
 Alpha virt. eigenvalues --    0.30553   0.31457   0.31639   0.31789   0.31984

 Mulliken charges:
               1
     1  C   -0.298818
     2  C   -0.299851
     3  C   -0.481871
     4  H    0.150060
     5  H    0.149079
     6  H    0.152283
     7  H    0.151316
     8  H    0.161644
     9  H    0.155137
    10  H    0.160553
    11  C   -0.298237
    12  C   -0.299645
    13  C   -0.475719
    14  H    0.149771
    15  H    0.149294
    16  H    0.152115
    17  H    0.151779
    18  H    0.155104
    19  H    0.155286
    20  H    0.160360
    21  C   -0.297649
    22  C   -0.307051
    23  C   -0.475829
    24  H    0.149251
    25  H    0.149825
    26  H    0.157996
    27  H    0.152563
    28  H    0.155593
    29  H    0.154863
    30  H    0.160774
    31  C   -0.298493
    32  C   -0.299694
    33  C   -0.475707
    34  H    0.149166
    35  H    0.150030
    36  H    0.151808
    37  H    0.152119
    38  H    0.155335
    39  H    0.155092
    40  H    0.160369
 Sum of Mulliken charges =  -0.00000

 Dipole moment (field-independent basis, Debye):
    X=              0.0120    Y=             -0.0134    Z=              0.0020  Tot=              0.0181
 Quadrupole moment (field-independent basis, Debye-Ang):
   XX=            -83.4761   YY=            -85.8981   ZZ=            -85.2406
   XY=              0.2990   XZ=             -0.5130   YZ=             -0.5831

 Normal termination of Gaussian 16 at Wed May  5 16:53:09 2021.
