 Gaussian 16, Revision A.03,
 Gaussian 16:  EM64L-G16RevA.03 25-Dec-2016

 -------------
 #p 6-31g* mp2
 -------------

 ------------------------------------------------------
 Input file generated by CHIRIPA (05-May-2021 14:55:25)
 ------------------------------------------------------
 Symbolic Z-matrix:
 Charge =  0 Multiplicity = 1

                         Standard orientation:
 ---------------------------------------------------------------------
 Center     Atomic      Atomic             Coordinates (Angstroms)
 Number     Number       Type             X           Y           Z
 ---------------------------------------------------------------------
      1          6           0        4.526055   -1.207793    0.462303
      2          6           0        4.310504   -0.678770   -0.814487
      3          6           0        3.286067    0.246430   -1.036028
      4          6           0        2.492569    0.622118    0.046796
      5          6           0        2.682376    0.112941    1.330542
      6          6           0        3.712736   -0.810949    1.528862
      7          1           0        5.324163   -1.926002    0.625382
      8          1           0        4.940581   -0.985143   -1.644658
      9          1           0        3.097178    0.671779   -2.014199
     10          1           0        2.037880    0.437546    2.138425
     11          1           0        3.877828   -1.220140    2.521511
     12          7           0        1.404907    1.600893   -0.175448
     13          8           0        0.719683    1.915668    0.795130
     14          8           0        1.258217    2.034749   -1.316013
     15          6           0       -2.952136   -1.115590   -0.403715
     16          6           0       -1.472355   -0.817418   -0.160147
     17          6           0       -0.549021   -1.878206   -0.760128
     18          1           0       -3.196250   -2.098895    0.021094
     19          1           0       -3.130948   -1.189277   -1.485377
     20          1           0       -1.296656   -0.742944    0.920686
     21          1           0       -1.231780    0.165376   -0.585416
     22          1           0       -0.695158   -1.948273   -1.842872
     23          1           0       -0.760403   -2.861754   -0.328213
     24          1           0        0.504109   -1.645301   -0.574300
     25          6           0       -3.887744   -0.064070    0.190148
     26          6           0       -5.367526   -0.362242   -0.053421
     27          6           0       -6.290860    0.698546    0.546560
     28          1           0       -3.708933    0.009618    1.271809
     29          1           0       -3.643630    0.919235   -0.234662
     30          1           0       -5.608101   -1.345037    0.371848
     31          1           0       -5.543224   -0.436716   -1.134254
     32          1           0       -6.079478    1.682095    0.114645
     33          1           0       -6.144724    0.768613    1.629305
     34          1           0       -7.343991    0.465641    0.360731
 ---------------------------------------------------------------------

 SCF Done:  E(RHF) =  -669.535639252     A.U. after   15 cycles
 E2 =    -0.2093315579D+01 EUMP2 =    -0.67162895483143D+03

 The electronic state is 1-A.
 Alpha  occ. eigenvalues --  -20.60887 -20.60874 -15.85899 -11.31254 -11.27823
 Alpha  occ. eigenvalues --  -11.27820 -11.27564 -11.26839 -11.26829 -11.21019
 Alpha  occ. eigenvalues --  -11.20816 -11.20732 -11.20632 -11.20627 -11.20527
 Alpha  occ. eigenvalues --   -1.59943  -1.39494  -1.19439  -1.08832  -1.07767
 Alpha  occ. eigenvalues --   -1.04831  -1.02939  -0.95669  -0.95420  -0.86430
 Alpha  occ. eigenvalues --   -0.86228  -0.82501  -0.78984  -0.77584  -0.77530
 Alpha  occ. eigenvalues --   -0.72129  -0.71275  -0.70534  -0.65085  -0.64831
 Alpha  occ. eigenvalues --   -0.64392  -0.62175  -0.60327  -0.58799  -0.57041
 Alpha  occ. eigenvalues --   -0.55330  -0.54704  -0.53278  -0.52919  -0.52051
 Alpha  occ. eigenvalues --   -0.51797  -0.49353  -0.48903  -0.48891  -0.47311
 Alpha  occ. eigenvalues --   -0.45982  -0.45233  -0.45007  -0.44734  -0.43177
 Alpha  occ. eigenvalues --   -0.37379  -0.36432
 Alpha virt. eigenvalues --    0.04949   0.11201   0.16431   0.21344   0.23472
 Alpha virt. eigenvalues --    0.24641   0.27123   0.27437   0.27865   0.28270
 Alpha virt. eigenvalues --    0.28572   0.30895   0.31786   0.31829   0.32296

 Mulliken charges:
               1
     1  C   -0.170740
     2  C   -0.217804
     3  C   -0.171822
     4  C    0.159735
     5  C   -0.171919
     6  C   -0.217791
     7  H    0.226038
     8  H    0.223951
     9  H    0.276021
    10  H    0.276012
    11  H    0.223852
    12  N    0.488973
    13  O   -0.458141
    14  O   -0.460785
    15  C   -0.297885
    16  C   -0.306820
    17  C   -0.480185
    18  H    0.145176
    19  H    0.148367
    20  H    0.151472
    21  H    0.168830
    22  H    0.154887
    23  H    0.151465
    24  H    0.156661
    25  C   -0.298563
    26  C   -0.299357
    27  C   -0.475385
    28  H    0.149330
    29  H    0.156999
    30  H    0.149129
    31  H    0.150928
    32  H    0.156951
    33  H    0.154553
    34  H    0.157869
 Sum of Mulliken charges =  -0.00000

 Dipole moment (field-independent basis, Debye):
    X=              3.9602    Y=             -3.2668    Z=              0.7971  Tot=              5.1952
 Quadrupole moment (field-independent basis, Debye-Ang):
   XX=            -76.9039   YY=           -100.3023   ZZ=            -89.3958
   XY=             -6.1752   XZ=              1.1026   YZ=             -0.8057

 Normal termination of Gaussian 16 at Thu May  6 19:22:39 2021.
