 Gaussian 16, Revision A.03,
 Gaussian 16:  EM64L-G16RevA.03 25-Dec-2016

 -------------
 #p 6-31g* mp2
 -------------

 ------------------------------------------------------
 Input file generated by CHIRIPA (05-May-2021 14:53:16)
 ------------------------------------------------------
 Symbolic Z-matrix:
 Charge =  0 Multiplicity = 1

                         Standard orientation:
 ---------------------------------------------------------------------
 Center     Atomic      Atomic             Coordinates (Angstroms)
 Number     Number       Type             X           Y           Z
 ---------------------------------------------------------------------
      1          6           0        3.454263   -0.612189    0.235638
      2          6           0        4.157796    0.435294   -0.627963
      3          6           0        5.489194    0.894646   -0.032842
      4          1           0        3.285490   -0.197644    1.238939
      5          1           0        4.118326   -1.478332    0.362958
      6          1           0        3.492059    1.298621   -0.754764
      7          1           0        4.324742    0.018276   -1.629382
      8          1           0        6.174193    0.047840    0.078052
      9          1           0        5.336779    1.335460    0.957639
     10          1           0        5.975066    1.643343   -0.666278
     11          6           0        2.121893   -1.081287   -0.346140
     12          6           0        1.418360   -2.128770    0.517461
     13          6           0        0.086961   -2.588122   -0.077660
     14          1           0        1.457829   -0.215144   -0.473460
     15          1           0        2.290666   -1.495832   -1.349441
     16          1           0        1.251414   -1.711751    1.518880
     17          1           0        2.084096   -2.992097    0.644262
     18          1           0        0.239376   -3.028936   -1.068141
     19          1           0       -0.598037   -1.741316   -0.188554
     20          1           0       -0.398911   -3.336819    0.555776
     21          6           0       -3.554136   -1.430536   -0.266692
     22          6           0       -3.296834   -0.593943   -1.357760
     23          6           0       -2.535674    0.567770   -1.197736
     24          6           0       -2.045164    0.863765    0.073121
     25          6           0       -2.284326    0.050338    1.179658
     26          6           0       -3.047953   -1.106297    0.996309
     27          1           0       -4.146381   -2.331010   -0.400062
     28          1           0       -3.688665   -0.843248   -2.339778
     29          1           0       -2.321309    1.233159   -2.025215
     30          1           0       -1.880269    0.325222    2.146403
     31          1           0       -3.246186   -1.754149    1.845448
     32          7           0       -1.238052    2.090931    0.254878
     33          8           0       -0.817277    2.329447    1.384788
     34          8           0       -1.041496    2.791031   -0.736012
 ---------------------------------------------------------------------

 SCF Done:  E(RHF) =  -669.533732613     A.U. after   15 cycles
 E2 =    -0.2094855330D+01 EUMP2 =    -0.67162858794251D+03

 The electronic state is 1-A.
 Alpha  occ. eigenvalues --  -20.60894 -20.60888 -15.85950 -11.31321 -11.27884
 Alpha  occ. eigenvalues --  -11.27821 -11.27561 -11.26887 -11.26818 -11.21485
 Alpha  occ. eigenvalues --  -11.21155 -11.21119 -11.20997 -11.20919 -11.20617
 Alpha  occ. eigenvalues --   -1.59973  -1.39523  -1.19503  -1.08872  -1.08135
 Alpha  occ. eigenvalues --   -1.04879  -1.03246  -0.95723  -0.95691  -0.86737
 Alpha  occ. eigenvalues --   -0.86261  -0.82528  -0.79330  -0.77938  -0.77587
 Alpha  occ. eigenvalues --   -0.72159  -0.71306  -0.70560  -0.65116  -0.64861
 Alpha  occ. eigenvalues --   -0.64773  -0.62212  -0.60708  -0.59100  -0.57350
 Alpha  occ. eigenvalues --   -0.55352  -0.55332  -0.53303  -0.52949  -0.52387
 Alpha  occ. eigenvalues --   -0.51923  -0.49478  -0.48921  -0.48916  -0.47587
 Alpha  occ. eigenvalues --   -0.46282  -0.45471  -0.45369  -0.44923  -0.43515
 Alpha  occ. eigenvalues --   -0.37453  -0.36438
 Alpha virt. eigenvalues --    0.04926   0.11144   0.16409   0.21262   0.23055
 Alpha virt. eigenvalues --    0.24588   0.26737   0.27088   0.27746   0.28190
 Alpha virt. eigenvalues --    0.28492   0.30768   0.31707   0.31816   0.32247

 Mulliken charges:
               1
     1  C   -0.298336
     2  C   -0.301263
     3  C   -0.475804
     4  H    0.152907
     5  H    0.147100
     6  H    0.159722
     7  H    0.149384
     8  H    0.152574
     9  H    0.157081
    10  H    0.160353
    11  C   -0.297685
    12  C   -0.299368
    13  C   -0.480257
    14  H    0.149855
    15  H    0.148048
    16  H    0.150070
    17  H    0.150579
    18  H    0.151315
    19  H    0.168370
    20  H    0.150650
    21  C   -0.169689
    22  C   -0.216610
    23  C   -0.172659
    24  C    0.159635
    25  C   -0.176198
    26  C   -0.214607
    27  H    0.226426
    28  H    0.224441
    29  H    0.276419
    30  H    0.275765
    31  H    0.224067
    32  N    0.488194
    33  O   -0.460427
    34  O   -0.460051
 Sum of Mulliken charges =  -0.00000

 Dipole moment (field-independent basis, Debye):
    X=             -2.9716    Y=             -4.1842    Z=             -0.6520  Tot=              5.1733
 Quadrupole moment (field-independent basis, Debye-Ang):
   XX=            -84.3958   YY=           -102.7790   ZZ=            -89.9915
   XY=              6.0705   XZ=              1.3009   YZ=             -1.8167

 Normal termination of Gaussian 16 at Thu May  6 09:05:57 2021.
