 Gaussian 16, Revision A.03,
 Gaussian 16:  EM64L-G16RevA.03 25-Dec-2016

 -------------
 #p 6-31g* mp2
 -------------

 ------------------------------------------------------
 Input file generated by CHIRIPA (05-May-2021 14:57:23)
 ------------------------------------------------------
 Symbolic Z-matrix:
 Charge =  0 Multiplicity = 1

                         Standard orientation:
 ---------------------------------------------------------------------
 Center     Atomic      Atomic             Coordinates (Angstroms)
 Number     Number       Type             X           Y           Z
 ---------------------------------------------------------------------
      1          6           0        6.021309    0.306392    0.652199
      2          6           0        5.342491   -0.913897    0.733565
      3          6           0        3.993947   -1.001468    0.375360
      4          6           0        3.352268    0.156256   -0.061919
      5          6           0        4.001220    1.386579   -0.153882
      6          6           0        5.349691    1.450718    0.209516
      7          1           0        7.068863    0.365317    0.932478
      8          1           0        5.861537   -1.804224    1.077009
      9          1           0        3.444276   -1.933364    0.428737
     10          1           0        3.457037    2.256945   -0.499925
     11          1           0        5.874340    2.399753    0.145318
     12          7           0        1.924663    0.075952   -0.443883
     13          8           0        1.381944    1.110392   -0.826018
     14          8           0        1.375457   -1.019910   -0.353898
     15          6           0       -5.482322    1.205137    0.940335
     16          6           0       -4.841094    0.255118    1.742090
     17          6           0       -3.790087   -0.512177    1.231024
     18          6           0       -3.404375   -0.302385   -0.092042
     19          6           0       -4.023467    0.636380   -0.915895
     20          6           0       -5.072185    1.392406   -0.383764
     21          1           0       -6.297881    1.796814    1.345525
     22          1           0       -5.157491    0.107536    2.770757
     23          1           0       -3.276218   -1.254501    1.829616
     24          1           0       -3.685732    0.760875   -1.937587
     25          1           0       -5.568342    2.129485   -1.008734
     26          7           0       -2.292932   -1.108722   -0.644235
     27          8           0       -1.971977   -0.904794   -1.813011
     28          8           0       -1.763784   -1.929387    0.102189
 ---------------------------------------------------------------------

 SCF Done:  E(RHF) =  -868.335134465     A.U. after   16 cycles
 E2 =    -0.2600917543D+01 EUMP2 =    -0.87093605200759D+03

 The electronic state is 1-A.
 Alpha  occ. eigenvalues --  -20.59800 -20.59682 -20.59135 -20.59130 -15.84795
 Alpha  occ. eigenvalues --  -15.84211 -11.30503 -11.30056 -11.27137 -11.27086
 Alpha  occ. eigenvalues --  -11.26933 -11.26702 -11.26668 -11.26543 -11.26224
 Alpha  occ. eigenvalues --  -11.26194 -11.25837 -11.25812  -1.58819  -1.58165
 Alpha  occ. eigenvalues --   -1.38361  -1.37727  -1.18713  -1.18275  -1.08048
 Alpha  occ. eigenvalues --   -1.07582  -1.04165  -1.03759  -0.94822  -0.94336
 Alpha  occ. eigenvalues --   -0.85548  -0.85136  -0.81647  -0.81186  -0.76641
 Alpha  occ. eigenvalues --   -0.76138  -0.71017  -0.70435  -0.70167  -0.69820
 Alpha  occ. eigenvalues --   -0.69472  -0.69398  -0.64354  -0.64173  -0.63928
 Alpha  occ. eigenvalues --   -0.63778  -0.61507  -0.61107  -0.54664  -0.54261
 Alpha  occ. eigenvalues --   -0.52480  -0.52263  -0.52053  -0.51868  -0.47908
 Alpha  occ. eigenvalues --   -0.47775  -0.47149  -0.47018  -0.43718  -0.42991
 Alpha  occ. eigenvalues --   -0.36718  -0.36282  -0.35786  -0.35383
 Alpha virt. eigenvalues --    0.05897   0.06433   0.11863   0.12267   0.17325
 Alpha virt. eigenvalues --    0.17833   0.21955   0.22292   0.27841   0.28164
 Alpha virt. eigenvalues --    0.28885   0.29231   0.31478   0.31794   0.33161

 Mulliken charges:
               1
     1  C   -0.172006
     2  C   -0.218726
     3  C   -0.171535
     4  C    0.158901
     5  C   -0.171850
     6  C   -0.218643
     7  H    0.223045
     8  H    0.221848
     9  H    0.278530
    10  H    0.273774
    11  H    0.220747
    12  N    0.486120
    13  O   -0.466906
    14  O   -0.443330
    15  C   -0.172614
    16  C   -0.218705
    17  C   -0.171643
    18  C    0.162282
    19  C   -0.169672
    20  C   -0.218684
    21  H    0.221211
    22  H    0.219148
    23  H    0.273564
    24  H    0.275896
    25  H    0.219936
    26  N    0.491841
    27  O   -0.455753
    28  O   -0.456776
 Sum of Mulliken charges =  -0.00000

 Dipole moment (field-independent basis, Debye):
    X=              1.2140    Y=              2.8673    Z=              3.1467  Tot=              4.4268
 Quadrupole moment (field-independent basis, Debye-Ang):
   XX=            -48.7061   YY=           -101.3562   ZZ=           -102.4267
   XY=             -7.2708   XZ=             -1.2941   YZ=             -4.2481

 Normal termination of Gaussian 16 at Wed May  5 21:02:33 2021.
