 Gaussian 16, Revision A.03,
 Gaussian 16:  EM64L-G16RevA.03 25-Dec-2016

 -------------
 #p 6-31g* mp2
 -------------

 ------------------------------------------------------
 Input file generated by CHIRIPA (05-May-2021 14:57:25)
 ------------------------------------------------------
 Symbolic Z-matrix:
 Charge =  0 Multiplicity = 1

                         Standard orientation:
 ---------------------------------------------------------------------
 Center     Atomic      Atomic             Coordinates (Angstroms)
 Number     Number       Type             X           Y           Z
 ---------------------------------------------------------------------
      1          6           0        1.745957    0.851920    1.717637
      2          6           0        2.029345    1.584733    0.560401
      3          6           0        3.039493    1.170398   -0.312798
      4          6           0        3.749682    0.013312    0.003545
      5          6           0        3.490957   -0.738261    1.148748
      6          6           0        2.476379   -0.305198    2.007606
      7          1           0        0.959529    1.181059    2.390389
      8          1           0        1.463713    2.483756    0.332669
      9          1           0        3.279727    1.718789   -1.215557
     10          1           0        4.071911   -1.630338    1.349020
     11          1           0        2.258481   -0.876295    2.905612
     12          7           0        4.821425   -0.435239   -0.913281
     13          8           0        5.432663   -1.458106   -0.612005
     14          8           0        5.029926    0.244549   -1.915804
     15          6           0       -6.072518   -0.384809   -0.327896
     16          6           0       -5.511198    0.892626   -0.425883
     17          6           0       -4.127587    1.069345   -0.331336
     18          6           0       -3.331406   -0.058470   -0.137900
     19          6           0       -3.860707   -1.344089   -0.036337
     20          6           0       -5.246936   -1.497129   -0.133778
     21          1           0       -7.148357   -0.512891   -0.402466
     22          1           0       -6.149917    1.758279   -0.576640
     23          1           0       -3.666599    2.046928   -0.403722
     24          1           0       -3.198304   -2.187929    0.113914
     25          1           0       -5.680094   -2.490392   -0.057316
     26          7           0       -1.865253    0.116080   -0.036276
     27          8           0       -1.185511   -0.893641    0.134168
     28          8           0       -1.423587    1.259309   -0.128992
 ---------------------------------------------------------------------

 SCF Done:  E(RHF) =  -868.339216060     A.U. after   16 cycles
 E2 =    -0.2599732738D+01 EUMP2 =    -0.87093894879796D+03

 The electronic state is 1-A.
 Alpha  occ. eigenvalues --  -20.61646 -20.61598 -20.59585 -20.59577 -15.86654
 Alpha  occ. eigenvalues --  -15.84625 -11.31819 -11.29654 -11.28373 -11.28347
 Alpha  occ. eigenvalues --  -11.28054 -11.27328 -11.27310 -11.26223 -11.26133
 Alpha  occ. eigenvalues --  -11.25812 -11.25187 -11.25003  -1.60686  -1.58666
 Alpha  occ. eigenvalues --   -1.40247  -1.38230  -1.19969  -1.17770  -1.09400
 Alpha  occ. eigenvalues --   -1.07214  -1.05340  -1.03138  -0.96269  -0.94124
 Alpha  occ. eigenvalues --   -0.86747  -0.84550  -0.83108  -0.80988  -0.78181
 Alpha  occ. eigenvalues --   -0.76085  -0.72881  -0.72006  -0.71070  -0.70859
 Alpha  occ. eigenvalues --   -0.69981  -0.68903  -0.65624  -0.65337  -0.63436
 Alpha  occ. eigenvalues --   -0.63150  -0.62689  -0.60525  -0.55843  -0.53696
 Alpha  occ. eigenvalues --   -0.53634  -0.53426  -0.51530  -0.51256  -0.49628
 Alpha  occ. eigenvalues --   -0.49524  -0.47628  -0.47579  -0.45700  -0.43714
 Alpha  occ. eigenvalues --   -0.37936  -0.36934  -0.35621  -0.34691
 Alpha virt. eigenvalues --    0.04321   0.06452   0.10723   0.12977   0.15867
 Alpha virt. eigenvalues --    0.18065   0.20898   0.22938   0.26819   0.27763
 Alpha virt. eigenvalues --    0.28817   0.29729   0.30499   0.31964   0.32440

 Mulliken charges:
               1
     1  C   -0.157442
     2  C   -0.202300
     3  C   -0.174857
     4  C    0.158035
     5  C   -0.172602
     6  C   -0.215508
     7  H    0.221250
     8  H    0.226067
     9  H    0.270147
    10  H    0.269498
    11  H    0.216517
    12  N    0.488265
    13  O   -0.465271
    14  O   -0.464523
    15  C   -0.169983
    16  C   -0.218414
    17  C   -0.170996
    18  C    0.157668
    19  C   -0.170664
    20  C   -0.218466
    21  H    0.227764
    22  H    0.224989
    23  H    0.274243
    24  H    0.276636
    25  H    0.225593
    26  N    0.488623
    27  O   -0.455335
    28  O   -0.468937
 Sum of Mulliken charges =  -0.00000

 Dipole moment (field-independent basis, Debye):
    X=             -9.5489    Y=              0.9891    Z=              2.8788  Tot=             10.0223
 Quadrupole moment (field-independent basis, Debye-Ang):
   XX=           -100.8266   YY=            -97.0553   ZZ=           -104.4999
   XY=              7.3031   XZ=             14.9281   YZ=             -3.1378

 Normal termination of Gaussian 16 at Thu May  6 18:02:58 2021.
