 Gaussian 16, Revision A.03,
 Gaussian 16:  EM64L-G16RevA.03 25-Dec-2016

 -------------
 #p 6-31g* mp2
 -------------

 ------------------------------------------------------
 Input file generated by CHIRIPA (05-May-2021 14:53:14)
 ------------------------------------------------------
 Symbolic Z-matrix:
 Charge =  0 Multiplicity = 1

                         Standard orientation:
 ---------------------------------------------------------------------
 Center     Atomic      Atomic             Coordinates (Angstroms)
 Number     Number       Type             X           Y           Z
 ---------------------------------------------------------------------
      1          6           0       -4.698096   -0.554765   -0.048408
      2          6           0       -6.161382   -0.439609   -0.476798
      3          6           0       -6.682985   -1.711100   -1.146898
      4          1           0       -4.082237   -0.786379   -0.928191
      5          1           0       -4.590752   -1.403959    0.640608
      6          1           0       -6.266184    0.409963   -1.163719
      7          1           0       -6.773805   -0.208054    0.404075
      8          1           0       -6.607391   -2.564551   -0.465351
      9          1           0       -6.096886   -1.943023   -2.042052
     10          1           0       -7.730876   -1.606841   -1.445086
     11          6           0       -4.162222    0.708449    0.623051
     12          6           0       -2.698936    0.593293    1.051440
     13          6           0       -2.177333    1.864784    1.721541
     14          1           0       -4.269566    1.557642   -0.065965
     15          1           0       -4.778081    0.940062    1.502833
     16          1           0       -2.086513    0.361737    0.170568
     17          1           0       -2.594134   -0.256279    1.738361
     18          1           0       -2.763432    2.096707    2.616695
     19          1           0       -2.252927    2.718235    1.039993
     20          1           0       -1.129442    1.760524    2.019729
     21          6           0        1.548505    1.355749   -1.063285
     22          6           0        2.866596    1.702552   -1.377744
     23          6           0        3.934119    0.925417   -0.918391
     24          6           0        3.645961   -0.196905   -0.143376
     25          6           0        2.343565   -0.568432    0.186811
     26          6           0        1.291649    0.223361   -0.283386
     27          1           0        0.725289    1.965139   -1.424332
     28          1           0        3.069056    2.581433   -1.983237
     29          1           0        4.964116    1.170960   -1.146937
     30          1           0        2.173169   -1.450300    0.792362
     31          1           0        0.269006   -0.048375   -0.037611
     32          7           0        4.767838   -1.027382    0.348660
     33          8           0        4.487439   -2.011291    1.029789
     34          8           0        5.906322   -0.678675    0.043872
 ---------------------------------------------------------------------

 SCF Done:  E(RHF) =  -669.535596517     A.U. after   15 cycles
 E2 =    -0.2091235222D+01 EUMP2 =    -0.67162683173932D+03

 The electronic state is 1-A.
 Alpha  occ. eigenvalues --  -20.60731 -20.60726 -15.85784 -11.31144 -11.27716
 Alpha  occ. eigenvalues --  -11.27702 -11.27452 -11.26730 -11.26677 -11.22721
 Alpha  occ. eigenvalues --  -11.22223 -11.22164 -11.22061 -11.22027 -11.21531
 Alpha  occ. eigenvalues --   -1.59807  -1.39361  -1.19314  -1.09226  -1.08710
 Alpha  occ. eigenvalues --   -1.04717  -1.04312  -0.96728  -0.95547  -0.87741
 Alpha  occ. eigenvalues --   -0.86117  -0.82379  -0.80412  -0.79017  -0.77425
 Alpha  occ. eigenvalues --   -0.72003  -0.71130  -0.70425  -0.65883  -0.64965
 Alpha  occ. eigenvalues --   -0.64730  -0.62134  -0.61654  -0.60101  -0.58338
 Alpha  occ. eigenvalues --   -0.56001  -0.55216  -0.53436  -0.53163  -0.53021
 Alpha  occ. eigenvalues --   -0.52806  -0.50667  -0.48791  -0.48758  -0.48672
 Alpha  occ. eigenvalues --   -0.47443  -0.46550  -0.46456  -0.44767  -0.44550
 Alpha  occ. eigenvalues --   -0.37295  -0.36317
 Alpha virt. eigenvalues --    0.05106   0.11280   0.16593   0.19595   0.22480
 Alpha virt. eigenvalues --    0.23820   0.25344   0.26123   0.27084   0.28043
 Alpha virt. eigenvalues --    0.28750   0.30016   0.30877   0.31266   0.31979

 Mulliken charges:
               1
     1  C   -0.299017
     2  C   -0.300200
     3  C   -0.476169
     4  H    0.148226
     5  H    0.151281
     6  H    0.152171
     7  H    0.153468
     8  H    0.156380
     9  H    0.155397
    10  H    0.162043
    11  C   -0.297459
    12  C   -0.304910
    13  C   -0.478690
    14  H    0.149835
    15  H    0.153530
    16  H    0.141876
    17  H    0.155681
    18  H    0.161225
    19  H    0.154089
    20  H    0.161877
    21  C   -0.172918
    22  C   -0.218579
    23  C   -0.171291
    24  C    0.158994
    25  C   -0.172856
    26  C   -0.226511
    27  H    0.225256
    28  H    0.223186
    29  H    0.275440
    30  H    0.276065
    31  H    0.235689
    32  N    0.487978
    33  O   -0.460474
    34  O   -0.460613
 Sum of Mulliken charges =  -0.00000

 Dipole moment (field-independent basis, Debye):
    X=             -4.1780    Y=              2.9391    Z=             -1.6670  Tot=              5.3733
 Quadrupole moment (field-independent basis, Debye-Ang):
   XX=           -121.1486   YY=            -95.0320   ZZ=            -93.1363
   XY=             13.4985   XZ=             -8.2444   YZ=             -2.4068

 Normal termination of Gaussian 16 at Thu May  6 20:23:29 2021.
