 Gaussian 16, Revision A.03,
 Gaussian 16:  EM64L-G16RevA.03 25-Dec-2016

 -------------
 #p 6-31g* mp2
 -------------

 ------------------------------------------------------
 Input file generated by CHIRIPA (05-May-2021 14:57:25)
 ------------------------------------------------------
 Symbolic Z-matrix:
 Charge =  0 Multiplicity = 1

                         Standard orientation:
 ---------------------------------------------------------------------
 Center     Atomic      Atomic             Coordinates (Angstroms)
 Number     Number       Type             X           Y           Z
 ---------------------------------------------------------------------
      1          6           0       -1.715202   -2.107722   -0.091175
      2          6           0       -2.850788   -2.168575   -0.905584
      3          6           0       -3.846898   -1.192362   -0.809034
      4          6           0       -3.674207   -0.164714    0.116928
      5          6           0       -2.554227   -0.076619    0.942261
      6          6           0       -1.570801   -1.063779    0.828527
      7          1           0       -0.946327   -2.870320   -0.172851
      8          1           0       -2.965598   -2.978163   -1.620729
      9          1           0       -4.736118   -1.215237   -1.427244
     10          1           0       -2.467867    0.742560    1.645757
     11          1           0       -0.689948   -1.013980    1.462295
     12          7           0       -4.722031    0.874554    0.228237
     13          8           0       -4.546177    1.769663    1.051943
     14          8           0       -5.699328    0.774343   -0.510333
     15          6           0        1.758888    2.088554   -0.606251
     16          6           0        1.379149    0.753630   -0.432179
     17          6           0        2.336158   -0.225844   -0.150560
     18          6           0        3.669984    0.166567   -0.049503
     19          6           0        4.079687    1.488367   -0.217666
     20          6           0        3.105571    2.451022   -0.498628
     21          1           0        1.008815    2.842900   -0.824765
     22          1           0        0.334029    0.469241   -0.515189
     23          1           0        2.069848   -1.266547   -0.011150
     24          1           0        5.129222    1.741381   -0.128903
     25          1           0        3.403381    3.486980   -0.633327
     26          7           0        4.692182   -0.861456    0.248287
     27          8           0        5.860778   -0.490009    0.332240
     28          8           0        4.305430   -2.019203    0.392104
 ---------------------------------------------------------------------

 SCF Done:  E(RHF) =  -868.337459974     A.U. after   16 cycles
 E2 =    -0.2601264783D+01 EUMP2 =    -0.87093872475708D+03

 The electronic state is 1-A.
 Alpha  occ. eigenvalues --  -20.61498 -20.61486 -20.61264 -20.61242 -15.86553
 Alpha  occ. eigenvalues --  -15.86307 -11.32058 -11.31676 -11.28668 -11.28593
 Alpha  occ. eigenvalues --  -11.28387 -11.28290 -11.28178 -11.27866 -11.27681
 Alpha  occ. eigenvalues --  -11.27606 -11.27177 -11.27101  -1.60569  -1.60329
 Alpha  occ. eigenvalues --   -1.40118  -1.39885  -1.20257  -1.19815  -1.09618
 Alpha  occ. eigenvalues --   -1.09191  -1.05682  -1.05211  -0.96418  -0.96043
 Alpha  occ. eigenvalues --   -0.87060  -0.86598  -0.83247  -0.82873  -0.78294
 Alpha  occ. eigenvalues --   -0.77926  -0.72763  -0.72524  -0.71899  -0.71653
 Alpha  occ. eigenvalues --   -0.71315  -0.70904  -0.65887  -0.65708  -0.65434
 Alpha  occ. eigenvalues --   -0.65182  -0.63039  -0.62517  -0.56123  -0.55681
 Alpha  occ. eigenvalues --   -0.54141  -0.53757  -0.53507  -0.53116  -0.49534
 Alpha  occ. eigenvalues --   -0.49513  -0.49290  -0.49270  -0.45491  -0.45292
 Alpha  occ. eigenvalues --   -0.38236  -0.37775  -0.37301  -0.36781
 Alpha virt. eigenvalues --    0.04237   0.04573   0.10248   0.10832   0.15613
 Alpha virt. eigenvalues --    0.16111   0.19562   0.21779   0.25358   0.26891
 Alpha virt. eigenvalues --    0.27673   0.29212   0.30218   0.31077   0.31424

 Mulliken charges:
               1
     1  C   -0.174213
     2  C   -0.217618
     3  C   -0.169967
     4  C    0.159073
     5  C   -0.174414
     6  C   -0.233144
     7  H    0.230941
     8  H    0.228188
     9  H    0.278748
    10  H    0.278080
    11  H    0.230209
    12  N    0.487870
    13  O   -0.459588
    14  O   -0.457525
    15  C   -0.172621
    16  C   -0.227458
    17  C   -0.177776
    18  C    0.160026
    19  C   -0.171096
    20  C   -0.217705
    21  H    0.229954
    22  H    0.234029
    23  H    0.266114
    24  H    0.276961
    25  H    0.225917
    26  N    0.488286
    27  O   -0.457947
    28  O   -0.463326
 Sum of Mulliken charges =  -0.00000

 Dipole moment (field-independent basis, Debye):
    X=             -0.1242    Y=              0.0076    Z=             -1.5001  Tot=              1.5052
 Quadrupole moment (field-independent basis, Debye-Ang):
   XX=           -154.1796   YY=            -99.2042   ZZ=           -103.3772
   XY=             30.5605   XZ=              0.3273   YZ=              1.0792

 Normal termination of Gaussian 16 at Wed May  5 21:09:39 2021.
