 Gaussian 16, Revision A.03,
 Gaussian 16:  EM64L-G16RevA.03 25-Dec-2016

 -------------
 #p 6-31g* mp2
 -------------

 ------------------------------------------------------
 Input file generated by CHIRIPA (05-May-2021 14:55:25)
 ------------------------------------------------------
 Symbolic Z-matrix:
 Charge =  0 Multiplicity = 1

                         Standard orientation:
 ---------------------------------------------------------------------
 Center     Atomic      Atomic             Coordinates (Angstroms)
 Number     Number       Type             X           Y           Z
 ---------------------------------------------------------------------
      1          6           0       -3.023901    1.927828   -0.166472
      2          6           0       -3.508478    0.964171   -1.057017
      3          6           0       -3.124219   -0.374298   -0.932946
      4          6           0       -2.250011   -0.715560    0.097875
      5          6           0       -1.750022    0.221405    1.000868
      6          6           0       -2.147765    1.554029    0.857823
      7          1           0       -3.327640    2.965313   -0.270223
      8          1           0       -4.189017    1.251586   -1.853449
      9          1           0       -3.484192   -1.140757   -1.608503
     10          1           0       -1.072886   -0.095477    1.784763
     11          1           0       -1.769846    2.300277    1.550886
     12          7           0       -1.836077   -2.129444    0.239267
     13          8           0       -1.064835   -2.404455    1.155887
     14          8           0       -2.290714   -2.935862   -0.569208
     15          6           0        3.191822   -0.061381    0.172807
     16          6           0        4.280156   -0.719107   -0.676257
     17          6           0        4.718786   -2.076867   -0.126816
     18          1           0        3.560340    0.059128    1.200726
     19          1           0        2.324019   -0.733095    0.228607
     20          1           0        5.145114   -0.045755   -0.731584
     21          1           0        3.909073   -0.837889   -1.702320
     22          1           0        3.871134   -2.768637   -0.087560
     23          1           0        5.114197   -1.972003    0.888691
     24          1           0        5.497324   -2.529227   -0.748997
     25          6           0        2.742854    1.296671   -0.363710
     26          6           0        1.654520    1.954397    0.485354
     27          6           0        1.215889    3.312157   -0.064087
     28          1           0        3.610657    1.968385   -0.419509
     29          1           0        2.374336    1.176162   -1.391629
     30          1           0        2.025602    2.073179    1.511417
     31          1           0        0.789562    1.281046    0.540682
     32          1           0        0.820479    3.207293   -1.079593
     33          1           0        2.063542    4.003927   -0.103342
     34          1           0        0.437352    3.764517    0.558094
 ---------------------------------------------------------------------

 SCF Done:  E(RHF) =  -669.534741391     A.U. after   15 cycles
 E2 =    -0.2093522140D+01 EUMP2 =    -0.67162826353069D+03

 The electronic state is 1-A.
 Alpha  occ. eigenvalues --  -20.60859 -20.60853 -15.85908 -11.31268 -11.27827
 Alpha  occ. eigenvalues --  -11.27814 -11.27559 -11.26842 -11.26827 -11.21828
 Alpha  occ. eigenvalues --  -11.21565 -11.21443 -11.21376 -11.21198 -11.20699
 Alpha  occ. eigenvalues --   -1.59932  -1.39485  -1.19448  -1.08834  -1.08427
 Alpha  occ. eigenvalues --   -1.04859  -1.03551  -0.96004  -0.95672  -0.87025
 Alpha  occ. eigenvalues --   -0.86234  -0.82509  -0.79662  -0.78212  -0.77539
 Alpha  occ. eigenvalues --   -0.72124  -0.71257  -0.70542  -0.65134  -0.65028
 Alpha  occ. eigenvalues --   -0.64845  -0.62225  -0.60947  -0.59430  -0.57614
 Alpha  occ. eigenvalues --   -0.55333  -0.55283  -0.53182  -0.52966  -0.52705
 Alpha  occ. eigenvalues --   -0.52395  -0.49927  -0.48883  -0.48881  -0.47958
 Alpha  occ. eigenvalues --   -0.46681  -0.45754  -0.45644  -0.44874  -0.43800
 Alpha  occ. eigenvalues --   -0.37415  -0.36342
 Alpha virt. eigenvalues --    0.04951   0.11098   0.16386   0.20521   0.23056
 Alpha virt. eigenvalues --    0.24170   0.26257   0.26401   0.26966   0.28591
 Alpha virt. eigenvalues --    0.28937   0.30403   0.31367   0.31755   0.32483

 Mulliken charges:
               1
     1  C   -0.171340
     2  C   -0.218544
     3  C   -0.171436
     4  C    0.157860
     5  C   -0.174502
     6  C   -0.213791
     7  H    0.226322
     8  H    0.223804
     9  H    0.275766
    10  H    0.277492
    11  H    0.226007
    12  N    0.488079
    13  O   -0.460610
    14  O   -0.459966
    15  C   -0.301245
    16  C   -0.299563
    17  C   -0.476926
    18  H    0.148843
    19  H    0.156947
    20  H    0.149950
    21  H    0.152033
    22  H    0.161938
    23  H    0.154389
    24  H    0.159276
    25  C   -0.297306
    26  C   -0.308535
    27  C   -0.473128
    28  H    0.148952
    29  H    0.150075
    30  H    0.149834
    31  H    0.156721
    32  H    0.156656
    33  H    0.157481
    34  H    0.148468
 Sum of Mulliken charges =  -0.00000

 Dipole moment (field-independent basis, Debye):
    X=             -1.5083    Y=              4.8614    Z=             -0.5323  Tot=              5.1177
 Quadrupole moment (field-independent basis, Debye-Ang):
   XX=            -86.7605   YY=           -103.2303   ZZ=            -91.8351
   XY=             -9.0796   XZ=              3.8641   YZ=              2.3692

 Normal termination of Gaussian 16 at Wed May  5 16:10:25 2021.
