 Gaussian 16, Revision A.03,
 Gaussian 16:  EM64L-G16RevA.03 25-Dec-2016

 -------------
 #p 6-31g* mp2
 -------------

 ------------------------------------------------------
 Input file generated by CHIRIPA (05-May-2021 14:53:18)
 ------------------------------------------------------
 Symbolic Z-matrix:
 Charge =  0 Multiplicity = 1

                         Standard orientation:
 ---------------------------------------------------------------------
 Center     Atomic      Atomic             Coordinates (Angstroms)
 Number     Number       Type             X           Y           Z
 ---------------------------------------------------------------------
      1          6           0       -2.804895   -0.307804    0.422898
      2          6           0       -2.121729   -1.364655    1.291423
      3          6           0       -0.643942   -1.060737    1.539568
      4          1           0       -2.277565   -0.235406   -0.538157
      5          1           0       -2.707767    0.673618    0.907431
      6          1           0       -2.221318   -2.344009    0.806075
      7          1           0       -2.650863   -1.434681    2.250448
      8          1           0       -0.528558   -0.096619    2.045298
      9          1           0       -0.096573   -1.011113    0.592718
     10          1           0       -0.175206   -1.828872    2.162558
     11          6           0       -4.282617   -0.597705    0.165948
     12          6           0       -4.965783    0.459145   -0.702577
     13          6           0       -6.443569    0.155228   -0.950723
     14          1           0       -4.379745   -1.579127   -0.318585
     15          1           0       -4.809947   -0.670103    1.127002
     16          1           0       -4.436649    0.529172   -1.661603
     17          1           0       -4.866194    1.438500   -0.217229
     18          1           0       -6.990939    0.105604   -0.003872
     19          1           0       -6.558954   -0.808891   -1.456452
     20          1           0       -6.912305    0.923362   -1.573712
     21          6           0        4.606228   -1.323291   -0.650199
     22          6           0        3.550593   -1.199084   -1.559444
     23          6           0        2.526959   -0.273260   -1.336793
     24          6           0        2.590900    0.515841   -0.189396
     25          6           0        3.629366    0.415619    0.735177
     26          6           0        4.642182   -0.516963    0.492195
     27          1           0        5.397210   -2.045117   -0.831056
     28          1           0        3.520069   -1.823969   -2.447494
     29          1           0        1.697994   -0.156344   -2.024228
     30          1           0        3.632389    1.052435    1.611462
     31          1           0        5.460773   -0.611248    1.200054
     32          7           0        1.512951    1.499547    0.057076
     33          8           0        1.592420    2.183013    1.075504
     34          8           0        0.608998    1.568484   -0.772835
 ---------------------------------------------------------------------

 SCF Done:  E(RHF) =  -669.535955859     A.U. after   15 cycles
 E2 =    -0.2092737466D+01 EUMP2 =    -0.67162869332461D+03

 The electronic state is 1-A.
 Alpha  occ. eigenvalues --  -20.60862 -20.60850 -15.85866 -11.31220 -11.27792
 Alpha  occ. eigenvalues --  -11.27777 -11.27527 -11.26809 -11.26796 -11.20955
 Alpha  occ. eigenvalues --  -11.20915 -11.20680 -11.20535 -11.20442 -11.20423
 Alpha  occ. eigenvalues --   -1.59902  -1.39462  -1.19392  -1.08791  -1.07690
 Alpha  occ. eigenvalues --   -1.04795  -1.02877  -0.95630  -0.95329  -0.86360
 Alpha  occ. eigenvalues --   -0.86193  -0.82468  -0.78955  -0.77537  -0.77445
 Alpha  occ. eigenvalues --   -0.72105  -0.71208  -0.70504  -0.65051  -0.64801
 Alpha  occ. eigenvalues --   -0.64327  -0.62146  -0.60287  -0.58684  -0.56925
 Alpha  occ. eigenvalues --   -0.55299  -0.54635  -0.53121  -0.52889  -0.52056
 Alpha  occ. eigenvalues --   -0.51740  -0.49287  -0.48874  -0.48857  -0.47257
 Alpha  occ. eigenvalues --   -0.46014  -0.45157  -0.44951  -0.44612  -0.43102
 Alpha  occ. eigenvalues --   -0.37350  -0.36391
 Alpha virt. eigenvalues --    0.04993   0.11184   0.16470   0.21350   0.23568
 Alpha virt. eigenvalues --    0.24883   0.27086   0.27480   0.27880   0.28510
 Alpha virt. eigenvalues --    0.28565   0.30918   0.31641   0.32394   0.32480

 Mulliken charges:
               1
     1  C   -0.298806
     2  C   -0.298884
     3  C   -0.482430
     4  H    0.155895
     5  H    0.157700
     6  H    0.146773
     7  H    0.150014
     8  H    0.166526
     9  H    0.150491
    10  H    0.154095
    11  C   -0.298399
    12  C   -0.299039
    13  C   -0.475328
    14  H    0.145344
    15  H    0.147305
    16  H    0.152730
    17  H    0.154656
    18  H    0.153975
    19  H    0.152879
    20  H    0.159154
    21  C   -0.170727
    22  C   -0.218197
    23  C   -0.172935
    24  C    0.160024
    25  C   -0.170635
    26  C   -0.218415
    27  H    0.225705
    28  H    0.223524
    29  H    0.275099
    30  H    0.275748
    31  H    0.223610
    32  N    0.491711
    33  O   -0.459661
    34  O   -0.459502
 Sum of Mulliken charges =  -0.00000

 Dipole moment (field-independent basis, Debye):
    X=              3.9446    Y=             -3.2790    Z=             -0.8814  Tot=              5.2047
 Quadrupole moment (field-independent basis, Debye-Ang):
   XX=            -76.2146   YY=            -98.6359   ZZ=            -90.5006
   XY=             -7.1140   XZ=             -1.2999   YZ=              2.2950

 Normal termination of Gaussian 16 at Thu May  6 01:16:19 2021.
