 Gaussian 16, Revision A.03,
 Gaussian 16:  EM64L-G16RevA.03 25-Dec-2016

 -------------
 #p 6-31g* mp2
 -------------

 ------------------------------------------------------
 Input file generated by CHIRIPA (05-May-2021 14:55:24)
 ------------------------------------------------------
 Symbolic Z-matrix:
 Charge =  0 Multiplicity = 1

                         Standard orientation:
 ---------------------------------------------------------------------
 Center     Atomic      Atomic             Coordinates (Angstroms)
 Number     Number       Type             X           Y           Z
 ---------------------------------------------------------------------
      1          6           0       -3.414371    2.106303   -0.130448
      2          6           0       -4.385266    1.168237    0.235497
      3          6           0       -4.072839   -0.193458    0.287705
      4          6           0       -2.773779   -0.583788   -0.033813
      5          6           0       -1.784480    0.326692   -0.402059
      6          6           0       -2.119360    1.683283   -0.447499
      7          1           0       -3.665792    3.162118   -0.168375
      8          1           0       -5.391803    1.493881    0.482244
      9          1           0       -4.805086   -0.940977    0.567790
     10          1           0       -0.789699   -0.028270   -0.642540
     11          1           0       -1.363318    2.409565   -0.732034
     12          7           0       -2.431142   -2.022652    0.017875
     13          8           0       -1.279420   -2.340915   -0.270016
     14          8           0       -3.320793   -2.804924    0.345300
     15          6           0        4.188708   -0.001433    0.309015
     16          6           0        4.275487   -1.345718   -0.414414
     17          6           0        5.412649   -2.225068    0.106548
     18          1           0        5.144345    0.529253    0.199119
     19          1           0        4.052183   -0.179914    1.384608
     20          1           0        4.410422   -1.164747   -1.488499
     21          1           0        3.319468   -1.873182   -0.302945
     22          1           0        5.279893   -2.434872    1.172831
     23          1           0        6.377046   -1.722413   -0.019460
     24          1           0        5.456425   -3.181094   -0.424447
     25          6           0        3.056730    0.888846   -0.200647
     26          6           0        2.969951    2.233131    0.522783
     27          6           0        1.832789    3.112482    0.001820
     28          1           0        3.193256    1.067328   -1.276240
     29          1           0        2.101093    0.358161   -0.090750
     30          1           0        3.925970    2.760595    0.411313
     31          1           0        2.835016    2.052161    1.596868
     32          1           0        0.868392    2.609826    0.127828
     33          1           0        1.965546    3.322286   -1.064462
     34          1           0        1.789013    4.068508    0.532816
 ---------------------------------------------------------------------

 SCF Done:  E(RHF) =  -669.535656044     A.U. after   15 cycles
 E2 =    -0.2091580914D+01 EUMP2 =    -0.67162723695798D+03

 The electronic state is 1-A.
 Alpha  occ. eigenvalues --  -20.60777 -20.60771 -15.85829 -11.31182 -11.27754
 Alpha  occ. eigenvalues --  -11.27744 -11.27481 -11.26765 -11.26715 -11.22065
 Alpha  occ. eigenvalues --  -11.21872 -11.21705 -11.21461 -11.21401 -11.20873
 Alpha  occ. eigenvalues --   -1.59851  -1.39406  -1.19353  -1.08748  -1.08630
 Alpha  occ. eigenvalues --   -1.04755  -1.03737  -0.96228  -0.95586  -0.87257
 Alpha  occ. eigenvalues --   -0.86147  -0.82422  -0.79834  -0.78391  -0.77465
 Alpha  occ. eigenvalues --   -0.72048  -0.71174  -0.70460  -0.65266  -0.65001
 Alpha  occ. eigenvalues --   -0.64767  -0.62144  -0.61099  -0.59619  -0.57806
 Alpha  occ. eigenvalues --   -0.55550  -0.55244  -0.53096  -0.53021  -0.52864
 Alpha  occ. eigenvalues --   -0.52508  -0.50162  -0.48806  -0.48804  -0.48131
 Alpha  occ. eigenvalues --   -0.46846  -0.45942  -0.45816  -0.44814  -0.43981
 Alpha  occ. eigenvalues --   -0.37330  -0.36349
 Alpha virt. eigenvalues --    0.05044   0.11273   0.16450   0.19759   0.22782
 Alpha virt. eigenvalues --    0.24028   0.25056   0.26071   0.26978   0.28441
 Alpha virt. eigenvalues --    0.29660   0.30239   0.31328   0.31605   0.31871

 Mulliken charges:
               1
     1  C   -0.171218
     2  C   -0.218643
     3  C   -0.170614
     4  C    0.158443
     5  C   -0.175846
     6  C   -0.223538
     7  H    0.226022
     8  H    0.223406
     9  H    0.275552
    10  H    0.279320
    11  H    0.230225
    12  N    0.487871
    13  O   -0.460966
    14  O   -0.460339
    15  C   -0.298316
    16  C   -0.302230
    17  C   -0.475952
    18  H    0.149334
    19  H    0.151289
    20  H    0.150954
    21  H    0.160448
    22  H    0.156104
    23  H    0.153361
    24  H    0.162418
    25  C   -0.301705
    26  C   -0.299070
    27  C   -0.481966
    28  H    0.149540
    29  H    0.149858
    30  H    0.154647
    31  H    0.154936
    32  H    0.148283
    33  H    0.155651
    34  H    0.162740
 Sum of Mulliken charges =  -0.00000

 Dipole moment (field-independent basis, Debye):
    X=             -1.1027    Y=              5.0126    Z=             -0.1504  Tot=              5.1346
 Quadrupole moment (field-independent basis, Debye-Ang):
   XX=            -83.4486   YY=           -101.3858   ZZ=            -94.7806
   XY=            -11.6866   XZ=             -1.5333   YZ=             -0.4543

 Normal termination of Gaussian 16 at Wed May  5 16:04:06 2021.
