 Gaussian 16, Revision A.03,
 Gaussian 16:  EM64L-G16RevA.03 25-Dec-2016

 -------------
 #p 6-31g* mp2
 -------------

 ------------------------------------------------------
 Input file generated by CHIRIPA (05-May-2021 14:57:27)
 ------------------------------------------------------
 Symbolic Z-matrix:
 Charge =  0 Multiplicity = 1

                         Standard orientation:
 ---------------------------------------------------------------------
 Center     Atomic      Atomic             Coordinates (Angstroms)
 Number     Number       Type             X           Y           Z
 ---------------------------------------------------------------------
      1          6           0        1.767215    2.574020   -0.214779
      2          6           0        1.765930    1.708479   -1.313577
      3          6           0        2.221038    0.393157   -1.181842
      4          6           0        2.672506   -0.025259    0.068915
      5          6           0        2.686215    0.813222    1.182491
      6          6           0        2.226543    2.124422    1.027558
      7          1           0        1.411903    3.594193   -0.326124
      8          1           0        1.409780    2.054911   -2.279592
      9          1           0        2.231011   -0.297987   -2.015892
     10          1           0        3.047258    0.439103    2.132807
     11          1           0        2.228690    2.794405    1.882639
     12          7           0        3.156724   -1.415550    0.220656
     13          8           0        3.549390   -1.759878    1.333260
     14          8           0        3.134420   -2.134605   -0.775887
     15          6           0       -2.705870    2.313987    0.072156
     16          6           0       -1.696466    1.692121   -0.670074
     17          6           0       -1.624069    0.297770   -0.741418
     18          6           0       -2.581761   -0.447295   -0.055127
     19          6           0       -3.599465    0.142875    0.692713
     20          6           0       -3.652480    1.538747    0.749986
     21          1           0       -2.754581    3.397744    0.122113
     22          1           0       -0.959969    2.291656   -1.197498
     23          1           0       -0.853220   -0.209609   -1.308671
     24          1           0       -4.319451   -0.481403    1.207801
     25          1           0       -4.437508    2.018977    1.327183
     26          7           0       -2.515377   -1.924238   -0.123208
     27          8           0       -3.371085   -2.558157    0.490427
     28          8           0       -1.608895   -2.419980   -0.788915
 ---------------------------------------------------------------------

 SCF Done:  E(RHF) =  -868.333814318     A.U. after   16 cycles
 E2 =    -0.2604500095D+01 EUMP2 =    -0.87093831441259D+03

 The electronic state is 1-A.
 Alpha  occ. eigenvalues --  -20.60894 -20.60863 -20.60751 -20.60735 -15.85952
 Alpha  occ. eigenvalues --  -15.85802 -11.31704 -11.31327 -11.28341 -11.28290
 Alpha  occ. eigenvalues --  -11.28205 -11.27895 -11.27889 -11.27731 -11.27499
 Alpha  occ. eigenvalues --  -11.27385 -11.26978 -11.26967  -1.59945  -1.59818
 Alpha  occ. eigenvalues --   -1.39489  -1.39367  -1.19946  -1.19516  -1.09289
 Alpha  occ. eigenvalues --   -1.08896  -1.05433  -1.04924  -0.96042  -0.95702
 Alpha  occ. eigenvalues --   -0.86832  -0.86330  -0.82869  -0.82533  -0.77852
 Alpha  occ. eigenvalues --   -0.77532  -0.72170  -0.72014  -0.71271  -0.71146
 Alpha  occ. eigenvalues --   -0.71078  -0.70658  -0.65671  -0.65496  -0.65175
 Alpha  occ. eigenvalues --   -0.64878  -0.62788  -0.62283  -0.55935  -0.55522
 Alpha  occ. eigenvalues --   -0.53852  -0.53514  -0.53129  -0.52970  -0.48955
 Alpha  occ. eigenvalues --   -0.48894  -0.48788  -0.48764  -0.44810  -0.44735
 Alpha  occ. eigenvalues --   -0.38111  -0.37442  -0.37080  -0.36318
 Alpha virt. eigenvalues --    0.04659   0.04994   0.10411   0.11154   0.16020
 Alpha virt. eigenvalues --    0.16467   0.19399   0.22112   0.25636   0.26460
 Alpha virt. eigenvalues --    0.28490   0.28935   0.30005   0.30903   0.31883

 Mulliken charges:
               1
     1  C   -0.169649
     2  C   -0.229666
     3  C   -0.175515
     4  C    0.162386
     5  C   -0.168462
     6  C   -0.216081
     7  H    0.221814
     8  H    0.221520
     9  H    0.280909
    10  H    0.279173
    11  H    0.225062
    12  N    0.488840
    13  O   -0.458518
    14  O   -0.453999
    15  C   -0.174071
    16  C   -0.211008
    17  C   -0.170291
    18  C    0.158584
    19  C   -0.170939
    20  C   -0.218370
    21  H    0.221379
    22  H    0.212298
    23  H    0.273714
    24  H    0.276540
    25  H    0.223180
    26  N    0.487800
    27  O   -0.459746
    28  O   -0.456883
 Sum of Mulliken charges =  -0.00000

 Dipole moment (field-independent basis, Debye):
    X=             -1.6811    Y=              9.7771    Z=             -0.1271  Tot=              9.9214
 Quadrupole moment (field-independent basis, Debye-Ang):
   XX=           -109.8491   YY=           -111.1310   ZZ=            -99.1255
   XY=              0.2334   XZ=             -3.7369   YZ=              1.0905

 Normal termination of Gaussian 16 at Thu May  6 08:25:36 2021.
