 Gaussian 16, Revision A.03,
 Gaussian 16:  EM64L-G16RevA.03 25-Dec-2016

 -------------
 #p 6-31g* mp2
 -------------

 ------------------------------------------------------
 Input file generated by CHIRIPA (05-May-2021 14:57:25)
 ------------------------------------------------------
 Symbolic Z-matrix:
 Charge =  0 Multiplicity = 1

                         Standard orientation:
 ---------------------------------------------------------------------
 Center     Atomic      Atomic             Coordinates (Angstroms)
 Number     Number       Type             X           Y           Z
 ---------------------------------------------------------------------
      1          6           0        1.272937   -2.067161    0.060435
      2          6           0        1.592465   -1.347520    1.216522
      3          6           0        2.627347   -0.407614    1.204467
      4          6           0        3.325149   -0.211755    0.013668
      5          6           0        3.030590   -0.913090   -1.154517
      6          6           0        1.991752   -1.848035   -1.119315
      7          1           0        0.467479   -2.795376    0.078790
      8          1           0        1.035923   -1.515618    2.134155
      9          1           0        2.895712    0.163328    2.085049
     10          1           0        3.603284   -0.723631   -2.054264
     11          1           0        1.745803   -2.405470   -2.018660
     12          7           0        4.422826    0.780655   -0.011346
     13          8           0        5.022474    0.934726   -1.073100
     14          8           0        4.662753    1.385645    1.031276
     15          6           0       -4.116279   -1.951109    0.076051
     16          6           0       -2.739417   -1.760901    0.232865
     17          6           0       -2.189851   -0.476374    0.182681
     18          6           0       -3.050265    0.600227   -0.026863
     19          6           0       -4.426156    0.443114   -0.186643
     20          6           0       -4.953778   -0.850435   -0.132835
     21          1           0       -4.534671   -2.952463    0.116443
     22          1           0       -2.086599   -2.613846    0.395221
     23          1           0       -1.127538   -0.300537    0.300957
     24          1           0       -5.051584    1.312891   -0.347096
     25          1           0       -6.023446   -0.995156   -0.254946
     26          7           0       -2.480080    1.964874   -0.081909
     27          8           0       -3.259491    2.896882   -0.267692
     28          8           0       -1.264555    2.076635    0.061770
 ---------------------------------------------------------------------

 SCF Done:  E(RHF) =  -868.336094318     A.U. after   16 cycles
 E2 =    -0.2601866489D+01 EUMP2 =    -0.87093796080669D+03

 The electronic state is 1-A.
 Alpha  occ. eigenvalues --  -20.61081 -20.61076 -20.60753 -20.60744 -15.86142
 Alpha  occ. eigenvalues --  -15.85812 -11.31642 -11.31404 -11.28246 -11.28214
 Alpha  occ. eigenvalues --  -11.28081 -11.27999 -11.27989 -11.27971 -11.27432
 Alpha  occ. eigenvalues --  -11.27268 -11.27166 -11.27118  -1.60156  -1.59816
 Alpha  occ. eigenvalues --   -1.39704  -1.39365  -1.19866  -1.19629  -1.09237
 Alpha  occ. eigenvalues --   -1.09035  -1.05312  -1.05052  -0.96040  -0.95809
 Alpha  occ. eigenvalues --   -0.86702  -0.86466  -0.82903  -0.82608  -0.77908
 Alpha  occ. eigenvalues --   -0.77583  -0.72357  -0.72037  -0.71486  -0.71130
 Alpha  occ. eigenvalues --   -0.71030  -0.70791  -0.65528  -0.65362  -0.65296
 Alpha  occ. eigenvalues --   -0.65082  -0.62672  -0.62369  -0.55858  -0.55659
 Alpha  occ. eigenvalues --   -0.53639  -0.53596  -0.53163  -0.53122  -0.49128
 Alpha  occ. eigenvalues --   -0.49099  -0.48812  -0.48769  -0.45079  -0.44720
 Alpha  occ. eigenvalues --   -0.37860  -0.37689  -0.36923  -0.36606
 Alpha virt. eigenvalues --    0.04608   0.04953   0.10662   0.10967   0.16010
 Alpha virt. eigenvalues --    0.16316   0.18723   0.22080   0.25024   0.26932
 Alpha virt. eigenvalues --    0.27958   0.29144   0.30008   0.31792   0.32455

 Mulliken charges:
               1
     1  C   -0.180621
     2  C   -0.224442
     3  C   -0.163382
     4  C    0.161934
     5  C   -0.168000
     6  C   -0.216183
     7  H    0.219512
     8  H    0.223623
     9  H    0.279717
    10  H    0.278048
    11  H    0.224381
    12  N    0.488404
    13  O   -0.459049
    14  O   -0.457345
    15  C   -0.170081
    16  C   -0.224776
    17  C   -0.178717
    18  C    0.158049
    19  C   -0.168842
    20  C   -0.219214
    21  H    0.226044
    22  H    0.212856
    23  H    0.284877
    24  H    0.277613
    25  H    0.225203
    26  N    0.487367
    27  O   -0.458866
    28  O   -0.458107
 Sum of Mulliken charges =  -0.00000

 Dipole moment (field-independent basis, Debye):
    X=             -5.6350    Y=             -8.0011    Z=              0.2367  Tot=              9.7891
 Quadrupole moment (field-independent basis, Debye-Ang):
   XX=           -113.2873   YY=           -109.8964   ZZ=           -100.7946
   XY=              0.5114   XZ=             -0.3186   YZ=              1.1502

 Normal termination of Gaussian 16 at Wed May  5 17:59:10 2021.
