 Gaussian 16, Revision A.03,
 Gaussian 16:  EM64L-G16RevA.03 25-Dec-2016

 -------------
 #p 6-31g* mp2
 -------------

 ------------------------------------------------------
 Input file generated by CHIRIPA (05-May-2021 14:57:22)
 ------------------------------------------------------
 Symbolic Z-matrix:
 Charge =  0 Multiplicity = 1

                         Standard orientation:
 ---------------------------------------------------------------------
 Center     Atomic      Atomic             Coordinates (Angstroms)
 Number     Number       Type             X           Y           Z
 ---------------------------------------------------------------------
      1          6           0        1.674599    2.420338   -0.621712
      2          6           0        3.014933    2.277741   -0.247958
      3          6           0        3.546511    1.012828    0.020310
      4          6           0        2.705556   -0.092922   -0.095460
      5          6           0        1.366075    0.016631   -0.465703
      6          6           0        0.855891    1.291318   -0.729202
      7          1           0        1.269966    3.406749   -0.828257
      8          1           0        3.653087    3.152783   -0.163677
      9          1           0        4.580559    0.873738    0.311545
     10          1           0        0.754545   -0.874290   -0.541264
     11          1           0       -0.185406    1.399054   -1.019267
     12          7           0        3.256990   -1.437203    0.186019
     13          8           0        2.495327   -2.395637    0.076887
     14          8           0        4.440425   -1.506961    0.510445
     15          6           0       -2.540023    2.318926    0.749973
     16          6           0       -2.237816    1.349177    1.711626
     17          6           0       -2.275978   -0.009859    1.385876
     18          6           0       -2.621890   -0.365252    0.083060
     19          6           0       -2.928215    0.577305   -0.897266
     20          6           0       -2.883653    1.930580   -0.549115
     21          1           0       -2.507893    3.372420    1.011724
     22          1           0       -1.970621    1.647856    2.721301
     23          1           0       -2.046631   -0.781454    2.110762
     24          1           0       -3.191113    0.248843   -1.895472
     25          1           0       -3.118835    2.681514   -1.298002
     26          7           0       -2.665678   -1.800953   -0.273654
     27          8           0       -2.973344   -2.088117   -1.428434
     28          8           0       -2.391504   -2.611907    0.608286
 ---------------------------------------------------------------------

 SCF Done:  E(RHF) =  -868.335743145     A.U. after   16 cycles
 E2 =    -0.2604271641D+01 EUMP2 =    -0.87094001478654D+03

 The electronic state is 1-A.
 Alpha  occ. eigenvalues --  -20.61401 -20.61359 -20.60572 -20.60537 -15.86447
 Alpha  occ. eigenvalues --  -15.85608 -11.32138 -11.31094 -11.28740 -11.28652
 Alpha  occ. eigenvalues --  -11.28470 -11.27790 -11.27686 -11.27668 -11.27592
 Alpha  occ. eigenvalues --  -11.27449 -11.26762 -11.26526  -1.60463  -1.59634
 Alpha  occ. eigenvalues --   -1.40000  -1.39181  -1.20357  -1.19261  -1.09664
 Alpha  occ. eigenvalues --   -1.08652  -1.05757  -1.04668  -0.96433  -0.95470
 Alpha  occ. eigenvalues --   -0.87113  -0.86073  -0.83234  -0.82289  -0.78239
 Alpha  occ. eigenvalues --   -0.77320  -0.72635  -0.71853  -0.71796  -0.71368
 Alpha  occ. eigenvalues --   -0.70965  -0.70407  -0.65941  -0.65691  -0.64909
 Alpha  occ. eigenvalues --   -0.64734  -0.63044  -0.62085  -0.56200  -0.55309
 Alpha  occ. eigenvalues --   -0.54237  -0.53783  -0.52996  -0.52432  -0.49427
 Alpha  occ. eigenvalues --   -0.49382  -0.48593  -0.48572  -0.45318  -0.44559
 Alpha  occ. eigenvalues --   -0.38395  -0.37456  -0.37242  -0.36169
 Alpha virt. eigenvalues --    0.04226   0.05204   0.10191   0.11398   0.15678
 Alpha virt. eigenvalues --    0.16663   0.20529   0.21587   0.26499   0.27189
 Alpha virt. eigenvalues --    0.27507   0.28253   0.30195   0.31403   0.31829

 Mulliken charges:
               1
     1  C   -0.177388
     2  C   -0.218307
     3  C   -0.172669
     4  C    0.158674
     5  C   -0.177346
     6  C   -0.220330
     7  H    0.219307
     8  H    0.221440
     9  H    0.275067
    10  H    0.277303
    11  H    0.233070
    12  N    0.487233
    13  O   -0.454997
    14  O   -0.462196
    15  C   -0.171069
    16  C   -0.213994
    17  C   -0.169614
    18  C    0.156500
    19  C   -0.181405
    20  C   -0.230612
    21  H    0.227574
    22  H    0.228740
    23  H    0.282719
    24  H    0.279655
    25  H    0.225950
    26  N    0.486512
    27  O   -0.458125
    28  O   -0.451692
 Sum of Mulliken charges =  -0.00000

 Dipole moment (field-independent basis, Debye):
    X=             -2.0963    Y=              9.5352    Z=              0.4757  Tot=              9.7745
 Quadrupole moment (field-independent basis, Debye-Ang):
   XX=           -112.5376   YY=           -109.3445   ZZ=           -100.4502
   XY=              1.2705   XZ=             -3.6955   YZ=             -1.0528

 Normal termination of Gaussian 16 at Thu May  6 06:34:29 2021.
