 Gaussian 16, Revision A.03,
 Gaussian 16:  EM64L-G16RevA.03 25-Dec-2016

 -------------
 #p 6-31g* mp2
 -------------

 ------------------------------------------------------
 Input file generated by CHIRIPA (05-May-2021 14:51:11)
 ------------------------------------------------------
 Symbolic Z-matrix:
 Charge =  0 Multiplicity = 1

                         Standard orientation:
 ---------------------------------------------------------------------
 Center     Atomic      Atomic             Coordinates (Angstroms)
 Number     Number       Type             X           Y           Z
 ---------------------------------------------------------------------
      1          6           0       -3.251543   -0.374841   -0.150135
      2          6           0       -4.084163   -1.482416    0.496398
      3          6           0       -3.610150   -2.882692    0.106101
      4          1           0       -3.290720   -0.485566   -1.242449
      5          1           0       -2.198996   -0.500571    0.139229
      6          1           0       -5.135038   -1.353822    0.207017
      7          1           0       -4.043155   -1.368927    1.587294
      8          1           0       -2.569441   -3.035647    0.409632
      9          1           0       -3.667528   -3.020456   -0.978487
     10          1           0       -4.219206   -3.659156    0.579404
     11          6           0       -3.713235    1.030757    0.230474
     12          6           0       -2.880615    2.138333   -0.416059
     13          6           0       -3.354628    3.538609   -0.025762
     14          1           0       -4.765782    1.156488   -0.058891
     15          1           0       -3.674058    1.141483    1.322788
     16          1           0       -2.921622    2.024844   -1.506955
     17          1           0       -1.829739    2.009739   -0.126679
     18          1           0       -3.297249    3.676373    1.058825
     19          1           0       -4.395336    3.691563   -0.329294
     20          1           0       -2.745572    4.315073   -0.499065
     21          6           0        2.724202   -0.301939    0.048755
     22          6           0        2.012153   -1.561664   -0.445274
     23          6           0        0.495843   -1.494527   -0.260642
     24          1           0        2.489168   -0.148254    1.110868
     25          1           0        2.326709    0.570146   -0.488703
     26          1           0        2.411848   -2.431278    0.091970
     27          1           0        2.249063   -1.712475   -1.506286
     28          1           0        0.078030   -0.645079   -0.810617
     29          1           0        0.241740   -1.367967    0.796721
     30          1           0        0.006892   -2.405213   -0.620415
     31          6           0        4.240576   -0.353978   -0.129093
     32          6           0        4.952625    0.905747    0.364935
     33          6           0        6.468935    0.838610    0.180304
     34          1           0        4.638069   -1.226063    0.408365
     35          1           0        4.475610   -0.507662   -1.191207
     36          1           0        4.715715    1.056558    1.425947
     37          1           0        4.552930    1.775362   -0.172309
     38          1           0        6.723038    0.712051   -0.877059
     39          1           0        6.886748   -0.010837    0.730278
     40          1           0        6.957886    1.749297    0.540077
 ---------------------------------------------------------------------

 SCF Done:  E(RHF) =  -470.732837590     A.U. after   11 cycles
 E2 =    -0.1583302544D+01 EUMP2 =    -0.47231614013424D+03

 The electronic state is 1-A.
 Alpha  occ. eigenvalues --  -11.21626 -11.21621 -11.21563 -11.21502 -11.21435
 Alpha  occ. eigenvalues --  -11.21374 -11.21299 -11.21172 -11.21116 -11.21086
 Alpha  occ. eigenvalues --  -11.21042 -11.20981  -1.08463  -1.08335  -1.03568
 Alpha  occ. eigenvalues --   -1.03453  -0.96026  -0.95898  -0.87056  -0.86913
 Alpha  occ. eigenvalues --   -0.79694  -0.79488  -0.78312  -0.78088  -0.65089
 Alpha  occ. eigenvalues --   -0.64975  -0.60966  -0.60856  -0.59420  -0.59234
 Alpha  occ. eigenvalues --   -0.57712  -0.57449  -0.55324  -0.55176  -0.52745
 Alpha  occ. eigenvalues --   -0.52617  -0.52552  -0.52222  -0.49974  -0.49831
 Alpha  occ. eigenvalues --   -0.47999  -0.47827  -0.46676  -0.46547  -0.45975
 Alpha  occ. eigenvalues --   -0.45749  -0.45656  -0.45343  -0.43778  -0.43694
 Alpha virt. eigenvalues --    0.21783   0.22977   0.23788   0.24326   0.25676
 Alpha virt. eigenvalues --    0.26502   0.27052   0.27160   0.27908   0.29706
 Alpha virt. eigenvalues --    0.30310   0.31088   0.31788   0.32005   0.32337

 Mulliken charges:
               1
     1  C   -0.308696
     2  C   -0.298857
     3  C   -0.478388
     4  H    0.148020
     5  H    0.164876
     6  H    0.151242
     7  H    0.151050
     8  H    0.158299
     9  H    0.154587
    10  H    0.159548
    11  C   -0.297389
    12  C   -0.300440
    13  C   -0.475523
    14  H    0.148966
    15  H    0.148995
    16  H    0.151483
    17  H    0.152039
    18  H    0.155152
    19  H    0.155212
    20  H    0.159902
    21  C   -0.298484
    22  C   -0.300604
    23  C   -0.479938
    24  H    0.149338
    25  H    0.149567
    26  H    0.151924
    27  H    0.152267
    28  H    0.158408
    29  H    0.153607
    30  H    0.163436
    31  C   -0.298261
    32  C   -0.299655
    33  C   -0.475725
    34  H    0.149605
    35  H    0.149793
    36  H    0.151888
    37  H    0.151987
    38  H    0.155240
    39  H    0.155210
    40  H    0.160317
 Sum of Mulliken charges =  -0.00000

 Dipole moment (field-independent basis, Debye):
    X=              0.0572    Y=             -0.0132    Z=             -0.0088  Tot=              0.0594
 Quadrupole moment (field-independent basis, Debye-Ang):
   XX=            -85.9604   YY=            -85.8670   ZZ=            -83.3010
   XY=              0.0590   XZ=              0.7008   YZ=             -0.5764

 Normal termination of Gaussian 16 at Wed May  5 19:52:39 2021.
