 Gaussian 16, Revision A.03,
 Gaussian 16:  EM64L-G16RevA.03 25-Dec-2016

 -------------
 #p 6-31g* mp2
 -------------

 ------------------------------------------------------
 Input file generated by CHIRIPA (05-May-2021 14:57:24)
 ------------------------------------------------------
 Symbolic Z-matrix:
 Charge =  0 Multiplicity = 1

                         Standard orientation:
 ---------------------------------------------------------------------
 Center     Atomic      Atomic             Coordinates (Angstroms)
 Number     Number       Type             X           Y           Z
 ---------------------------------------------------------------------
      1          6           0        4.865015    2.131879    0.527080
      2          6           0        5.478761    0.903115    0.791608
      3          6           0        4.816603   -0.296034    0.512080
      4          6           0        3.535803   -0.229159   -0.034151
      5          6           0        2.897751    0.979411   -0.308995
      6          6           0        3.578737    2.166045   -0.021411
      7          1           0        5.386709    3.058546    0.747353
      8          1           0        6.477632    0.873544    1.217551
      9          1           0        5.268307   -1.261137    0.706909
     10          1           0        1.901295    0.976889   -0.733833
     11          1           0        3.099638    3.118870   -0.227891
     12          7           0        2.824839   -1.492020   -0.334339
     13          8           0        1.697070   -1.406087   -0.815369
     14          8           0        3.408818   -2.543872   -0.082913
     15          6           0       -6.027366    0.568576    0.639195
     16          6           0       -5.459893    1.159185   -0.494682
     17          6           0       -4.145185    0.863152   -0.866777
     18          6           0       -3.423431   -0.031911   -0.078601
     19          6           0       -3.960825   -0.636605    1.056671
     20          6           0       -5.277343   -0.325858    1.409894
     21          1           0       -7.049365    0.804255    0.920918
     22          1           0       -6.040011    1.854176   -1.095095
     23          1           0       -3.681168    1.306039   -1.739679
     24          1           0       -3.357673   -1.325589    1.635399
     25          1           0       -5.715461   -0.786037    2.290992
     26          7           0       -2.030650   -0.353096   -0.462531
     27          8           0       -1.415775   -1.144871    0.248565
     28          8           0       -1.580236    0.193016   -1.467283
 ---------------------------------------------------------------------

 SCF Done:  E(RHF) =  -868.335750384     A.U. after   16 cycles
 E2 =    -0.2600617436D+01 EUMP2 =    -0.87093636781930D+03

 The electronic state is 1-A.
 Alpha  occ. eigenvalues --  -20.60223 -20.60162 -20.59352 -20.59165 -15.85254
 Alpha  occ. eigenvalues --  -15.84300 -11.30863 -11.30057 -11.27475 -11.27440
 Alpha  occ. eigenvalues --  -11.27245 -11.26737 -11.26587 -11.26558 -11.26534
 Alpha  occ. eigenvalues --  -11.26511 -11.25838 -11.25780  -1.59250  -1.58343
 Alpha  occ. eigenvalues --   -1.38805  -1.37873  -1.19056  -1.18287  -1.08402
 Alpha  occ. eigenvalues --   -1.07625  -1.04494  -1.03742  -0.95194  -0.94380
 Alpha  occ. eigenvalues --   -0.85881  -0.85123  -0.82028  -0.81200  -0.77037
 Alpha  occ. eigenvalues --   -0.76166  -0.71450  -0.70612  -0.70502  -0.70160
 Alpha  occ. eigenvalues --   -0.69684  -0.69394  -0.64702  -0.64495  -0.63925
 Alpha  occ. eigenvalues --   -0.63759  -0.61838  -0.61066  -0.54983  -0.54264
 Alpha  occ. eigenvalues --   -0.52813  -0.52588  -0.52067  -0.51837  -0.48227
 Alpha  occ. eigenvalues --   -0.48170  -0.47323  -0.47231  -0.44170  -0.43159
 Alpha  occ. eigenvalues --   -0.37053  -0.36315  -0.36110  -0.35369
 Alpha virt. eigenvalues --    0.05489   0.06358   0.11540   0.12279   0.16938
 Alpha virt. eigenvalues --    0.17758   0.21652   0.22349   0.27548   0.28223
 Alpha virt. eigenvalues --    0.28564   0.29324   0.31181   0.31857   0.32808

 Mulliken charges:
               1
     1  C   -0.172242
     2  C   -0.219242
     3  C   -0.172122
     4  C    0.157877
     5  C   -0.174017
     6  C   -0.219819
     7  H    0.221028
     8  H    0.219229
     9  H    0.273142
    10  H    0.288515
    11  H    0.220158
    12  N    0.485360
    13  O   -0.438750
    14  O   -0.471003
    15  C   -0.171620
    16  C   -0.218531
    17  C   -0.171952
    18  C    0.158577
    19  C   -0.171407
    20  C   -0.218545
    21  H    0.224291
    22  H    0.221885
    23  H    0.274013
    24  H    0.276975
    25  H    0.222782
    26  N    0.486376
    27  O   -0.446876
    28  O   -0.464081
 Sum of Mulliken charges =  -0.00000

 Dipole moment (field-independent basis, Debye):
    X=             -2.7123    Y=              5.3901    Z=              2.3259  Tot=              6.4668
 Quadrupole moment (field-independent basis, Debye-Ang):
   XX=            -54.1869   YY=           -105.1651   ZZ=           -102.6120
   XY=              9.0057   XZ=              0.8782   YZ=             -4.3517

 Normal termination of Gaussian 16 at Thu May  6 19:37:05 2021.
