 Gaussian 16, Revision A.03,
 Gaussian 16:  EM64L-G16RevA.03 25-Dec-2016

 -------------
 #p 6-31g* mp2
 -------------

 ------------------------------------------------------
 Input file generated by CHIRIPA (05-May-2021 14:57:21)
 ------------------------------------------------------
 Symbolic Z-matrix:
 Charge =  0 Multiplicity = 1

                         Standard orientation:
 ---------------------------------------------------------------------
 Center     Atomic      Atomic             Coordinates (Angstroms)
 Number     Number       Type             X           Y           Z
 ---------------------------------------------------------------------
      1          6           0        1.231618    1.012146    1.094247
      2          6           0        1.918180    0.063713    1.859512
      3          6           0        3.091076   -0.524114    1.376478
      4          6           0        3.551123   -0.138422    0.118349
      5          6           0        2.889559    0.803634   -0.667878
      6          6           0        1.718640    1.378433   -0.164786
      7          1           0        0.321252    1.463724    1.477270
      8          1           0        1.542281   -0.222670    2.837637
      9          1           0        3.642420   -1.260909    1.947941
     10          1           0        3.288818    1.068892   -1.639294
     11          1           0        1.187526    2.114731   -0.761299
     12          7           0        4.791769   -0.753833   -0.403634
     13          8           0        5.176350   -0.396964   -1.515111
     14          8           0        5.356116   -1.581407    0.308595
     15          6           0       -1.878685    2.072621   -0.463665
     16          6           0       -2.615465    1.885884    0.710561
     17          6           0       -3.432108    0.761720    0.865150
     18          6           0       -3.488567   -0.159801   -0.179312
     19          6           0       -2.766558   -0.001822   -1.361274
     20          6           0       -1.956446    1.129835   -1.494017
     21          1           0       -1.246833    2.948809   -0.575268
     22          1           0       -2.557019    2.616419    1.512401
     23          1           0       -4.013143    0.592386    1.763562
     24          1           0       -2.845301   -0.747401   -2.143148
     25          1           0       -1.385368    1.272261   -2.407051
     26          7           0       -4.349654   -1.353869   -0.027218
     27          8           0       -4.382103   -2.151086   -0.962115
     28          8           0       -4.975819   -1.469954    1.024009
 ---------------------------------------------------------------------

 SCF Done:  E(RHF) =  -868.335502615     A.U. after   16 cycles
 E2 =    -0.2602586941D+01 EUMP2 =    -0.87093808955618D+03

 The electronic state is 1-A.
 Alpha  occ. eigenvalues --  -20.61502 -20.61490 -20.61076 -20.61066 -15.86560
 Alpha  occ. eigenvalues --  -15.86134 -11.32160 -11.31565 -11.28784 -11.28716
 Alpha  occ. eigenvalues --  -11.28648 -11.28217 -11.28134 -11.27895 -11.27884
 Alpha  occ. eigenvalues --  -11.27816 -11.27290 -11.27128  -1.60568  -1.60148
 Alpha  occ. eigenvalues --   -1.40115  -1.39700  -1.20383  -1.19763  -1.09781
 Alpha  occ. eigenvalues --   -1.09132  -1.05803  -1.05197  -0.96562  -0.95951
 Alpha  occ. eigenvalues --   -0.87216  -0.86598  -0.83358  -0.82806  -0.78336
 Alpha  occ. eigenvalues --   -0.77847  -0.72776  -0.72355  -0.71895  -0.71608
 Alpha  occ. eigenvalues --   -0.71474  -0.70851  -0.66046  -0.65851  -0.65422
 Alpha  occ. eigenvalues --   -0.65205  -0.63127  -0.62557  -0.56396  -0.55784
 Alpha  occ. eigenvalues --   -0.54111  -0.53894  -0.53428  -0.53285  -0.49553
 Alpha  occ. eigenvalues --   -0.49513  -0.49116  -0.49099  -0.45468  -0.45091
 Alpha  occ. eigenvalues --   -0.38586  -0.37588  -0.37387  -0.36736
 Alpha virt. eigenvalues --    0.04139   0.04737   0.09895   0.11009   0.15489
 Alpha virt. eigenvalues --    0.16191   0.18567   0.22227   0.24730   0.26058
 Alpha virt. eigenvalues --    0.27985   0.29311   0.29714   0.30812   0.32348

 Mulliken charges:
               1
     1  C   -0.166298
     2  C   -0.220226
     3  C   -0.169322
     4  C    0.158407
     5  C   -0.171411
     6  C   -0.218326
     7  H    0.224121
     8  H    0.225219
     9  H    0.277501
    10  H    0.274796
    11  H    0.210053
    12  N    0.488100
    13  O   -0.460700
    14  O   -0.458655
    15  C   -0.178221
    16  C   -0.226210
    17  C   -0.170269
    18  C    0.159840
    19  C   -0.168282
    20  C   -0.213711
    21  H    0.222543
    22  H    0.224224
    23  H    0.278379
    24  H    0.280331
    25  H    0.225381
    26  N    0.487872
    27  O   -0.456529
    28  O   -0.458605
 Sum of Mulliken charges =  -0.00000

 Dipole moment (field-independent basis, Debye):
    X=             -1.5599    Y=              6.0958    Z=              1.2816  Tot=              6.4215
 Quadrupole moment (field-independent basis, Debye-Ang):
   XX=           -157.0944   YY=           -106.3466   ZZ=            -96.6386
   XY=             -7.5618   XZ=              6.6709   YZ=             -1.6474

 Normal termination of Gaussian 16 at Wed May  5 22:33:31 2021.
