 Gaussian 16, Revision A.03,
 Gaussian 16:  EM64L-G16RevA.03 25-Dec-2016

 -------------
 #p 6-31g* mp2
 -------------

 ------------------------------------------------------
 Input file generated by CHIRIPA (05-May-2021 14:51:09)
 ------------------------------------------------------
 Symbolic Z-matrix:
 Charge =  0 Multiplicity = 1

                         Standard orientation:
 ---------------------------------------------------------------------
 Center     Atomic      Atomic             Coordinates (Angstroms)
 Number     Number       Type             X           Y           Z
 ---------------------------------------------------------------------
      1          6           0       -2.441642    0.198973    0.158979
      2          6           0       -3.752577    0.947267    0.402889
      3          6           0       -3.534339    2.404583    0.810803
      4          1           0       -1.829310    0.238390    1.070264
      5          1           0       -1.871253    0.718265   -0.623573
      6          1           0       -4.320951    0.425935    1.183774
      7          1           0       -4.361941    0.905900   -0.509021
      8          1           0       -2.988706    2.945385    0.030791
      9          1           0       -2.947482    2.462694    1.733204
     10          1           0       -4.484510    2.920683    0.980143
     11          6           0       -2.643359   -1.259152   -0.249565
     12          6           0       -1.332424   -2.007445   -0.493475
     13          6           0       -1.550662   -3.464762   -0.901389
     14          1           0       -3.213748   -1.778444    0.532987
     15          1           0       -3.255691   -1.298569   -1.160850
     16          1           0       -0.723060   -1.966079    0.418435
     17          1           0       -0.764050   -1.486114   -1.274360
     18          1           0       -2.137518   -3.522873   -1.823790
     19          1           0       -2.096295   -4.005564   -0.121377
     20          1           0       -0.600491   -3.980862   -1.070729
     21          6           0        3.047615   -0.040907    0.092770
     22          6           0        2.469168   -1.311974    0.715487
     23          6           0        3.491736   -2.445279    0.803638
     24          1           0        3.427865   -0.272536   -0.911572
     25          1           0        3.911828    0.289056    0.685774
     26          1           0        1.605458   -1.638665    0.122282
     27          1           0        2.090078   -1.077250    1.718388
     28          1           0        4.349881   -2.143343    1.412753
     29          1           0        3.862507   -2.707948   -0.192421
     30          1           0        3.057095   -3.344222    1.251801
     31          6           0        2.037387    1.101086   -0.002184
     32          6           0        2.615832    2.372153   -0.624901
     33          6           0        1.593265    3.505458   -0.713052
     34          1           0        1.173173    0.771123   -0.595187
     35          1           0        1.657137    1.332715    1.002159
     36          1           0        2.994922    2.137428   -1.627803
     37          1           0        3.479543    2.698844   -0.031696
     38          1           0        1.222494    3.768127    0.283007
     39          1           0        0.735120    3.203522   -1.322168
     40          1           0        2.027905    4.404400   -1.161215
 ---------------------------------------------------------------------

 SCF Done:  E(RHF) =  -470.732887443     A.U. after   11 cycles
 E2 =    -0.1584052204D+01 EUMP2 =    -0.47231693964662D+03

 The electronic state is 1-A.
 Alpha  occ. eigenvalues --  -11.21607 -11.21594 -11.21572 -11.21484 -11.21407
 Alpha  occ. eigenvalues --  -11.21348 -11.21345 -11.21288 -11.21106 -11.21054
 Alpha  occ. eigenvalues --  -11.21052 -11.21030  -1.08456  -1.08364  -1.03561
 Alpha  occ. eigenvalues --   -1.03468  -0.95991  -0.95934  -0.87010  -0.86946
 Alpha  occ. eigenvalues --   -0.79742  -0.79447  -0.78437  -0.78001  -0.65079
 Alpha  occ. eigenvalues --   -0.65010  -0.60968  -0.60878  -0.59439  -0.59228
 Alpha  occ. eigenvalues --   -0.57667  -0.57477  -0.55271  -0.55227  -0.52698
 Alpha  occ. eigenvalues --   -0.52622  -0.52447  -0.52325  -0.49937  -0.49881
 Alpha  occ. eigenvalues --   -0.48225  -0.47676  -0.46707  -0.46515  -0.46257
 Alpha  occ. eigenvalues --   -0.45780  -0.45593  -0.45092  -0.43788  -0.43725
 Alpha virt. eigenvalues --    0.21000   0.22780   0.23477   0.24377   0.25521
 Alpha virt. eigenvalues --    0.25840   0.26743   0.27575   0.28279   0.30164
 Alpha virt. eigenvalues --    0.30837   0.31151   0.31731   0.31894   0.31971

 Mulliken charges:
               1
     1  C   -0.299318
     2  C   -0.299819
     3  C   -0.475596
     4  H    0.150739
     5  H    0.150101
     6  H    0.151868
     7  H    0.151768
     8  H    0.155675
     9  H    0.155082
    10  H    0.160116
    11  C   -0.297703
    12  C   -0.305282
    13  C   -0.476569
    14  H    0.149559
    15  H    0.149313
    16  H    0.157958
    17  H    0.151398
    18  H    0.155320
    19  H    0.155530
    20  H    0.160406
    21  C   -0.297611
    22  C   -0.308624
    23  C   -0.475238
    24  H    0.148979
    25  H    0.149062
    26  H    0.163912
    27  H    0.150102
    28  H    0.154879
    29  H    0.154760
    30  H    0.159625
    31  C   -0.301353
    32  C   -0.299711
    33  C   -0.475469
    34  H    0.153165
    35  H    0.149377
    36  H    0.151572
    37  H    0.151906
    38  H    0.155670
    39  H    0.154350
    40  H    0.160098
 Sum of Mulliken charges =  -0.00000

 Dipole moment (field-independent basis, Debye):
    X=             -0.0376    Y=             -0.0094    Z=              0.0063  Tot=              0.0393
 Quadrupole moment (field-independent basis, Debye-Ang):
   XX=            -85.3002   YY=            -86.6212   ZZ=            -83.0700
   XY=              0.6971   XZ=              0.1505   YZ=             -0.1579

 Normal termination of Gaussian 16 at Thu May  6 05:18:40 2021.
