 Gaussian 16, Revision A.03,
 Gaussian 16:  EM64L-G16RevA.03 25-Dec-2016

 -------------
 #p 6-31g* mp2
 -------------

 ------------------------------------------------------
 Input file generated by CHIRIPA (05-May-2021 14:57:21)
 ------------------------------------------------------
 Symbolic Z-matrix:
 Charge =  0 Multiplicity = 1

                         Standard orientation:
 ---------------------------------------------------------------------
 Center     Atomic      Atomic             Coordinates (Angstroms)
 Number     Number       Type             X           Y           Z
 ---------------------------------------------------------------------
      1          6           0        3.292096   -2.259223    0.731766
      2          6           0        4.537575   -1.847289    0.246365
      3          6           0        4.743933   -0.520965   -0.144570
      4          6           0        3.678018    0.370882   -0.036285
      5          6           0        2.425489   -0.009075    0.443396
      6          6           0        2.241880   -1.340421    0.828561
      7          1           0        3.140629   -3.291494    1.033212
      8          1           0        5.354996   -2.558662    0.170097
      9          1           0        5.697880   -0.175179   -0.523824
     10          1           0        1.629703    0.723036    0.507880
     11          1           0        1.273549   -1.657517    1.205166
     12          7           0        3.884438    1.777660   -0.447096
     13          8           0        2.929274    2.543978   -0.341951
     14          8           0        4.997485    2.087337   -0.866456
     15          6           0       -4.939691    1.947759    0.545141
     16          6           0       -3.767049    1.637104    1.241508
     17          6           0       -3.041067    0.483505    0.930528
     18          6           0       -3.518735   -0.340771   -0.087162
     19          6           0       -4.683515   -0.058414   -0.799098
     20          6           0       -5.393381    1.100503   -0.471148
     21          1           0       -5.497391    2.845967    0.793309
     22          1           0       -3.412335    2.293257    2.031246
     23          1           0       -2.130113    0.219045    1.453636
     24          1           0       -5.012118   -0.731861   -1.581342
     25          1           0       -6.303741    1.339249   -1.013631
     26          7           0       -2.758701   -1.564848   -0.425365
     27          8           0       -3.200627   -2.274690   -1.326177
     28          8           0       -1.735451   -1.791261    0.216768
 ---------------------------------------------------------------------

 SCF Done:  E(RHF) =  -868.339683055     A.U. after   16 cycles
 E2 =    -0.2598443281D+01 EUMP2 =    -0.87093812633582D+03

 The electronic state is 1-A.
 Alpha  occ. eigenvalues --  -20.61451 -20.61391 -20.60396 -20.60385 -15.86469
 Alpha  occ. eigenvalues --  -15.85437 -11.31604 -11.30618 -11.28183 -11.28115
 Alpha  occ. eigenvalues --  -11.27812 -11.27160 -11.27114 -11.27099 -11.27082
 Alpha  occ. eigenvalues --  -11.26785 -11.26157 -11.25954  -1.60482  -1.59470
 Alpha  occ. eigenvalues --   -1.40050  -1.39030  -1.19745  -1.18743  -1.09176
 Alpha  occ. eigenvalues --   -1.08165  -1.05118  -1.04104  -0.96056  -0.95044
 Alpha  occ. eigenvalues --   -0.86527  -0.85506  -0.82906  -0.81873  -0.77986
 Alpha  occ. eigenvalues --   -0.76953  -0.72707  -0.71785  -0.71663  -0.70855
 Alpha  occ. eigenvalues --   -0.70788  -0.69851  -0.65407  -0.65116  -0.64386
 Alpha  occ. eigenvalues --   -0.64066  -0.62480  -0.61448  -0.55613  -0.54597
 Alpha  occ. eigenvalues --   -0.53449  -0.53210  -0.52456  -0.52167  -0.49467
 Alpha  occ. eigenvalues --   -0.49411  -0.48429  -0.48396  -0.45503  -0.44477
 Alpha  occ. eigenvalues --   -0.37697  -0.36707  -0.36704  -0.35697
 Alpha virt. eigenvalues --    0.04544   0.05551   0.10947   0.11956   0.16092
 Alpha virt. eigenvalues --    0.17115   0.20703   0.22153   0.26174   0.27361
 Alpha virt. eigenvalues --    0.28776   0.29005   0.30854   0.31576   0.32866

 Mulliken charges:
               1
     1  C   -0.171626
     2  C   -0.218326
     3  C   -0.172761
     4  C    0.158405
     5  C   -0.172500
     6  C   -0.219652
     7  H    0.227026
     8  H    0.221498
     9  H    0.273182
    10  H    0.269823
    11  H    0.240937
    12  N    0.488363
    13  O   -0.464046
    14  O   -0.461778
    15  C   -0.169743
    16  C   -0.217191
    17  C   -0.169904
    18  C    0.159033
    19  C   -0.170337
    20  C   -0.218043
    21  H    0.228081
    22  H    0.225922
    23  H    0.268959
    24  H    0.276401
    25  H    0.225320
    26  N    0.492895
    27  O   -0.455844
    28  O   -0.474095
 Sum of Mulliken charges =  -0.00000

 Dipole moment (field-independent basis, Debye):
    X=             -3.7934    Y=             -0.7103    Z=              2.6280  Tot=              4.6691
 Quadrupole moment (field-independent basis, Debye-Ang):
   XX=            -84.7077   YY=           -112.0330   ZZ=           -103.4926
   XY=            -34.0915   XZ=              3.0359   YZ=              1.2433

 Normal termination of Gaussian 16 at Wed May  5 17:43:17 2021.
