 Gaussian 16, Revision A.03,
 Gaussian 16:  EM64L-G16RevA.03 25-Dec-2016

 -------------
 #p 6-31g* mp2
 -------------

 ------------------------------------------------------
 Input file generated by CHIRIPA (05-May-2021 14:53:16)
 ------------------------------------------------------
 Symbolic Z-matrix:
 Charge =  0 Multiplicity = 1

                         Standard orientation:
 ---------------------------------------------------------------------
 Center     Atomic      Atomic             Coordinates (Angstroms)
 Number     Number       Type             X           Y           Z
 ---------------------------------------------------------------------
      1          6           0        2.317552    1.145858    0.457621
      2          6           0        1.742998    2.414602   -0.173379
      3          6           0        0.662810    3.067182    0.689829
      4          1           0        1.503085    0.429489    0.631988
      5          1           0        2.734171    1.391682    1.444229
      6          1           0        1.328825    2.166725   -1.159094
      7          1           0        2.558956    3.127960   -0.346440
      8          1           0        1.066702    3.342522    1.669452
      9          1           0       -0.170418    2.375826    0.852180
     10          1           0        0.265895    3.972431    0.219889
     11          6           0        3.398572    0.481997   -0.393502
     12          6           0        3.973126   -0.786747    0.237498
     13          6           0        5.053314   -1.439327   -0.625710
     14          1           0        2.981953    0.236174   -1.380110
     15          1           0        4.213039    1.198366   -0.567869
     16          1           0        3.157169   -1.500105    0.410559
     17          1           0        4.387299   -0.538870    1.223213
     18          1           0        5.886542   -0.747970   -0.788061
     19          1           0        4.649422   -1.714667   -1.605332
     20          1           0        5.450229   -2.344576   -0.155770
     21          6           0       -0.093544   -1.855916    0.523371
     22          6           0       -0.349467   -1.447264   -0.789651
     23          6           0       -1.531486   -0.770565   -1.105024
     24          6           0       -2.439682   -0.517933   -0.078066
     25          6           0       -2.213390   -0.912290    1.239722
     26          6           0       -1.024681   -1.587598    1.532089
     27          1           0        0.827274   -2.381052    0.759426
     28          1           0        0.371860   -1.654283   -1.575065
     29          1           0       -1.754927   -0.442912   -2.113059
     30          1           0       -2.951467   -0.691597    2.001270
     31          1           0       -0.828582   -1.903779    2.552687
     32          7           0       -3.694573    0.197722   -0.399759
     33          8           0       -4.478637    0.408197    0.523052
     34          8           0       -3.870331    0.534626   -1.568623
 ---------------------------------------------------------------------

 SCF Done:  E(RHF) =  -669.534523499     A.U. after   15 cycles
 E2 =    -0.2094712327D+01 EUMP2 =    -0.67162923582635D+03

 The electronic state is 1-A.
 Alpha  occ. eigenvalues --  -20.60851 -20.60846 -15.85909 -11.31332 -11.27903
 Alpha  occ. eigenvalues --  -11.27896 -11.27610 -11.26907 -11.26896 -11.22517
 Alpha  occ. eigenvalues --  -11.22027 -11.21860 -11.21835 -11.21632 -11.21157
 Alpha  occ. eigenvalues --   -1.59927  -1.39478  -1.19512  -1.09020  -1.08845
 Alpha  occ. eigenvalues --   -1.04907  -1.04032  -0.96454  -0.95719  -0.87470
 Alpha  occ. eigenvalues --   -0.86302  -0.82545  -0.80148  -0.78743  -0.77578
 Alpha  occ. eigenvalues --   -0.72124  -0.71252  -0.70626  -0.65682  -0.65143
 Alpha  occ. eigenvalues --   -0.64863  -0.62243  -0.61453  -0.59853  -0.58063
 Alpha  occ. eigenvalues --   -0.55767  -0.55420  -0.53321  -0.53148  -0.52990
 Alpha  occ. eigenvalues --   -0.52840  -0.50412  -0.48889  -0.48876  -0.48436
 Alpha  occ. eigenvalues --   -0.47212  -0.46265  -0.46162  -0.44873  -0.44263
 Alpha  occ. eigenvalues --   -0.37361  -0.36507
 Alpha virt. eigenvalues --    0.04917   0.11073   0.16295   0.19359   0.22972
 Alpha virt. eigenvalues --    0.23758   0.25343   0.25734   0.27285   0.28143
 Alpha virt. eigenvalues --    0.29145   0.30280   0.31184   0.31334   0.32076

 Mulliken charges:
               1
     1  C   -0.308160
     2  C   -0.298361
     3  C   -0.476787
     4  H    0.159777
     5  H    0.148026
     6  H    0.150191
     7  H    0.152008
     8  H    0.154156
     9  H    0.156702
    10  H    0.163432
    11  C   -0.297920
    12  C   -0.301020
    13  C   -0.475324
    14  H    0.144503
    15  H    0.153237
    16  H    0.139118
    17  H    0.155506
    18  H    0.159517
    19  H    0.153304
    20  H    0.160753
    21  C   -0.176362
    22  C   -0.217996
    23  C   -0.170855
    24  C    0.158714
    25  C   -0.171102
    26  C   -0.217421
    27  H    0.231479
    28  H    0.224886
    29  H    0.276320
    30  H    0.276537
    31  H    0.224895
    32  N    0.488035
    33  O   -0.459856
    34  O   -0.459933
 Sum of Mulliken charges =  -0.00000

 Dipole moment (field-independent basis, Debye):
    X=              4.3600    Y=             -2.4957    Z=              1.1591  Tot=              5.1558
 Quadrupole moment (field-independent basis, Debye-Ang):
   XX=           -116.5143   YY=            -92.8561   ZZ=            -90.4213
   XY=              4.9438   XZ=             -3.9485   YZ=             -0.8252

 Normal termination of Gaussian 16 at Wed May  5 20:20:41 2021.
