 Gaussian 16, Revision A.03,
 Gaussian 16:  EM64L-G16RevA.03 25-Dec-2016

 -------------
 #p 6-31g* mp2
 -------------

 ------------------------------------------------------
 Input file generated by CHIRIPA (05-May-2021 14:55:23)
 ------------------------------------------------------
 Symbolic Z-matrix:
 Charge =  0 Multiplicity = 1

                         Standard orientation:
 ---------------------------------------------------------------------
 Center     Atomic      Atomic             Coordinates (Angstroms)
 Number     Number       Type             X           Y           Z
 ---------------------------------------------------------------------
      1          6           0        4.532233    2.256462    0.345302
      2          6           0        3.198804    2.135196    0.750005
      3          6           0        2.492417    0.950549    0.521583
      4          6           0        3.153422   -0.097558   -0.117036
      5          6           0        4.481159   -0.007364   -0.532088
      6          6           0        5.168033    1.186681   -0.293327
      7          1           0        5.073392    3.180375    0.526762
      8          1           0        2.702486    2.964361    1.246189
      9          1           0        1.459424    0.829644    0.824446
     10          1           0        4.949073   -0.851208   -1.024432
     11          1           0        6.203518    1.278026   -0.608720
     12          7           0        2.415930   -1.356666   -0.364330
     13          8           0        3.020936   -2.265451   -0.928876
     14          8           0        1.246841   -1.410927    0.011071
     15          6           0       -3.709091   -0.443915    0.605926
     16          6           0       -2.964212   -1.670445    0.077943
     17          6           0       -2.001939   -2.265683    1.106300
     18          1           0       -2.978458    0.317901    0.910486
     19          1           0       -4.265416   -0.723120    1.511432
     20          1           0       -2.410565   -1.389343   -0.827083
     21          1           0       -3.696707   -2.429355   -0.225574
     22          1           0       -2.542819   -2.573532    2.007009
     23          1           0       -1.249370   -1.527610    1.402083
     24          1           0       -1.480085   -3.141403    0.708000
     25          6           0       -4.674830    0.162423   -0.410651
     26          6           0       -5.419709    1.388953    0.117332
     27          6           0       -6.381982    1.984191   -0.911025
     28          1           0       -4.118506    0.441628   -1.316158
     29          1           0       -5.405464   -0.599393   -0.715211
     30          1           0       -4.687215    2.147863    0.420850
     31          1           0       -5.973357    1.107851    1.022358
     32          1           0       -7.134552    1.246119   -1.206809
     33          1           0       -5.841102    2.292039   -1.811735
     34          1           0       -6.903837    2.859911   -0.512725
 ---------------------------------------------------------------------

 SCF Done:  E(RHF) =  -669.535675168     A.U. after   15 cycles
 E2 =    -0.2091011549D+01 EUMP2 =    -0.67162668671710D+03

 The electronic state is 1-A.
 Alpha  occ. eigenvalues --  -20.60890 -20.60885 -15.85931 -11.31280 -11.27853
 Alpha  occ. eigenvalues --  -11.27842 -11.27586 -11.26861 -11.26850 -11.21273
 Alpha  occ. eigenvalues --  -11.20887 -11.20814 -11.20715 -11.20543 -11.19631
 Alpha  occ. eigenvalues --   -1.59958  -1.39514  -1.19452  -1.08850  -1.07802
 Alpha  occ. eigenvalues --   -1.04853  -1.02791  -0.95694  -0.95220  -0.86264
 Alpha  occ. eigenvalues --   -0.86235  -0.82522  -0.78904  -0.77609  -0.77541
 Alpha  occ. eigenvalues --   -0.72160  -0.71276  -0.70561  -0.65111  -0.64856
 Alpha  occ. eigenvalues --   -0.64438  -0.62202  -0.60177  -0.58661  -0.56822
 Alpha  occ. eigenvalues --   -0.55354  -0.54507  -0.53182  -0.52946  -0.51883
 Alpha  occ. eigenvalues --   -0.51667  -0.49237  -0.48908  -0.48849  -0.47195
 Alpha  occ. eigenvalues --   -0.45956  -0.45123  -0.45050  -0.44879  -0.43050
 Alpha  occ. eigenvalues --   -0.37431  -0.36455
 Alpha virt. eigenvalues --    0.04959   0.11199   0.16451   0.21151   0.23360
 Alpha virt. eigenvalues --    0.24781   0.26725   0.27396   0.27857   0.28187
 Alpha virt. eigenvalues --    0.29072   0.30672   0.31719   0.32336   0.32723

 Mulliken charges:
               1
     1  C   -0.170684
     2  C   -0.218530
     3  C   -0.170577
     4  C    0.157869
     5  C   -0.170810
     6  C   -0.218521
     7  H    0.225956
     8  H    0.223786
     9  H    0.274935
    10  H    0.275866
    11  H    0.223786
    12  N    0.494024
    13  O   -0.459630
    14  O   -0.465056
    15  C   -0.296594
    16  C   -0.300675
    17  C   -0.471649
    18  H    0.144316
    19  H    0.147265
    20  H    0.156643
    21  H    0.147819
    22  H    0.144062
    23  H    0.161813
    24  H    0.169476
    25  C   -0.297685
    26  C   -0.298642
    27  C   -0.475262
    28  H    0.148877
    29  H    0.149467
    30  H    0.148895
    31  H    0.151292
    32  H    0.155378
    33  H    0.154421
    34  H    0.158368
 Sum of Mulliken charges =  -0.00000

 Dipole moment (field-independent basis, Debye):
    X=              2.8736    Y=              4.3572    Z=              0.8166  Tot=              5.2829
 Quadrupole moment (field-independent basis, Debye-Ang):
   XX=            -76.1316   YY=            -95.2983   ZZ=            -95.2540
   XY=             13.1261   XZ=             -0.1080   YZ=              0.6946

 Normal termination of Gaussian 16 at Wed May  5 16:01:12 2021.
