 Gaussian 16, Revision A.03,
 Gaussian 16:  EM64L-G16RevA.03 25-Dec-2016

 -------------
 #p 6-31g* mp2
 -------------

 ------------------------------------------------------
 Input file generated by CHIRIPA (05-May-2021 14:57:24)
 ------------------------------------------------------
 Symbolic Z-matrix:
 Charge =  0 Multiplicity = 1

                         Standard orientation:
 ---------------------------------------------------------------------
 Center     Atomic      Atomic             Coordinates (Angstroms)
 Number     Number       Type             X           Y           Z
 ---------------------------------------------------------------------
      1          6           0        3.789253   -1.562035   -0.729509
      2          6           0        4.255273   -0.532069    0.094213
      3          6           0        3.463006    0.593005    0.341332
      4          6           0        2.204148    0.655578   -0.254193
      5          6           0        1.711777   -0.354189   -1.079560
      6          6           0        2.521227   -1.469970   -1.312738
      7          1           0        4.411379   -2.432410   -0.916062
      8          1           0        5.239622   -0.600871    0.548492
      9          1           0        3.799022    1.404852    0.974906
     10          1           0        0.726137   -0.257192   -1.518336
     11          1           0        2.156714   -2.268337   -1.952883
     12          7           0        1.356314    1.841725    0.000041
     13          8           0        0.250967    1.872864   -0.536498
     14          8           0        1.813183    2.717827    0.731035
     15          6           0       -3.859987    0.708289   -1.347756
     16          6           0       -3.519192    1.333082   -0.143591
     17          6           0       -2.679932    0.695106    0.774655
     18          6           0       -2.197309   -0.573042    0.455016
     19          6           0       -2.518685   -1.221594   -0.736365
     20          6           0       -3.359528   -0.564811   -1.639785
     21          1           0       -4.512560    1.211188   -2.055313
     22          1           0       -3.906375    2.321762    0.085855
     23          1           0       -2.400070    1.155810    1.714254
     24          1           0       -2.117131   -2.207424   -0.937134
     25          1           0       -3.622514   -1.052444   -2.574182
     26          7           0       -1.307984   -1.258393    1.419274
     27          8           0       -0.895956   -2.375407    1.114070
     28          8           0       -1.039798   -0.665580    2.462004
 ---------------------------------------------------------------------

 SCF Done:  E(RHF) =  -868.338893632     A.U. after   16 cycles
 E2 =    -0.2601859867D+01 EUMP2 =    -0.87094075349948D+03

 The electronic state is 1-A.
 Alpha  occ. eigenvalues --  -20.60606 -20.60589 -20.60479 -20.60445 -15.85620
 Alpha  occ. eigenvalues --  -15.85498 -11.30774 -11.30593 -11.27334 -11.27301
 Alpha  occ. eigenvalues --  -11.27285 -11.27064 -11.27022 -11.26887 -11.26304
 Alpha  occ. eigenvalues --  -11.26291 -11.26241 -11.26029  -1.59666  -1.59541
 Alpha  occ. eigenvalues --   -1.39230  -1.39103  -1.18917  -1.18758  -1.08360
 Alpha  occ. eigenvalues --   -1.08216  -1.04300  -1.04139  -0.95243  -0.95090
 Alpha  occ. eigenvalues --   -0.85724  -0.85567  -0.82085  -0.81943  -0.77163
 Alpha  occ. eigenvalues --   -0.77017  -0.71879  -0.71732  -0.71103  -0.70725
 Alpha  occ. eigenvalues --   -0.70053  -0.69915  -0.64591  -0.64442  -0.64328
 Alpha  occ. eigenvalues --   -0.64177  -0.61682  -0.61514  -0.54830  -0.54687
 Alpha  occ. eigenvalues --   -0.52626  -0.52515  -0.52319  -0.52261  -0.48639
 Alpha  occ. eigenvalues --   -0.48598  -0.48502  -0.48460  -0.44712  -0.44545
 Alpha  occ. eigenvalues --   -0.36880  -0.36694  -0.35868  -0.35634
 Alpha virt. eigenvalues --    0.05302   0.05564   0.11668   0.11990   0.16913
 Alpha virt. eigenvalues --    0.17087   0.21702   0.22047   0.27389   0.28009
 Alpha virt. eigenvalues --    0.28585   0.28924   0.31265   0.31484   0.32654

 Mulliken charges:
               1
     1  C   -0.168859
     2  C   -0.217366
     3  C   -0.168406
     4  C    0.159986
     5  C   -0.172648
     6  C   -0.211815
     7  H    0.225094
     8  H    0.222753
     9  H    0.274751
    10  H    0.271783
    11  H    0.221719
    12  N    0.489490
    13  O   -0.467806
    14  O   -0.459621
    15  C   -0.168715
    16  C   -0.212425
    17  C   -0.152273
    18  C    0.160264
    19  C   -0.180172
    20  C   -0.218986
    21  H    0.223982
    22  H    0.224943
    23  H    0.277654
    24  H    0.267907
    25  H    0.218848
    26  N    0.486537
    27  O   -0.467775
    28  O   -0.458846
 Sum of Mulliken charges =  -0.00000

 Dipole moment (field-independent basis, Debye):
    X=             -0.1058    Y=             -1.5160    Z=             -4.1233  Tot=              4.3944
 Quadrupole moment (field-independent basis, Debye-Ang):
   XX=            -75.8420   YY=           -110.2960   ZZ=           -105.0524
   XY=            -10.6872   XZ=              5.4279   YZ=              7.7649

 Normal termination of Gaussian 16 at Thu May  6 13:00:06 2021.
