 Gaussian 16, Revision A.03,
 Gaussian 16:  EM64L-G16RevA.03 25-Dec-2016

 -------------
 #p 6-31g* mp2
 -------------

 ------------------------------------------------------
 Input file generated by CHIRIPA (05-May-2021 14:53:16)
 ------------------------------------------------------
 Symbolic Z-matrix:
 Charge =  0 Multiplicity = 1

                         Standard orientation:
 ---------------------------------------------------------------------
 Center     Atomic      Atomic             Coordinates (Angstroms)
 Number     Number       Type             X           Y           Z
 ---------------------------------------------------------------------
      1          6           0        2.999283   -1.170122    0.140662
      2          6           0        1.511611   -1.125897   -0.209852
      3          6           0        0.768955   -2.397039    0.203010
      4          1           0        3.458905   -2.040123   -0.348000
      5          1           0        3.109414   -1.325112    1.222902
      6          1           0        1.404315   -0.969654   -1.290913
      7          1           0        1.055517   -0.255792    0.279546
      8          1           0        0.846334   -2.554639    1.283646
      9          1           0        1.197114   -3.272558   -0.295736
     10          1           0       -0.292873   -2.344000   -0.056931
     11          6           0        3.755291    0.093574   -0.265850
     12          6           0        5.242963    0.049349    0.084664
     13          6           0        5.985620    1.320490   -0.328198
     14          1           0        3.645160    0.248563   -1.348091
     15          1           0        3.295669    0.963575    0.222812
     16          1           0        5.699057   -0.820757   -0.404735
     17          1           0        5.350259   -0.106895    1.165724
     18          1           0        5.557460    2.196009    0.170547
     19          1           0        5.908240    1.478091   -1.408835
     20          1           0        7.047447    1.267452   -0.068258
     21          6           0       -3.350922   -1.985534   -0.214271
     22          6           0       -2.760813   -1.556761    0.979230
     23          6           0       -2.362184   -0.225964    1.136153
     24          6           0       -2.569632    0.653135    0.074344
     25          6           0       -3.154877    0.256291   -1.127026
     26          6           0       -3.545728   -1.079237   -1.261744
     27          1           0       -3.657565   -3.021166   -0.327548
     28          1           0       -2.608288   -2.258395    1.794393
     29          1           0       -1.902962    0.132759    2.049308
     30          1           0       -3.293902    0.978973   -1.921898
     31          1           0       -4.003766   -1.409421   -2.189766
     32          7           0       -2.151739    2.064495    0.228718
     33          8           0       -2.345491    2.819347   -0.721701
     34          8           0       -1.638355    2.389142    1.297211
 ---------------------------------------------------------------------

 SCF Done:  E(RHF) =  -669.534790445     A.U. after   15 cycles
 E2 =    -0.2093187423D+01 EUMP2 =    -0.67162797786860D+03

 The electronic state is 1-A.
 Alpha  occ. eigenvalues --  -20.60839 -20.60833 -15.85889 -11.31280 -11.27820
 Alpha  occ. eigenvalues --  -11.27812 -11.27558 -11.26865 -11.26826 -11.21572
 Alpha  occ. eigenvalues --  -11.21421 -11.21304 -11.21161 -11.21107 -11.20845
 Alpha  occ. eigenvalues --   -1.59910  -1.39463  -1.19449  -1.08843  -1.08310
 Alpha  occ. eigenvalues --   -1.04852  -1.03435  -0.95894  -0.95667  -0.86925
 Alpha  occ. eigenvalues --   -0.86237  -0.82495  -0.79507  -0.78109  -0.77541
 Alpha  occ. eigenvalues --   -0.72106  -0.71231  -0.70539  -0.65094  -0.64943
 Alpha  occ. eigenvalues --   -0.64843  -0.62189  -0.60843  -0.59339  -0.57552
 Alpha  occ. eigenvalues --   -0.55341  -0.55195  -0.53455  -0.52933  -0.52446
 Alpha  occ. eigenvalues --   -0.52097  -0.49841  -0.48867  -0.48861  -0.47823
 Alpha  occ. eigenvalues --   -0.46541  -0.45658  -0.45574  -0.44859  -0.43704
 Alpha  occ. eigenvalues --   -0.37382  -0.36370
 Alpha virt. eigenvalues --    0.04975   0.11140   0.16447   0.21204   0.22983
 Alpha virt. eigenvalues --    0.24372   0.26603   0.27171   0.27514   0.28233
 Alpha virt. eigenvalues --    0.28361   0.30693   0.31440   0.31898   0.32157

 Mulliken charges:
               1
     1  C   -0.297760
     2  C   -0.299966
     3  C   -0.483429
     4  H    0.148167
     5  H    0.148588
     6  H    0.151940
     7  H    0.154230
     8  H    0.148716
     9  H    0.152525
    10  H    0.167220
    11  C   -0.299485
    12  C   -0.299565
    13  C   -0.475922
    14  H    0.149522
    15  H    0.154670
    16  H    0.150421
    17  H    0.151540
    18  H    0.157524
    19  H    0.155159
    20  H    0.159384
    21  C   -0.172157
    22  C   -0.219127
    23  C   -0.168583
    24  C    0.160040
    25  C   -0.171346
    26  C   -0.217513
    27  H    0.226582
    28  H    0.225338
    29  H    0.275771
    30  H    0.275929
    31  H    0.224044
    32  N    0.488029
    33  O   -0.459799
    34  O   -0.460688
 Sum of Mulliken charges =  -0.00000

 Dipole moment (field-independent basis, Debye):
    X=             -1.5868    Y=             -4.8767    Z=             -0.5552  Tot=              5.1583
 Quadrupole moment (field-independent basis, Debye-Ang):
   XX=            -87.7164   YY=           -102.5249   ZZ=            -89.8796
   XY=             11.3459   XZ=              3.0266   YZ=             -1.1710

 Normal termination of Gaussian 16 at Wed May  5 15:40:54 2021.
