 Gaussian 16, Revision A.03,
 Gaussian 16:  EM64L-G16RevA.03 25-Dec-2016

 -------------
 #p 6-31g* mp2
 -------------

 ------------------------------------------------------
 Input file generated by CHIRIPA (05-May-2021 14:57:26)
 ------------------------------------------------------
 Symbolic Z-matrix:
 Charge =  0 Multiplicity = 1

                         Standard orientation:
 ---------------------------------------------------------------------
 Center     Atomic      Atomic             Coordinates (Angstroms)
 Number     Number       Type             X           Y           Z
 ---------------------------------------------------------------------
      1          6           0       -2.202646    1.972213   -0.495567
      2          6           0       -1.698129    0.718014   -0.136444
      3          6           0       -2.562013   -0.360373    0.076470
      4          6           0       -3.930963   -0.148115   -0.079132
      5          6           0       -4.464174    1.089442   -0.436105
      6          6           0       -3.581627    2.153604   -0.643990
      7          1           0       -1.524311    2.804406   -0.659011
      8          1           0       -0.627654    0.574227   -0.020463
      9          1           0       -2.198389   -1.341950    0.355225
     10          1           0       -5.536115    1.202044   -0.544191
     11          1           0       -3.976266    3.126519   -0.922813
     12          7           0       -4.855397   -1.282226    0.143608
     13          8           0       -6.057360   -1.069279    0.000166
     14          8           0       -4.360502   -2.362614    0.457418
     15          6           0        2.746734    2.156397    0.810303
     16          6           0        2.134354    0.950792    1.168115
     17          6           0        2.697193   -0.271445    0.788780
     18          6           0        3.878363   -0.251025    0.048705
     19          6           0        4.512326    0.933520   -0.323095
     20          6           0        3.931677    2.143934    0.067149
     21          1           0        2.302589    3.101268    1.109216
     22          1           0        1.214058    0.957434    1.745225
     23          1           0        2.244139   -1.219456    1.052284
     24          1           0        5.429156    0.894898   -0.898724
     25          1           0        4.409465    3.078684   -0.212148
     26          7           0        4.483643   -1.538695   -0.358655
     27          8           0        5.524734   -1.493685   -1.010376
     28          8           0        3.905510   -2.568597   -0.018508
 ---------------------------------------------------------------------

 SCF Done:  E(RHF) =  -868.336975177     A.U. after   16 cycles
 E2 =    -0.2600319105D+01 EUMP2 =    -0.87093729428116D+03

 The electronic state is 1-A.
 Alpha  occ. eigenvalues --  -20.61378 -20.61373 -20.61053 -20.61047 -15.86441
 Alpha  occ. eigenvalues --  -15.86110 -11.32015 -11.31589 -11.28672 -11.28597
 Alpha  occ. eigenvalues --  -11.28437 -11.28185 -11.28164 -11.27982 -11.27733
 Alpha  occ. eigenvalues --  -11.27629 -11.27215 -11.27205  -1.60450  -1.60126
 Alpha  occ. eigenvalues --   -1.39997  -1.39676  -1.20231  -1.19780  -1.09585
 Alpha  occ. eigenvalues --   -1.09162  -1.05674  -1.05200  -0.96377  -0.95975
 Alpha  occ. eigenvalues --   -0.87061  -0.86592  -0.83215  -0.82801  -0.78226
 Alpha  occ. eigenvalues --   -0.77817  -0.72652  -0.72326  -0.71778  -0.71452
 Alpha  occ. eigenvalues --   -0.71327  -0.70908  -0.65880  -0.65769  -0.65435
 Alpha  occ. eigenvalues --   -0.65146  -0.63036  -0.62493  -0.56163  -0.55726
 Alpha  occ. eigenvalues --   -0.54028  -0.53792  -0.53517  -0.53193  -0.49429
 Alpha  occ. eigenvalues --   -0.49396  -0.49094  -0.49074  -0.45356  -0.45056
 Alpha  occ. eigenvalues --   -0.38224  -0.37782  -0.37274  -0.36806
 Alpha virt. eigenvalues --    0.04308   0.04712   0.10250   0.10810   0.15601
 Alpha virt. eigenvalues --    0.16144   0.19742   0.21732   0.25589   0.26959
 Alpha virt. eigenvalues --    0.28224   0.28254   0.29703   0.31342   0.31650

 Mulliken charges:
               1
     1  C   -0.172803
     2  C   -0.226417
     3  C   -0.171797
     4  C    0.159344
     5  C   -0.170380
     6  C   -0.218107
     7  H    0.222573
     8  H    0.225009
     9  H    0.276843
    10  H    0.277055
    11  H    0.224084
    12  N    0.487957
    13  O   -0.459372
    14  O   -0.458753
    15  C   -0.173508
    16  C   -0.226896
    17  C   -0.172666
    18  C    0.159723
    19  C   -0.168763
    20  C   -0.218310
    21  H    0.225837
    22  H    0.224325
    23  H    0.277763
    24  H    0.278871
    25  H    0.226164
    26  N    0.487983
    27  O   -0.457848
    28  O   -0.457910
 Sum of Mulliken charges =  -0.00000

 Dipole moment (field-independent basis, Debye):
    X=              1.3023    Y=              8.4752    Z=              0.5963  Tot=              8.5954
 Quadrupole moment (field-independent basis, Debye-Ang):
   XX=           -139.9996   YY=           -105.9946   ZZ=           -104.7893
   XY=              1.5117   XZ=              7.2933   YZ=             -2.4183

 Normal termination of Gaussian 16 at Fri May  7 00:27:55 2021.
