 Gaussian 16, Revision A.03,
 Gaussian 16:  EM64L-G16RevA.03 25-Dec-2016

 -------------
 #p 6-31g* mp2
 -------------

 ------------------------------------------------------
 Input file generated by CHIRIPA (05-May-2021 14:53:15)
 ------------------------------------------------------
 Symbolic Z-matrix:
 Charge =  0 Multiplicity = 1

                         Standard orientation:
 ---------------------------------------------------------------------
 Center     Atomic      Atomic             Coordinates (Angstroms)
 Number     Number       Type             X           Y           Z
 ---------------------------------------------------------------------
      1          6           0       -2.831949   -0.196624   -0.513415
      2          6           0       -3.045415   -1.527336    0.208818
      3          6           0       -3.529800   -2.636183   -0.725861
      4          1           0       -3.772953    0.109273   -0.990785
      5          1           0       -2.102837   -0.339615   -1.322949
      6          1           0       -3.772869   -1.381564    1.017631
      7          1           0       -2.103843   -1.830005    0.684685
      8          1           0       -2.802995   -2.810562   -1.525829
      9          1           0       -4.481504   -2.359573   -1.190991
     10          1           0       -3.675888   -3.578599   -0.188860
     11          6           0       -2.347708    0.921742    0.407723
     12          6           0       -2.134241    2.252455   -0.314510
     13          6           0       -1.649857    3.361301    0.620169
     14          1           0       -3.076819    1.064734    1.217257
     15          1           0       -1.406703    0.615845    0.885093
     16          1           0       -3.075813    2.555124   -0.790377
     17          1           0       -1.406787    2.106683   -1.123323
     18          1           0       -0.698152    3.084691    1.085299
     19          1           0       -2.376661    3.535680    1.420137
     20          1           0       -1.503768    4.303717    0.083168
     21          6           0        1.759931   -2.715419    0.658625
     22          6           0        2.169121   -2.360929   -0.631112
     23          6           0        2.318382   -1.016473   -0.984254
     24          6           0        2.048765   -0.048116   -0.018396
     25          6           0        1.639481   -0.369550    1.274839
     26          6           0        1.496880   -1.720353    1.605814
     27          1           0        1.646568   -3.762290    0.924343
     28          1           0        2.374107   -3.131579   -1.368761
     29          1           0        2.633753   -0.714020   -1.975455
     30          1           0        1.442482    0.421138    1.988577
     31          1           0        1.178949   -1.992717    2.608202
     32          7           0        2.203255    1.378558   -0.380517
     33          8           0        1.959524    2.212716    0.488628
     34          8           0        2.565152    1.635615   -1.526638
 ---------------------------------------------------------------------

 SCF Done:  E(RHF) =  -669.536427070     A.U. after   15 cycles
 E2 =    -0.2093414021D+01 EUMP2 =    -0.67162984109191D+03

 The electronic state is 1-A.
 Alpha  occ. eigenvalues --  -20.61006 -20.61001 -15.86034 -11.31376 -11.27945
 Alpha  occ. eigenvalues --  -11.27927 -11.27671 -11.26955 -11.26930 -11.21669
 Alpha  occ. eigenvalues --  -11.21269 -11.21238 -11.21108 -11.20999 -11.20088
 Alpha  occ. eigenvalues --   -1.60062  -1.39619  -1.19545  -1.08940  -1.08209
 Alpha  occ. eigenvalues --   -1.04941  -1.03224  -0.95782  -0.95658  -0.86683
 Alpha  occ. eigenvalues --   -0.86335  -0.82611  -0.79329  -0.78004  -0.77655
 Alpha  occ. eigenvalues --   -0.72257  -0.71384  -0.70642  -0.65200  -0.64939
 Alpha  occ. eigenvalues --   -0.64837  -0.62284  -0.60609  -0.59100  -0.57264
 Alpha  occ. eigenvalues --   -0.55434  -0.54952  -0.53259  -0.53025  -0.52342
 Alpha  occ. eigenvalues --   -0.52091  -0.49621  -0.49018  -0.49000  -0.47629
 Alpha  occ. eigenvalues --   -0.46386  -0.45588  -0.45475  -0.44862  -0.43492
 Alpha  occ. eigenvalues --   -0.37504  -0.36510
 Alpha virt. eigenvalues --    0.04818   0.11021   0.16290   0.21041   0.22862
 Alpha virt. eigenvalues --    0.24368   0.26182   0.27180   0.27752   0.28028
 Alpha virt. eigenvalues --    0.28718   0.30450   0.31538   0.31830   0.32264

 Mulliken charges:
               1
     1  C   -0.296947
     2  C   -0.300034
     3  C   -0.475228
     4  H    0.150118
     5  H    0.149081
     6  H    0.151158
     7  H    0.148487
     8  H    0.153691
     9  H    0.156715
    10  H    0.157127
    11  C   -0.300522
    12  C   -0.299847
    13  C   -0.481928
    14  H    0.147587
    15  H    0.145790
    16  H    0.149383
    17  H    0.154256
    18  H    0.172815
    19  H    0.147246
    20  H    0.162428
    21  C   -0.170592
    22  C   -0.218272
    23  C   -0.171036
    24  C    0.158768
    25  C   -0.170844
    26  C   -0.218863
    27  H    0.226847
    28  H    0.224383
    29  H    0.276179
    30  H    0.276494
    31  H    0.225102
    32  N    0.489011
    33  O   -0.459951
    34  O   -0.458605
 Sum of Mulliken charges =  -0.00000

 Dipole moment (field-independent basis, Debye):
    X=             -0.2979    Y=             -4.9757    Z=              1.2462  Tot=              5.1380
 Quadrupole moment (field-independent basis, Debye-Ang):
   XX=            -96.9090   YY=            -95.1091   ZZ=            -90.8807
   XY=            -11.3727   XZ=              0.9011   YZ=              0.8877

 Normal termination of Gaussian 16 at Wed May  5 18:39:51 2021.
