 Gaussian 16, Revision A.03,
 Gaussian 16:  EM64L-G16RevA.03 25-Dec-2016

 -------------
 #p 6-31g* mp2
 -------------

 ------------------------------------------------------
 Input file generated by CHIRIPA (05-May-2021 14:51:13)
 ------------------------------------------------------
 Symbolic Z-matrix:
 Charge =  0 Multiplicity = 1

                         Standard orientation:
 ---------------------------------------------------------------------
 Center     Atomic      Atomic             Coordinates (Angstroms)
 Number     Number       Type             X           Y           Z
 ---------------------------------------------------------------------
      1          6           0       -4.391324    0.097381   -0.261855
      2          6           0       -5.849663   -0.241706    0.048393
      3          6           0       -6.821790    0.838377   -0.427195
      4          1           0       -4.136027    1.056045    0.210091
      5          1           0       -4.278350    0.242415   -1.345181
      6          1           0       -5.959567   -0.387417    1.130661
      7          1           0       -6.101462   -1.199768   -0.424187
      8          1           0       -6.741445    0.979288   -1.509918
      9          1           0       -6.598744    1.796254    0.053764
     10          1           0       -7.858627    0.575608   -0.195287
     11          6           0       -3.407439   -0.972849    0.207513
     12          6           0       -1.949101   -0.633762   -0.102735
     13          6           0       -0.976973   -1.713845    0.372853
     14          1           0       -3.520413   -1.117883    1.290839
     15          1           0       -3.662736   -1.931513   -0.264433
     16          1           0       -1.697301    0.324299    0.369845
     17          1           0       -1.839196   -0.488051   -1.185003
     18          1           0       -1.200019   -2.671723   -0.108106
     19          1           0       -1.057318   -1.854756    1.455576
     20          1           0        0.059864   -1.451077    0.140945
     21          6           0        3.295241    0.582148    0.471683
     22          6           0        2.195267    1.372284   -0.238054
     23          6           0        0.993300    1.653403    0.664188
     24          1           0        2.879002   -0.366803    0.836624
     25          1           0        3.624227    1.140872    1.358808
     26          1           0        1.869422    0.812887   -1.124348
     27          1           0        2.614221    2.319379   -0.601516
     28          1           0        1.297732    2.232070    1.542291
     29          1           0        0.548700    0.717018    1.016489
     30          1           0        0.219032    2.219244    0.136748
     31          6           0        4.503521    0.293320   -0.417341
     32          6           0        5.603496   -0.496816    0.292396
     33          6           0        6.805463   -0.777934   -0.609846
     34          1           0        4.174537   -0.265404   -1.304466
     35          1           0        4.919762    1.242272   -0.782281
     36          1           0        5.184542   -1.443912    0.655858
     37          1           0        5.929342    0.062581    1.178689
     38          1           0        7.250063    0.158451   -0.962147
     39          1           0        6.501032   -1.356602   -1.487950
     40          1           0        7.579731   -1.343776   -0.082406
 ---------------------------------------------------------------------

 SCF Done:  E(RHF) =  -470.731973872     A.U. after   11 cycles
 E2 =    -0.1583783224D+01 EUMP2 =    -0.47231575709551D+03

 The electronic state is 1-A.
 Alpha  occ. eigenvalues --  -11.21597 -11.21594 -11.21588 -11.21518 -11.21407
 Alpha  occ. eigenvalues --  -11.21381 -11.21348 -11.21321 -11.21107 -11.21066
 Alpha  occ. eigenvalues --  -11.21061 -11.20968  -1.08448  -1.08393  -1.03604
 Alpha  occ. eigenvalues --   -1.03447  -0.96072  -0.95889  -0.87014  -0.86981
 Alpha  occ. eigenvalues --   -0.79663  -0.79516  -0.78261  -0.78200  -0.65148
 Alpha  occ. eigenvalues --   -0.64993  -0.61214  -0.60784  -0.59342  -0.59309
 Alpha  occ. eigenvalues --   -0.57676  -0.57527  -0.55424  -0.55039  -0.52694
 Alpha  occ. eigenvalues --   -0.52679  -0.52465  -0.52293  -0.49935  -0.49875
 Alpha  occ. eigenvalues --   -0.47949  -0.47836  -0.46761  -0.46463  -0.45808
 Alpha  occ. eigenvalues --   -0.45747  -0.45730  -0.45582  -0.43813  -0.43712
 Alpha virt. eigenvalues --    0.20820   0.23002   0.23655   0.25249   0.26118
 Alpha virt. eigenvalues --    0.26557   0.26975   0.27471   0.27929   0.29213
 Alpha virt. eigenvalues --    0.30604   0.31319   0.31547   0.31816   0.32495

 Mulliken charges:
               1
     1  C   -0.298294
     2  C   -0.299608
     3  C   -0.475708
     4  H    0.149707
     5  H    0.149376
     6  H    0.151928
     7  H    0.151895
     8  H    0.155121
     9  H    0.155189
    10  H    0.160207
    11  C   -0.297678
    12  C   -0.304332
    13  C   -0.481250
    14  H    0.149279
    15  H    0.149163
    16  H    0.159277
    17  H    0.151232
    18  H    0.156381
    19  H    0.155210
    20  H    0.161830
    21  C   -0.300123
    22  C   -0.300180
    23  C   -0.482469
    24  H    0.150359
    25  H    0.149793
    26  H    0.151896
    27  H    0.152127
    28  H    0.154254
    29  H    0.164765
    30  H    0.160436
    31  C   -0.298204
    32  C   -0.299695
    33  C   -0.475711
    34  H    0.149463
    35  H    0.149719
    36  H    0.152096
    37  H    0.151923
    38  H    0.155150
    39  H    0.155200
    40  H    0.160273
 Sum of Mulliken charges =  -0.00000

 Dipole moment (field-independent basis, Debye):
    X=             -0.0010    Y=              0.0092    Z=              0.0107  Tot=              0.0142
 Quadrupole moment (field-independent basis, Debye-Ang):
   XX=            -86.2731   YY=            -84.4167   ZZ=            -84.2414
   XY=              1.1989   XZ=              0.4506   YZ=              0.7497

 Normal termination of Gaussian 16 at Thu May  6 05:33:53 2021.
