 Gaussian 16, Revision A.03,
 Gaussian 16:  EM64L-G16RevA.03 25-Dec-2016

 -------------
 #p 6-31g* mp2
 -------------

 ------------------------------------------------------
 Input file generated by CHIRIPA (05-May-2021 14:53:17)
 ------------------------------------------------------
 Symbolic Z-matrix:
 Charge =  0 Multiplicity = 1

                         Standard orientation:
 ---------------------------------------------------------------------
 Center     Atomic      Atomic             Coordinates (Angstroms)
 Number     Number       Type             X           Y           Z
 ---------------------------------------------------------------------
      1          6           0        2.171452    0.813619   -0.556539
      2          6           0        2.014471    2.300286   -0.877729
      3          6           0        0.650215    2.633623   -1.482284
      4          1           0        2.022952    0.228966   -1.474730
      5          1           0        1.376990    0.510069    0.139221
      6          1           0        2.809819    2.601262   -1.571596
      7          1           0        2.163552    2.881480    0.041295
      8          1           0       -0.154242    2.361007   -0.791538
      9          1           0        0.495697    2.079197   -2.413593
     10          1           0        0.559521    3.701521   -1.704157
     11          6           0        3.530109    0.464713    0.048477
     12          6           0        3.687090   -1.021954    0.369666
     13          6           0        5.051346   -1.355291    0.974221
     14          1           0        4.324571    0.768263   -0.647284
     15          1           0        3.678609    1.049366    0.966667
     16          1           0        3.538009   -1.603148   -0.549357
     17          1           0        2.891742   -1.322930    1.063533
     18          1           0        5.205864   -0.800864    1.905530
     19          1           0        5.855804   -1.082675    0.283476
     20          1           0        5.142040   -2.423189    1.196095
     21          6           0       -3.113010    1.602230    1.277621
     22          6           0       -1.875322    1.082009    1.670074
     23          6           0       -1.374663   -0.081821    1.078984
     24          6           0       -2.141533   -0.702521    0.094133
     25          6           0       -3.378166   -0.208745   -0.318436
     26          6           0       -3.859167    0.956331    0.286366
     27          1           0       -3.494298    2.506805    1.742119
     28          1           0       -1.293677    1.581513    2.439640
     29          1           0       -0.419569   -0.506204    1.363787
     30          1           0       -3.935119   -0.728918   -1.088267
     31          1           0       -4.820695    1.358072   -0.020412
     32          7           0       -1.621914   -1.935276   -0.538886
     33          8           0       -2.316826   -2.463333   -1.404269
     34          8           0       -0.529563   -2.350109   -0.157676
 ---------------------------------------------------------------------

 SCF Done:  E(RHF) =  -669.535090263     A.U. after   15 cycles
 E2 =    -0.2093571573D+01 EUMP2 =    -0.67162866183586D+03

 The electronic state is 1-A.
 Alpha  occ. eigenvalues --  -20.60815 -20.60802 -15.85860 -11.31253 -11.27842
 Alpha  occ. eigenvalues --  -11.27827 -11.27591 -11.26873 -11.26840 -11.21590
 Alpha  occ. eigenvalues --  -11.21257 -11.21213 -11.21161 -11.21034 -11.20762
 Alpha  occ. eigenvalues --   -1.59881  -1.39433  -1.19445  -1.08826  -1.08269
 Alpha  occ. eigenvalues --   -1.04859  -1.03350  -0.95820  -0.95656  -0.86838
 Alpha  occ. eigenvalues --   -0.86246  -0.82489  -0.79409  -0.78093  -0.77500
 Alpha  occ. eigenvalues --   -0.72080  -0.71199  -0.70558  -0.65101  -0.65019
 Alpha  occ. eigenvalues --   -0.64772  -0.62208  -0.60763  -0.59187  -0.57413
 Alpha  occ. eigenvalues --   -0.55373  -0.55116  -0.53204  -0.52960  -0.52504
 Alpha  occ. eigenvalues --   -0.52206  -0.49765  -0.48843  -0.48835  -0.47709
 Alpha  occ. eigenvalues --   -0.46449  -0.45623  -0.45526  -0.44783  -0.43613
 Alpha  occ. eigenvalues --   -0.37410  -0.36397
 Alpha virt. eigenvalues --    0.04972   0.11121   0.16457   0.20541   0.23065
 Alpha virt. eigenvalues --    0.24265   0.25315   0.27229   0.27684   0.27933
 Alpha virt. eigenvalues --    0.29509   0.30934   0.31502   0.31852   0.32153

 Mulliken charges:
               1
     1  C   -0.299319
     2  C   -0.298800
     3  C   -0.480639
     4  H    0.157166
     5  H    0.143702
     6  H    0.152953
     7  H    0.146727
     8  H    0.156715
     9  H    0.157385
    10  H    0.157411
    11  C   -0.299032
    12  C   -0.298919
    13  C   -0.476055
    14  H    0.149698
    15  H    0.144612
    16  H    0.159644
    17  H    0.152737
    18  H    0.151700
    19  H    0.154322
    20  H    0.162280
    21  C   -0.170473
    22  C   -0.220223
    23  C   -0.169675
    24  C    0.159420
    25  C   -0.170480
    26  C   -0.217967
    27  H    0.226312
    28  H    0.224166
    29  H    0.277016
    30  H    0.275996
    31  H    0.223980
    32  N    0.488317
    33  O   -0.460330
    34  O   -0.460348
 Sum of Mulliken charges =  -0.00000

 Dipole moment (field-independent basis, Debye):
    X=             -1.9231    Y=              4.1834    Z=              2.1643  Tot=              5.0875
 Quadrupole moment (field-independent basis, Debye-Ang):
   XX=            -84.4641   YY=           -101.9709   ZZ=            -92.5143
   XY=             -8.0346   XZ=             -3.3920   YZ=             -0.4843

 Normal termination of Gaussian 16 at Thu May  6 20:31:59 2021.
