 Gaussian 16, Revision A.03,
 Gaussian 16:  EM64L-G16RevA.03 25-Dec-2016

 -------------
 #p 6-31g* mp2
 -------------

 ------------------------------------------------------
 Input file generated by CHIRIPA (05-May-2021 14:53:16)
 ------------------------------------------------------
 Symbolic Z-matrix:
 Charge =  0 Multiplicity = 1

                         Standard orientation:
 ---------------------------------------------------------------------
 Center     Atomic      Atomic             Coordinates (Angstroms)
 Number     Number       Type             X           Y           Z
 ---------------------------------------------------------------------
      1          6           0       -3.468753   -0.482048   -0.557796
      2          6           0       -4.164621   -1.829576   -0.363061
      3          6           0       -3.482299   -2.963401   -1.129007
      4          1           0       -3.444947   -0.240309   -1.629216
      5          1           0       -2.422418   -0.567303   -0.233282
      6          1           0       -5.209703   -1.741426   -0.686553
      7          1           0       -4.186943   -2.068045    0.708037
      8          1           0       -2.444461   -3.080194   -0.800600
      9          1           0       -3.473032   -2.751719   -2.203114
     10          1           0       -3.996073   -3.917544   -0.975682
     11          6           0       -4.139217    0.661357    0.201697
     12          6           0       -3.443350    2.008885    0.006962
     13          6           0       -4.125671    3.142710    0.772907
     14          1           0       -5.185552    0.746611   -0.122817
     15          1           0       -4.163023    0.419617    1.273117
     16          1           0       -3.421027    2.247354   -1.064136
     17          1           0       -2.398267    1.920734    0.330454
     18          1           0       -4.134938    2.931027    1.847014
     19          1           0       -5.163510    3.259503    0.444500
     20          1           0       -3.611897    4.096852    0.619583
     21          6           0        0.965173   -1.087229    1.281226
     22          6           0        2.251339   -1.543074    1.588639
     23          6           0        3.370445   -0.986780    0.961990
     24          6           0        3.165863    0.028296    0.028685
     25          6           0        1.897123    0.503952   -0.298946
     26          6           0        0.792475   -0.066969    0.340074
     27          1           0        0.101440   -1.525052    1.772827
     28          1           0        2.388466   -2.335288    2.319143
     29          1           0        4.377358   -1.320721    1.181141
     30          1           0        1.792120    1.295069   -1.031426
     31          1           0       -0.205204    0.289034    0.099359
     32          7           0        4.342958    0.624962   -0.641269
     33          8           0        4.135965    1.518064   -1.459901
     34          8           0        5.450269    0.188229   -0.335059
 ---------------------------------------------------------------------

 SCF Done:  E(RHF) =  -669.535397282     A.U. after   15 cycles
 E2 =    -0.2091705505D+01 EUMP2 =    -0.67162710278691D+03

 The electronic state is 1-A.
 Alpha  occ. eigenvalues --  -20.60741 -20.60736 -15.85794 -11.31162 -11.27733
 Alpha  occ. eigenvalues --  -11.27720 -11.27482 -11.26753 -11.26709 -11.22532
 Alpha  occ. eigenvalues --  -11.22489 -11.22429 -11.22278 -11.21833 -11.21761
 Alpha  occ. eigenvalues --   -1.59817  -1.39370  -1.19334  -1.09369  -1.08732
 Alpha  occ. eigenvalues --   -1.04736  -1.04373  -0.96808  -0.95566  -0.87817
 Alpha  occ. eigenvalues --   -0.86142  -0.82397  -0.80444  -0.79213  -0.77439
 Alpha  occ. eigenvalues --   -0.72013  -0.71139  -0.70450  -0.66072  -0.64986
 Alpha  occ. eigenvalues --   -0.64707  -0.62087  -0.61772  -0.60173  -0.58421
 Alpha  occ. eigenvalues --   -0.56100  -0.55245  -0.53472  -0.53235  -0.53064
 Alpha  occ. eigenvalues --   -0.52833  -0.50749  -0.48779  -0.48768  -0.48752
 Alpha  occ. eigenvalues --   -0.47496  -0.46694  -0.46644  -0.44775  -0.44652
 Alpha  occ. eigenvalues --   -0.37320  -0.36335
 Alpha virt. eigenvalues --    0.05089   0.11255   0.16565   0.18785   0.22799
 Alpha virt. eigenvalues --    0.23102   0.24603   0.26097   0.27086   0.27851
 Alpha virt. eigenvalues --    0.29340   0.30601   0.30947   0.31271   0.32196

 Mulliken charges:
               1
     1  C   -0.302420
     2  C   -0.300105
     3  C   -0.475927
     4  H    0.154073
     5  H    0.140334
     6  H    0.156064
     7  H    0.150688
     8  H    0.152333
     9  H    0.158391
    10  H    0.163089
    11  C   -0.298747
    12  C   -0.303036
    13  C   -0.475986
    14  H    0.154184
    15  H    0.149413
    16  H    0.155087
    17  H    0.145936
    18  H    0.156085
    19  H    0.158027
    20  H    0.163435
    21  C   -0.173732
    22  C   -0.218372
    23  C   -0.171239
    24  C    0.159076
    25  C   -0.172479
    26  C   -0.227964
    27  H    0.224932
    28  H    0.223292
    29  H    0.275546
    30  H    0.276257
    31  H    0.236692
    32  N    0.487947
    33  O   -0.460328
    34  O   -0.460546
 Sum of Mulliken charges =  -0.00000

 Dipole moment (field-independent basis, Debye):
    X=             -4.3845    Y=             -2.0760    Z=              2.3035  Tot=              5.3703
 Quadrupole moment (field-independent basis, Debye-Ang):
   XX=           -118.3235   YY=            -93.9390   ZZ=            -93.3757
   XY=             -8.8322   XZ=             10.0759   YZ=             -2.3972

 Normal termination of Gaussian 16 at Thu May  6 17:16:05 2021.
