 Gaussian 16, Revision A.03,
 Gaussian 16:  EM64L-G16RevA.03 25-Dec-2016

 -------------
 #p 6-31g* mp2
 -------------

 ------------------------------------------------------
 Input file generated by CHIRIPA (05-May-2021 14:51:09)
 ------------------------------------------------------
 Symbolic Z-matrix:
 Charge =  0 Multiplicity = 1

                         Standard orientation:
 ---------------------------------------------------------------------
 Center     Atomic      Atomic             Coordinates (Angstroms)
 Number     Number       Type             X           Y           Z
 ---------------------------------------------------------------------
      1          6           0        4.046511   -0.143374   -0.358391
      2          6           0        5.484025   -0.376423    0.107686
      3          6           0        6.519973    0.175169   -0.872290
      4          1           0        3.906826   -0.610114   -1.343067
      5          1           0        3.883683    0.934380   -0.497416
      6          1           0        5.643678   -1.453309    0.247121
      7          1           0        5.620249    0.090761    1.091453
      8          1           0        6.389248    1.254104   -1.004245
      9          1           0        6.412811   -0.298740   -1.853375
     10          1           0        7.540715   -0.002260   -0.519493
     11          6           0        2.999397   -0.689234    0.610793
     12          6           0        1.561883   -0.456186    0.144717
     13          6           0        0.525935   -1.007778    1.124692
     14          1           0        3.162225   -1.766988    0.749818
     15          1           0        3.139082   -0.222495    1.595469
     16          1           0        1.425659   -0.923370   -0.839050
     17          1           0        1.402230    0.620701    0.005282
     18          1           0        0.633097   -0.533869    2.105777
     19          1           0        0.656660   -2.086712    1.256648
     20          1           0       -0.494807   -0.830349    0.771895
     21          6           0       -3.781773   -0.242728    0.160365
     22          6           0       -4.616507   -1.050174   -0.834238
     23          6           0       -5.127167   -2.365968   -0.246268
     24          1           0       -2.930484   -0.851662    0.494209
     25          1           0       -4.387355   -0.035718    1.053569
     26          1           0       -4.009982   -1.254413   -1.725882
     27          1           0       -5.465801   -0.439177   -1.165898
     28          1           0       -5.754366   -2.178109    0.631190
     29          1           0       -4.290275   -2.997975    0.068024
     30          1           0       -5.721398   -2.927128   -0.974174
     31          6           0       -3.264134    1.075337   -0.412768
     32          6           0       -2.429401    1.882783    0.581835
     33          6           0       -1.918742    3.198576   -0.006135
     34          1           0       -2.658553    0.868327   -1.305971
     35          1           0       -4.115424    1.684271   -0.746611
     36          1           0       -1.580107    1.271786    0.913496
     37          1           0       -3.035926    2.087022    1.473480
     38          1           0       -2.755634    3.830585   -0.320426
     39          1           0       -1.291543    3.010717   -0.883592
     40          1           0       -1.324510    3.759737    0.721771
 ---------------------------------------------------------------------

 SCF Done:  E(RHF) =  -470.732762449     A.U. after   11 cycles
 E2 =    -0.1583491767D+01 EUMP2 =    -0.47231625421614D+03

 The electronic state is 1-A.
 Alpha  occ. eigenvalues --  -11.21670 -11.21624 -11.21595 -11.21531 -11.21444
 Alpha  occ. eigenvalues --  -11.21395 -11.21383 -11.21335 -11.21123 -11.21088
 Alpha  occ. eigenvalues --  -11.21059 -11.21054  -1.08479  -1.08415  -1.03588
 Alpha  occ. eigenvalues --   -1.03501  -0.96032  -0.95966  -0.87055  -0.86977
 Alpha  occ. eigenvalues --   -0.79651  -0.79569  -0.78284  -0.78234  -0.65152
 Alpha  occ. eigenvalues --   -0.65056  -0.61068  -0.60846  -0.59442  -0.59281
 Alpha  occ. eigenvalues --   -0.57647  -0.57566  -0.55341  -0.55233  -0.52808
 Alpha  occ. eigenvalues --   -0.52613  -0.52448  -0.52390  -0.50002  -0.49875
 Alpha  occ. eigenvalues --   -0.47985  -0.47884  -0.46684  -0.46585  -0.45828
 Alpha  occ. eigenvalues --   -0.45760  -0.45745  -0.45677  -0.43793  -0.43717
 Alpha virt. eigenvalues --    0.20634   0.23046   0.23769   0.24758   0.26103
 Alpha virt. eigenvalues --    0.26535   0.26995   0.27572   0.27822   0.28894
 Alpha virt. eigenvalues --    0.31060   0.31458   0.31744   0.31853   0.32136

 Mulliken charges:
               1
     1  C   -0.298310
     2  C   -0.299688
     3  C   -0.475739
     4  H    0.149634
     5  H    0.149722
     6  H    0.151963
     7  H    0.152035
     8  H    0.155276
     9  H    0.155190
    10  H    0.160343
    11  C   -0.298527
    12  C   -0.300845
    13  C   -0.485114
    14  H    0.149754
    15  H    0.149925
    16  H    0.151823
    17  H    0.153073
    18  H    0.155715
    19  H    0.155754
    20  H    0.168320
    21  C   -0.304907
    22  C   -0.299190
    23  C   -0.475816
    24  H    0.154653
    25  H    0.149958
    26  H    0.151795
    27  H    0.152022
    28  H    0.155238
    29  H    0.155417
    30  H    0.160190
    31  C   -0.298095
    32  C   -0.307351
    33  C   -0.475501
    34  H    0.149266
    35  H    0.149802
    36  H    0.160616
    37  H    0.151679
    38  H    0.155083
    39  H    0.155075
    40  H    0.159762
 Sum of Mulliken charges =  -0.00000

 Dipole moment (field-independent basis, Debye):
    X=              0.0207    Y=             -0.0134    Z=              0.0126  Tot=              0.0277
 Quadrupole moment (field-independent basis, Debye-Ang):
   XX=            -85.0077   YY=            -84.8923   ZZ=            -84.8870
   XY=             -1.1100   XZ=              0.3489   YZ=              1.0991

 Normal termination of Gaussian 16 at Wed May  5 22:59:06 2021.
