 Gaussian 16, Revision A.03,
 Gaussian 16:  EM64L-G16RevA.03 25-Dec-2016

 -------------
 #p 6-31g* mp2
 -------------

 ------------------------------------------------------
 Input file generated by CHIRIPA (05-May-2021 14:57:26)
 ------------------------------------------------------
 Symbolic Z-matrix:
 Charge =  0 Multiplicity = 1

                         Standard orientation:
 ---------------------------------------------------------------------
 Center     Atomic      Atomic             Coordinates (Angstroms)
 Number     Number       Type             X           Y           Z
 ---------------------------------------------------------------------
      1          6           0       -5.479585    1.657131   -1.032808
      2          6           0       -4.269530    2.031493   -0.439393
      3          6           0       -3.415634    1.065983    0.102087
      4          6           0       -3.804930   -0.270769    0.032567
      5          6           0       -5.004016   -0.675273   -0.552121
      6          6           0       -5.842326    0.307322   -1.087182
      7          1           0       -6.136858    2.413798   -1.450949
      8          1           0       -3.985241    3.079024   -0.395746
      9          1           0       -2.473096    1.327992    0.567264
     10          1           0       -5.260231   -1.727393   -0.580675
     11          1           0       -6.781468    0.013673   -1.547430
     12          7           0       -2.909199   -1.301955    0.602410
     13          8           0       -3.275115   -2.472974    0.528537
     14          8           0       -1.858169   -0.919653    1.112136
     15          6           0        2.193910    0.540409    1.816297
     16          6           0        2.110402   -0.601030    1.012143
     17          6           0        3.079180   -0.854704    0.036609
     18          6           0        4.122577    0.058318   -0.108313
     19          6           0        4.233355    1.204459    0.677423
     20          6           0        3.253252    1.437928    1.646669
     21          1           0        1.436941    0.729623    2.571673
     22          1           0        1.288817   -1.299794    1.141650
     23          1           0        3.038863   -1.730518   -0.599584
     24          1           0        5.064097    1.882698    0.524853
     25          1           0        3.320657    2.325209    2.269756
     26          7           0        5.154174   -0.199540   -1.137737
     27          8           0        6.063491    0.620304   -1.245599
     28          8           0        5.033888   -1.216611   -1.817249
 ---------------------------------------------------------------------

 SCF Done:  E(RHF) =  -868.340064546     A.U. after   16 cycles
 E2 =    -0.2598321443D+01 EUMP2 =    -0.87093838598815D+03

 The electronic state is 1-A.
 Alpha  occ. eigenvalues --  -20.61704 -20.61652 -20.60233 -20.60222 -15.86715
 Alpha  occ. eigenvalues --  -15.85274 -11.31828 -11.30494 -11.28389 -11.28346
 Alpha  occ. eigenvalues --  -11.28051 -11.27329 -11.27304 -11.27073 -11.26940
 Alpha  occ. eigenvalues --  -11.26666 -11.26085 -11.25775  -1.60739  -1.59309
 Alpha  occ. eigenvalues --   -1.40303  -1.38866  -1.19974  -1.18624  -1.09413
 Alpha  occ. eigenvalues --   -1.08036  -1.05341  -1.03985  -0.96293  -0.94906
 Alpha  occ. eigenvalues --   -0.86750  -0.85375  -0.83139  -0.81732  -0.78214
 Alpha  occ. eigenvalues --   -0.76808  -0.72957  -0.72039  -0.71495  -0.71079
 Alpha  occ. eigenvalues --   -0.70631  -0.69713  -0.65633  -0.65340  -0.64258
 Alpha  occ. eigenvalues --   -0.63928  -0.62695  -0.61311  -0.55844  -0.54463
 Alpha  occ. eigenvalues --   -0.53679  -0.53431  -0.52353  -0.52033  -0.49715
 Alpha  occ. eigenvalues --   -0.49666  -0.48261  -0.48235  -0.45759  -0.44305
 Alpha  occ. eigenvalues --   -0.37933  -0.36931  -0.36600  -0.35593
 Alpha virt. eigenvalues --    0.04302   0.05685   0.10728   0.12058   0.15844
 Alpha virt. eigenvalues --    0.17235   0.20850   0.22309   0.26788   0.27596
 Alpha virt. eigenvalues --    0.28368   0.29067   0.30537   0.31830   0.32122

 Mulliken charges:
               1
     1  C   -0.169766
     2  C   -0.218202
     3  C   -0.169992
     4  C    0.158154
     5  C   -0.170166
     6  C   -0.218387
     7  H    0.227952
     8  H    0.224827
     9  H    0.272419
    10  H    0.276824
    11  H    0.225724
    12  N    0.490957
    13  O   -0.455887
    14  O   -0.472509
    15  C   -0.174269
    16  C   -0.223094
    17  C   -0.173915
    18  C    0.158187
    19  C   -0.173426
    20  C   -0.219536
    21  H    0.227703
    22  H    0.246054
    23  H    0.275252
    24  H    0.272306
    25  H    0.219196
    26  N    0.488035
    27  O   -0.463238
    28  O   -0.461205
 Sum of Mulliken charges =  -0.00000

 Dipole moment (field-independent basis, Debye):
    X=             -7.3105    Y=              4.4275    Z=              1.5942  Tot=              8.6941
 Quadrupole moment (field-independent basis, Debye-Ang):
   XX=           -108.6055   YY=           -100.9585   ZZ=           -106.5580
   XY=             -5.0925   XZ=             25.1848   YZ=              2.9406

 Normal termination of Gaussian 16 at Fri May  7 11:15:09 2021.
