 Gaussian 16, Revision A.03,
 Gaussian 16:  EM64L-G16RevA.03 25-Dec-2016

 -------------
 #p 6-31g* mp2
 -------------

 ------------------------------------------------------
 Input file generated by CHIRIPA (05-May-2021 14:51:08)
 ------------------------------------------------------
 Symbolic Z-matrix:
 Charge =  0 Multiplicity = 1

                         Standard orientation:
 ---------------------------------------------------------------------
 Center     Atomic      Atomic             Coordinates (Angstroms)
 Number     Number       Type             X           Y           Z
 ---------------------------------------------------------------------
      1          6           0        5.219389    0.234315   -0.471269
      2          6           0        6.036593   -0.974143   -0.013237
      3          6           0        7.368631   -1.101719   -0.752963
      4          1           0        5.034568    0.155868   -1.551377
      5          1           0        5.812168    1.147251   -0.321084
      6          1           0        5.441919   -1.884397   -0.162955
      7          1           0        6.219326   -0.892907    1.065941
      8          1           0        7.984436   -0.210582   -0.594027
      9          1           0        7.202612   -1.207706   -1.829905
     10          1           0        7.936567   -1.972155   -0.409963
     11          6           0        3.885054    0.375329    0.259068
     12          6           0        3.067850    1.583786   -0.198964
     13          6           0        1.735812    1.711362    0.540761
     14          1           0        3.292274   -0.537607    0.108883
     15          1           0        4.069874    0.453776    1.339175
     16          1           0        2.885117    1.502550   -1.278142
     17          1           0        3.662524    2.494041   -0.049247
     18          1           0        1.901831    1.817350    1.617704
     19          1           0        1.120006    0.820226    0.381826
     20          1           0        1.167875    2.581798    0.197761
     21          6           0       -3.921077   -0.047580    0.450940
     22          6           0       -2.846403   -1.120803    0.627724
     23          6           0       -1.589833   -0.590878    1.319103
     24          1           0       -3.505069    0.786585   -0.130483
     25          1           0       -4.187672    0.360205    1.435842
     26          1           0       -2.582908   -1.527416   -0.357087
     27          1           0       -3.265076   -1.952596    1.208630
     28          1           0       -1.832007   -0.202844    2.313780
     29          1           0       -1.145964    0.224753    0.739167
     30          1           0       -0.834740   -1.374587    1.435269
     31          6           0       -5.183366   -0.562064   -0.238739
     32          6           0       -6.258039    0.511160   -0.415523
     33          6           0       -7.514610   -0.018765   -1.106902
     34          1           0       -4.916770   -0.969849   -1.223641
     35          1           0       -5.599374   -1.396229    0.342684
     36          1           0       -5.839367    1.342952   -0.996428
     37          1           0       -6.521535    0.917772    0.569289
     38          1           0       -7.958479   -0.834396   -0.526966
     39          1           0       -7.272436   -0.406800   -2.101578
     40          1           0       -8.269702    0.764945   -1.223067
 ---------------------------------------------------------------------

 SCF Done:  E(RHF) =  -470.733113181     A.U. after   11 cycles
 E2 =    -0.1582244001D+01 EUMP2 =    -0.47231535718266D+03

 The electronic state is 1-A.
 Alpha  occ. eigenvalues --  -11.21592 -11.21588 -11.21578 -11.21564 -11.21390
 Alpha  occ. eigenvalues --  -11.21382 -11.21331 -11.21322 -11.21064 -11.21061
 Alpha  occ. eigenvalues --  -11.21010 -11.20985  -1.08416  -1.08403  -1.03527
 Alpha  occ. eigenvalues --   -1.03486  -0.96002  -0.95912  -0.87050  -0.86900
 Alpha  occ. eigenvalues --   -0.79646  -0.79498  -0.78239  -0.78204  -0.65069
 Alpha  occ. eigenvalues --   -0.65016  -0.61014  -0.60814  -0.59346  -0.59303
 Alpha  occ. eigenvalues --   -0.57611  -0.57530  -0.55450  -0.55070  -0.52716
 Alpha  occ. eigenvalues --   -0.52649  -0.52470  -0.52237  -0.50116  -0.49676
 Alpha  occ. eigenvalues --   -0.47981  -0.47782  -0.46726  -0.46454  -0.45809
 Alpha  occ. eigenvalues --   -0.45728  -0.45708  -0.45614  -0.43766  -0.43756
 Alpha virt. eigenvalues --    0.22529   0.22998   0.23708   0.24735   0.26203
 Alpha virt. eigenvalues --    0.26735   0.26963   0.27509   0.27715   0.28974
 Alpha virt. eigenvalues --    0.30723   0.31593   0.31734   0.31834   0.31973

 Mulliken charges:
               1
     1  C   -0.298256
     2  C   -0.299628
     3  C   -0.475687
     4  H    0.149515
     5  H    0.149501
     6  H    0.151863
     7  H    0.151953
     8  H    0.155169
     9  H    0.155125
    10  H    0.160204
    11  C   -0.298312
    12  C   -0.299564
    13  C   -0.480845
    14  H    0.149550
    15  H    0.149723
    16  H    0.151420
    17  H    0.151642
    18  H    0.155503
    19  H    0.161752
    20  H    0.159098
    21  C   -0.298466
    22  C   -0.299545
    23  C   -0.480452
    24  H    0.149860
    25  H    0.149605
    26  H    0.151412
    27  H    0.151748
    28  H    0.155485
    29  H    0.161350
    30  H    0.159438
    31  C   -0.298266
    32  C   -0.299643
    33  C   -0.475694
    34  H    0.149405
    35  H    0.149627
    36  H    0.151930
    37  H    0.151951
    38  H    0.155164
    39  H    0.155134
    40  H    0.160230
 Sum of Mulliken charges =  -0.00000

 Dipole moment (field-independent basis, Debye):
    X=             -0.0089    Y=              0.0024    Z=              0.0126  Tot=              0.0156
 Quadrupole moment (field-independent basis, Debye-Ang):
   XX=            -86.4992   YY=            -84.5744   ZZ=            -83.8590
   XY=              0.3092   XZ=             -0.0578   YZ=             -0.0054

 Normal termination of Gaussian 16 at Wed May  5 19:41:39 2021.
