 Gaussian 16, Revision A.03,
 Gaussian 16:  EM64L-G16RevA.03 25-Dec-2016

 -------------
 #p 6-31g* mp2
 -------------

 ------------------------------------------------------
 Input file generated by CHIRIPA (05-May-2021 14:55:24)
 ------------------------------------------------------
 Symbolic Z-matrix:
 Charge =  0 Multiplicity = 1

                         Standard orientation:
 ---------------------------------------------------------------------
 Center     Atomic      Atomic             Coordinates (Angstroms)
 Number     Number       Type             X           Y           Z
 ---------------------------------------------------------------------
      1          6           0        1.655242    0.324750   -0.555548
      2          6           0        2.214039   -0.944561   -0.373569
      3          6           0        3.573635   -1.086410   -0.080439
      4          6           0        4.348635    0.067614    0.023936
      5          6           0        3.821228    1.345977   -0.151902
      6          6           0        2.459202    1.463960   -0.444330
      7          1           0        0.598131    0.425672   -0.782986
      8          1           0        1.592077   -1.831043   -0.459347
      9          1           0        4.032122   -2.056964    0.065272
     10          1           0        4.466574    2.211150   -0.060123
     11          1           0        2.027947    2.450992   -0.585151
     12          7           0        5.789265   -0.069922    0.333888
     13          8           0        6.450643    0.962408    0.420549
     14          8           0        6.229773   -1.207448    0.484298
     15          6           0       -5.987003   -0.356937    0.040213
     16          6           0       -6.994383    0.755264    0.333782
     17          6           0       -8.439809    0.256787    0.341317
     18          1           0       -6.224773   -0.811212   -0.931407
     19          1           0       -6.098209   -1.150627    0.791933
     20          1           0       -6.880367    1.547258   -0.417457
     21          1           0       -6.754072    1.207072    1.304728
     22          1           0       -8.576148   -0.518008    1.102701
     23          1           0       -8.703160   -0.175890   -0.629270
     24          1           0       -9.143177    1.068117    0.553161
     25          6           0       -4.537673    0.125816    0.029286
     26          6           0       -3.530294   -0.986384   -0.264284
     27          6           0       -2.084868   -0.487908   -0.271819
     28          1           0       -4.426467    0.919506   -0.722435
     29          1           0       -4.299904    0.580091    1.000906
     30          1           0       -3.770604   -1.438193   -1.235230
     31          1           0       -3.644310   -1.778379    0.486956
     32          1           0       -1.821517   -0.055231    0.698768
     33          1           0       -1.948529    0.286887   -1.033203
     34          1           0       -1.381500   -1.299238   -0.483663
 ---------------------------------------------------------------------

 SCF Done:  E(RHF) =  -669.535495450     A.U. after   15 cycles
 E2 =    -0.2091126526D+01 EUMP2 =    -0.67162662197578D+03

 The electronic state is 1-A.
 Alpha  occ. eigenvalues --  -20.60678 -20.60672 -15.85732 -11.31066 -11.27645
 Alpha  occ. eigenvalues --  -11.27641 -11.27281 -11.26633 -11.26621 -11.22639
 Alpha  occ. eigenvalues --  -11.22530 -11.22209 -11.22143 -11.22016 -11.21517
 Alpha  occ. eigenvalues --   -1.59754  -1.39309  -1.19236  -1.09217  -1.08625
 Alpha  occ. eigenvalues --   -1.04642  -1.04372  -0.96865  -0.95463  -0.87899
 Alpha  occ. eigenvalues --   -0.86034  -0.82309  -0.80461  -0.78975  -0.77367
 Alpha  occ. eigenvalues --   -0.71949  -0.71078  -0.70321  -0.65837  -0.64884
 Alpha  occ. eigenvalues --   -0.64655  -0.62001  -0.61759  -0.60260  -0.58435
 Alpha  occ. eigenvalues --   -0.56151  -0.55206  -0.53496  -0.53247  -0.52961
 Alpha  occ. eigenvalues --   -0.52727  -0.50786  -0.48776  -0.48706  -0.48683
 Alpha  occ. eigenvalues --   -0.47449  -0.46530  -0.46416  -0.44721  -0.44605
 Alpha  occ. eigenvalues --   -0.37194  -0.36255
 Alpha virt. eigenvalues --    0.05172   0.11398   0.16658   0.20194   0.22234
 Alpha virt. eigenvalues --    0.23704   0.25596   0.25827   0.26119   0.27265
 Alpha virt. eigenvalues --    0.29062   0.29368   0.30690   0.31479   0.31920

 Mulliken charges:
               1
     1  C   -0.177611
     2  C   -0.223336
     3  C   -0.170866
     4  C    0.157905
     5  C   -0.170671
     6  C   -0.221193
     7  H    0.242307
     8  H    0.222855
     9  H    0.275083
    10  H    0.275027
    11  H    0.223162
    12  N    0.488060
    13  O   -0.460832
    14  O   -0.460875
    15  C   -0.299056
    16  C   -0.300187
    17  C   -0.476135
    18  H    0.150760
    19  H    0.151005
    20  H    0.152268
    21  H    0.152709
    22  H    0.156038
    23  H    0.155823
    24  H    0.161780
    25  C   -0.299484
    26  C   -0.299572
    27  C   -0.484577
    28  H    0.149744
    29  H    0.151025
    30  H    0.154916
    31  H    0.155808
    32  H    0.160541
    33  H    0.151760
    34  H    0.155819
 Sum of Mulliken charges =  -0.00000

 Dipole moment (field-independent basis, Debye):
    X=             -5.4150    Y=              0.4755    Z=             -1.0613  Tot=              5.5384
 Quadrupole moment (field-independent basis, Debye-Ang):
   XX=           -139.8489   YY=            -89.7555   ZZ=            -94.6970
   XY=              2.1974   XZ=             -4.8731   YZ=             -0.4380

 Normal termination of Gaussian 16 at Thu May  6 01:32:46 2021.
