 Gaussian 16, Revision A.03,
 Gaussian 16:  EM64L-G16RevA.03 25-Dec-2016

 -------------
 #p 6-31g* mp2
 -------------

 ------------------------------------------------------
 Input file generated by CHIRIPA (05-May-2021 14:53:11)
 ------------------------------------------------------
 Symbolic Z-matrix:
 Charge =  0 Multiplicity = 1

                         Standard orientation:
 ---------------------------------------------------------------------
 Center     Atomic      Atomic             Coordinates (Angstroms)
 Number     Number       Type             X           Y           Z
 ---------------------------------------------------------------------
      1          6           0       -4.039195   -0.534621   -0.044377
      2          6           0       -4.497329    0.809344   -0.611699
      3          6           0       -5.913504    0.756851   -1.185710
      4          1           0       -4.087668   -1.295138   -0.835711
      5          1           0       -4.741564   -0.852863    0.738435
      6          1           0       -3.793536    1.125623   -1.392249
      7          1           0       -4.447578    1.566791    0.181028
      8          1           0       -6.631961    0.465583   -0.412676
      9          1           0       -5.974203    0.021908   -1.994892
     10          1           0       -6.220781    1.728120   -1.585809
     11          6           0       -2.625381   -0.498132    0.533141
     12          6           0       -2.167246   -1.842098    1.100464
     13          6           0       -0.751072   -1.789605    1.674475
     14          1           0       -1.923012   -0.179890   -0.249670
     15          1           0       -2.576908    0.262385    1.324475
     16          1           0       -2.216998   -2.599544    0.307737
     17          1           0       -2.871040   -2.158376    1.881014
     18          1           0       -0.690373   -1.054661    2.483657
     19          1           0       -0.032615   -1.498336    0.901441
     20          1           0       -0.443795   -2.760873    2.074573
     21          6           0        4.188850   -1.391179   -0.985613
     22          6           0        4.657787   -0.351044   -0.176454
     23          6           0        3.788290    0.648689    0.269704
     24          6           0        2.450070    0.576914   -0.114096
     25          6           0        1.952647   -0.446544   -0.919324
     26          6           0        2.840153   -1.435532   -1.353816
     27          1           0        4.871291   -2.163622   -1.327669
     28          1           0        5.704692   -0.314048    0.111064
     29          1           0        4.124671    1.465269    0.896972
     30          1           0        0.903662   -0.456539   -1.189418
     31          1           0        2.473177   -2.242126   -1.982131
     32          7           0        1.520039    1.629599    0.352057
     33          8           0        0.345605    1.543668   -0.000019
     34          8           0        1.983126    2.520692    1.060676
 ---------------------------------------------------------------------

 SCF Done:  E(RHF) =  -669.534963765     A.U. after   15 cycles
 E2 =    -0.2093469497D+01 EUMP2 =    -0.67162843326122D+03

 The electronic state is 1-A.
 Alpha  occ. eigenvalues --  -20.60884 -20.60863 -15.85907 -11.31273 -11.27846
 Alpha  occ. eigenvalues --  -11.27830 -11.27573 -11.26856 -11.26843 -11.21133
 Alpha  occ. eigenvalues --  -11.20901 -11.20735 -11.20680 -11.20540 -11.20477
 Alpha  occ. eigenvalues --   -1.59937  -1.39493  -1.19448  -1.08836  -1.07774
 Alpha  occ. eigenvalues --   -1.04855  -1.02980  -0.95678  -0.95423  -0.86467
 Alpha  occ. eigenvalues --   -0.86235  -0.82514  -0.79038  -0.77716  -0.77370
 Alpha  occ. eigenvalues --   -0.72132  -0.71249  -0.70564  -0.65104  -0.64880
 Alpha  occ. eigenvalues --   -0.64407  -0.62224  -0.60390  -0.58782  -0.57025
 Alpha  occ. eigenvalues --   -0.55359  -0.54751  -0.53182  -0.52945  -0.52157
 Alpha  occ. eigenvalues --   -0.51816  -0.49389  -0.48921  -0.48885  -0.47351
 Alpha  occ. eigenvalues --   -0.46067  -0.45270  -0.45014  -0.44602  -0.43187
 Alpha  occ. eigenvalues --   -0.37407  -0.36417
 Alpha virt. eigenvalues --    0.04946   0.11101   0.16452   0.20699   0.23215
 Alpha virt. eigenvalues --    0.24521   0.26332   0.27565   0.27780   0.28498
 Alpha virt. eigenvalues --    0.29199   0.30919   0.31624   0.32217   0.32384

 Mulliken charges:
               1
     1  C   -0.298520
     2  C   -0.298791
     3  C   -0.475419
     4  H    0.143918
     5  H    0.146836
     6  H    0.154339
     7  H    0.155541
     8  H    0.153635
     9  H    0.152220
    10  H    0.159656
    11  C   -0.301348
    12  C   -0.300432
    13  C   -0.476130
    14  H    0.161099
    15  H    0.157425
    16  H    0.144517
    17  H    0.150639
    18  H    0.160251
    19  H    0.150185
    20  H    0.154920
    21  C   -0.170425
    22  C   -0.218170
    23  C   -0.170683
    24  C    0.160399
    25  C   -0.171576
    26  C   -0.219704
    27  H    0.226023
    28  H    0.223842
    29  H    0.275864
    30  H    0.276948
    31  H    0.224185
    32  N    0.491580
    33  O   -0.463070
    34  O   -0.459754
 Sum of Mulliken charges =  -0.00000

 Dipole moment (field-independent basis, Debye):
    X=              3.4535    Y=             -3.4880    Z=             -1.6177  Tot=              5.1682
 Quadrupole moment (field-independent basis, Debye-Ang):
   XX=            -77.4689   YY=            -98.9834   ZZ=            -93.2406
   XY=             -5.8803   XZ=             -3.3985   YZ=              1.3165

 Normal termination of Gaussian 16 at Wed May  5 18:29:39 2021.
