 Gaussian 16, Revision A.03,
 Gaussian 16:  EM64L-G16RevA.03 25-Dec-2016

 -------------
 #p 6-31g* mp2
 -------------

 ------------------------------------------------------
 Input file generated by CHIRIPA (05-May-2021 14:51:14)
 ------------------------------------------------------
 Symbolic Z-matrix:
 Charge =  0 Multiplicity = 1

                         Standard orientation:
 ---------------------------------------------------------------------
 Center     Atomic      Atomic             Coordinates (Angstroms)
 Number     Number       Type             X           Y           Z
 ---------------------------------------------------------------------
      1          6           0        2.383103   -0.285512   -1.091700
      2          6           0        1.982632   -1.751971   -0.927069
      3          6           0        1.298620   -2.321144   -2.170437
      4          1           0        1.488558    0.308394   -1.324099
      5          1           0        3.054467   -0.190852   -1.956399
      6          1           0        1.313324   -1.844043   -0.062103
      7          1           0        2.878205   -2.342426   -0.694845
      8          1           0        1.962997   -2.258466   -3.038351
      9          1           0        0.389225   -1.757251   -2.402014
     10          1           0        1.020821   -3.370536   -2.030922
     11          6           0        3.068071    0.297710    0.142966
     12          6           0        3.468542    1.764169   -0.021665
     13          6           0        4.152554    2.333342    1.221703
     14          1           0        2.396707    0.203050    1.007665
     15          1           0        3.962616   -0.296197    0.375366
     16          1           0        2.572969    2.354624   -0.253889
     17          1           0        4.137850    1.856241   -0.886631
     18          1           0        5.061949    1.769449    1.453280
     19          1           0        3.488177    2.270664    2.089617
     20          1           0        4.430353    3.382734    1.082188
     21          6           0       -2.811391    0.449877   -0.132391
     22          6           0       -4.211290    1.054862   -0.243115
     23          6           0       -4.367377    1.964698   -1.461979
     24          1           0       -2.071375    1.260411   -0.083869
     25          1           0       -2.592141   -0.119240   -1.046410
     26          1           0       -4.428376    1.621522    0.671428
     27          1           0       -4.948075    0.242795   -0.291187
     28          1           0       -4.177205    1.407880   -2.385228
     29          1           0       -3.654553    2.794440   -1.417144
     30          1           0       -5.375568    2.386414   -1.521687
     31          6           0       -2.639783   -0.462075    1.081125
     32          6           0       -1.239884   -1.067061    1.191848
     33          6           0       -1.083797   -1.976895    2.410712
     34          1           0       -2.859033    0.107042    1.995143
     35          1           0       -3.379799   -1.272609    1.032602
     36          1           0       -0.503099   -0.254993    1.239920
     37          1           0       -1.022797   -1.633719    0.277306
     38          1           0       -1.796620   -2.806638    2.365878
     39          1           0       -1.273969   -1.420078    3.333962
     40          1           0       -0.075605   -2.398612    2.470421
 ---------------------------------------------------------------------

 SCF Done:  E(RHF) =  -470.732849723     A.U. after   11 cycles
 E2 =    -0.1584086797D+01 EUMP2 =    -0.47231693652024D+03

 The electronic state is 1-A.
 Alpha  occ. eigenvalues --  -11.21676 -11.21653 -11.21593 -11.21476 -11.21471
 Alpha  occ. eigenvalues --  -11.21416 -11.21369 -11.21298 -11.21152 -11.21110
 Alpha  occ. eigenvalues --  -11.21071 -11.21050  -1.08517  -1.08377  -1.03628
 Alpha  occ. eigenvalues --   -1.03473  -0.96048  -0.95954  -0.87060  -0.86969
 Alpha  occ. eigenvalues --   -0.79737  -0.79515  -0.78371  -0.78154  -0.65140
 Alpha  occ. eigenvalues --   -0.65035  -0.61120  -0.60835  -0.59435  -0.59273
 Alpha  occ. eigenvalues --   -0.57677  -0.57538  -0.55354  -0.55222  -0.52740
 Alpha  occ. eigenvalues --   -0.52646  -0.52471  -0.52376  -0.49985  -0.49896
 Alpha  occ. eigenvalues --   -0.48085  -0.47827  -0.46785  -0.46494  -0.46020
 Alpha  occ. eigenvalues --   -0.45764  -0.45701  -0.45442  -0.43849  -0.43747
 Alpha virt. eigenvalues --    0.20246   0.22919   0.23441   0.24070   0.25678
 Alpha virt. eigenvalues --    0.26113   0.26441   0.28246   0.28668   0.29372
 Alpha virt. eigenvalues --    0.30599   0.31439   0.31587   0.31831   0.32544

 Mulliken charges:
               1
     1  C   -0.297912
     2  C   -0.308112
     3  C   -0.476696
     4  H    0.150202
     5  H    0.149241
     6  H    0.163149
     7  H    0.151093
     8  H    0.155319
     9  H    0.154928
    10  H    0.159592
    11  C   -0.300627
    12  C   -0.299513
    13  C   -0.475652
    14  H    0.150754
    15  H    0.149657
    16  H    0.151551
    17  H    0.152073
    18  H    0.155263
    19  H    0.154873
    20  H    0.160192
    21  C   -0.298717
    22  C   -0.299685
    23  C   -0.475794
    24  H    0.149195
    25  H    0.149418
    26  H    0.152129
    27  H    0.152227
    28  H    0.155334
    29  H    0.155173
    30  H    0.160502
    31  C   -0.297415
    32  C   -0.307067
    33  C   -0.478141
    34  H    0.149641
    35  H    0.150083
    36  H    0.153599
    37  H    0.156820
    38  H    0.155891
    39  H    0.155734
    40  H    0.161699
 Sum of Mulliken charges =  -0.00000

 Dipole moment (field-independent basis, Debye):
    X=             -0.0432    Y=             -0.0095    Z=              0.0209  Tot=              0.0490
 Quadrupole moment (field-independent basis, Debye-Ang):
   XX=            -84.2017   YY=            -84.8512   ZZ=            -85.7401
   XY=             -0.0828   XZ=             -0.7947   YZ=              0.6144

 Normal termination of Gaussian 16 at Wed May  5 21:38:29 2021.
