 Gaussian 16, Revision A.03,
 Gaussian 16:  EM64L-G16RevA.03 25-Dec-2016

 -------------
 #p 6-31g* mp2
 -------------

 ------------------------------------------------------
 Input file generated by CHIRIPA (05-May-2021 14:55:19)
 ------------------------------------------------------
 Symbolic Z-matrix:
 Charge =  0 Multiplicity = 1

                         Standard orientation:
 ---------------------------------------------------------------------
 Center     Atomic      Atomic             Coordinates (Angstroms)
 Number     Number       Type             X           Y           Z
 ---------------------------------------------------------------------
      1          6           0       -0.743328    0.347816    0.968879
      2          6           0       -1.320728    1.153288   -0.018210
      3          6           0       -2.603526    0.876185   -0.500073
      4          6           0       -3.283593   -0.219251    0.029849
      5          6           0       -2.735298   -1.040479    1.013845
      6          6           0       -1.451208   -0.744571    1.480854
      7          1           0        0.253682    0.570381    1.337433
      8          1           0       -0.773311    2.002303   -0.417650
      9          1           0       -3.074340    1.483240   -1.263773
     10          1           0       -3.305561   -1.879935    1.392702
     11          1           0       -1.005287   -1.371841    2.247490
     12          7           0       -4.642317   -0.522562   -0.472416
     13          8           0       -5.220713   -1.493456    0.010762
     14          8           0       -5.103163    0.216341   -1.339757
     15          6           0        4.161035   -0.376465   -0.558622
     16          6           0        5.215487   -1.221985    0.156367
     17          6           0        5.695114   -2.404784   -0.685501
     18          1           0        3.304933   -1.013454   -0.819926
     19          1           0        4.577416   -0.008173   -1.506453
     20          1           0        4.797713   -1.587432    1.103219
     21          1           0        6.069096   -0.582868    0.416169
     22          1           0        6.136849   -2.055422   -1.624339
     23          1           0        4.858242   -3.065693   -0.933385
     24          1           0        6.448507   -2.995645   -0.155272
     25          6           0        3.671690    0.809776    0.270294
     26          6           0        2.617238    1.655297   -0.444695
     27          6           0        2.137611    2.838095    0.397173
     28          1           0        3.255309    0.441484    1.218125
     29          1           0        4.527792    1.446765    0.531598
     30          1           0        1.763629    1.016180   -0.704497
     31          1           0        3.035013    2.020743   -1.391547
     32          1           0        2.974483    3.499003    0.645057
     33          1           0        1.695876    2.488733    1.336011
     34          1           0        1.384218    3.428956   -0.133056
 ---------------------------------------------------------------------

 SCF Done:  E(RHF) =  -669.534557979     A.U. after   15 cycles
 E2 =    -0.2093123476D+01 EUMP2 =    -0.67162768145538D+03

 The electronic state is 1-A.
 Alpha  occ. eigenvalues --  -20.60740 -20.60735 -15.85793 -11.31157 -11.27726
 Alpha  occ. eigenvalues --  -11.27712 -11.27418 -11.26735 -11.26689 -11.22811
 Alpha  occ. eigenvalues --  -11.22524 -11.22483 -11.22304 -11.22198 -11.21627
 Alpha  occ. eigenvalues --   -1.59816  -1.39369  -1.19326  -1.09437  -1.08716
 Alpha  occ. eigenvalues --   -1.04741  -1.04522  -0.96993  -0.95553  -0.87995
 Alpha  occ. eigenvalues --   -0.86122  -0.82392  -0.80599  -0.79176  -0.77439
 Alpha  occ. eigenvalues --   -0.72012  -0.71139  -0.70523  -0.66108  -0.64972
 Alpha  occ. eigenvalues --   -0.64743  -0.62204  -0.61790  -0.60358  -0.58564
 Alpha  occ. eigenvalues --   -0.56328  -0.55139  -0.53685  -0.53397  -0.53071
 Alpha  occ. eigenvalues --   -0.52755  -0.50925  -0.48896  -0.48767  -0.48761
 Alpha  occ. eigenvalues --   -0.47657  -0.46716  -0.46627  -0.44776  -0.44761
 Alpha  occ. eigenvalues --   -0.37280  -0.36326
 Alpha virt. eigenvalues --    0.05073   0.11225   0.16524   0.18850   0.22449
 Alpha virt. eigenvalues --    0.24139   0.24437   0.25829   0.26597   0.27845
 Alpha virt. eigenvalues --    0.29148   0.30156   0.31215   0.31402   0.32119

 Mulliken charges:
               1
     1  C   -0.176008
     2  C   -0.223120
     3  C   -0.171852
     4  C    0.158460
     5  C   -0.170901
     6  C   -0.220106
     7  H    0.233111
     8  H    0.229663
     9  H    0.275720
    10  H    0.275382
    11  H    0.223283
    12  N    0.488027
    13  O   -0.460546
    14  O   -0.460443
    15  C   -0.299250
    16  C   -0.300114
    17  C   -0.476315
    18  H    0.151051
    19  H    0.152569
    20  H    0.150800
    21  H    0.153437
    22  H    0.156763
    23  H    0.156202
    24  H    0.162204
    25  C   -0.298413
    26  C   -0.311038
    27  C   -0.482528
    28  H    0.143282
    29  H    0.154159
    30  H    0.153114
    31  H    0.159352
    32  H    0.165080
    33  H    0.149830
    34  H    0.159148
 Sum of Mulliken charges =  -0.00000

 Dipole moment (field-independent basis, Debye):
    X=              5.0392    Y=              1.0847    Z=              1.6934  Tot=              5.4257
 Quadrupole moment (field-independent basis, Debye-Ang):
   XX=           -125.5559   YY=            -92.6321   ZZ=            -93.3409
   XY=             -3.4003   XZ=             -6.1900   YZ=             -3.9003

 Normal termination of Gaussian 16 at Thu May  6 10:48:00 2021.
