 Gaussian 16, Revision A.03,
 Gaussian 16:  EM64L-G16RevA.03 25-Dec-2016

 -------------
 #p 6-31g* mp2
 -------------

 ------------------------------------------------------
 Input file generated by CHIRIPA (05-May-2021 14:51:12)
 ------------------------------------------------------
 Symbolic Z-matrix:
 Charge =  0 Multiplicity = 1

                         Standard orientation:
 ---------------------------------------------------------------------
 Center     Atomic      Atomic             Coordinates (Angstroms)
 Number     Number       Type             X           Y           Z
 ---------------------------------------------------------------------
      1          6           0        2.564607   -0.866670    0.648275
      2          6           0        1.131844   -0.350433    0.784936
      3          6           0        0.231179   -1.306413    1.567686
      4          1           0        2.548706   -1.846703    0.152062
      5          1           0        2.985079   -1.030387    1.650171
      6          1           0        0.714676   -0.186423   -0.216906
      7          1           0        1.151173    0.628572    1.280710
      8          1           0        0.621121   -1.462054    2.578785
      9          1           0        0.182144   -2.281681    1.072661
     10          1           0       -0.788378   -0.917797    1.653364
     11          6           0        3.477120    0.078063   -0.131807
     12          6           0        4.909882   -0.438174   -0.268468
     13          6           0        5.810548    0.517807   -1.051218
     14          1           0        3.056648    0.241781   -1.133703
     15          1           0        3.493021    1.058096    0.364406
     16          1           0        4.890554   -1.417179   -0.764242
     17          1           0        5.327051   -0.602183    0.733374
     18          1           0        5.859583    1.493074   -0.556193
     19          1           0        5.420606    0.673448   -2.062317
     20          1           0        6.830105    0.129190   -1.136896
     21          6           0       -3.085943   -0.219519   -0.708144
     22          6           0       -3.767941   -1.404081   -0.022817
     23          6           0       -3.890794   -2.624522   -0.935628
     24          1           0       -3.652980    0.050578   -1.609512
     25          1           0       -2.087043   -0.526690   -1.047615
     26          1           0       -4.764720   -1.094366    0.316487
     27          1           0       -3.199323   -1.671266    0.877129
     28          1           0       -2.902114   -2.960973   -1.264132
     29          1           0       -4.476405   -2.380795   -1.827959
     30          1           0       -4.381184   -3.459560   -0.425636
     31          6           0       -2.955784    1.008125    0.191676
     32          6           0       -2.273785    2.192688   -0.493652
     33          6           0       -2.150933    3.413129    0.419159
     34          1           0       -3.954684    1.315297    0.531147
     35          1           0       -2.388748    0.738029    1.093044
     36          1           0       -2.842404    2.459873   -1.393596
     37          1           0       -1.277007    1.882972   -0.832954
     38          1           0       -1.565322    3.169402    1.311492
     39          1           0       -3.139612    3.749580    0.747664
     40          1           0       -1.660543    4.248166   -0.090831
 ---------------------------------------------------------------------

 SCF Done:  E(RHF) =  -470.732937117     A.U. after   11 cycles
 E2 =    -0.1584214717D+01 EUMP2 =    -0.47231715183377D+03

 The electronic state is 1-A.
 Alpha  occ. eigenvalues --  -11.21705 -11.21638 -11.21568 -11.21566 -11.21467
 Alpha  occ. eigenvalues --  -11.21404 -11.21384 -11.21324 -11.21141 -11.21098
 Alpha  occ. eigenvalues --  -11.21052 -11.21052  -1.08509  -1.08400  -1.03596
 Alpha  occ. eigenvalues --   -1.03503  -0.96062  -0.95942  -0.87064  -0.86973
 Alpha  occ. eigenvalues --   -0.79665  -0.79568  -0.78321  -0.78215  -0.65221
 Alpha  occ. eigenvalues --   -0.65031  -0.61017  -0.60873  -0.59418  -0.59308
 Alpha  occ. eigenvalues --   -0.57681  -0.57547  -0.55337  -0.55227  -0.52774
 Alpha  occ. eigenvalues --   -0.52630  -0.52482  -0.52354  -0.50001  -0.49880
 Alpha  occ. eigenvalues --   -0.48025  -0.47877  -0.46715  -0.46602  -0.45945
 Alpha  occ. eigenvalues --   -0.45801  -0.45742  -0.45519  -0.43806  -0.43745
 Alpha virt. eigenvalues --    0.19548   0.23132   0.23636   0.24889   0.25077
 Alpha virt. eigenvalues --    0.26114   0.26978   0.27639   0.28072   0.29568
 Alpha virt. eigenvalues --    0.30481   0.31443   0.31747   0.31846   0.32223

 Mulliken charges:
               1
     1  C   -0.298381
     2  C   -0.302722
     3  C   -0.484207
     4  H    0.149861
     5  H    0.149946
     6  H    0.154059
     7  H    0.152226
     8  H    0.155685
     9  H    0.155360
    10  H    0.168247
    11  C   -0.298381
    12  C   -0.299707
    13  C   -0.475763
    14  H    0.149499
    15  H    0.149868
    16  H    0.152027
    17  H    0.152039
    18  H    0.155280
    19  H    0.155270
    20  H    0.160396
    21  C   -0.300866
    22  C   -0.302217
    23  C   -0.475514
    24  H    0.149938
    25  H    0.151889
    26  H    0.151751
    27  H    0.154633
    28  H    0.154953
    29  H    0.154983
    30  H    0.160257
    31  C   -0.302526
    32  C   -0.301506
    33  C   -0.475750
    34  H    0.149738
    35  H    0.153020
    36  H    0.151647
    37  H    0.154662
    38  H    0.155072
    39  H    0.155041
    40  H    0.160190
 Sum of Mulliken charges =  -0.00000

 Dipole moment (field-independent basis, Debye):
    X=              0.0286    Y=             -0.0047    Z=              0.0066  Tot=              0.0298
 Quadrupole moment (field-independent basis, Debye-Ang):
   XX=            -84.5252   YY=            -85.7490   ZZ=            -84.4864
   XY=             -0.7760   XZ=              0.8438   YZ=              0.1011

 Normal termination of Gaussian 16 at Wed May  5 23:08:58 2021.
