 Gaussian 16, Revision A.03,
 Gaussian 16:  EM64L-G16RevA.03 25-Dec-2016

 -------------
 #p 6-31g* mp2
 -------------

 ------------------------------------------------------
 Input file generated by CHIRIPA (05-May-2021 14:55:23)
 ------------------------------------------------------
 Symbolic Z-matrix:
 Charge =  0 Multiplicity = 1

                         Standard orientation:
 ---------------------------------------------------------------------
 Center     Atomic      Atomic             Coordinates (Angstroms)
 Number     Number       Type             X           Y           Z
 ---------------------------------------------------------------------
      1          6           0       -5.297382   -1.285393    0.494696
      2          6           0       -4.107403   -1.603859    1.157305
      3          6           0       -2.913623   -0.957695    0.822779
      4          6           0       -2.946258    0.006186   -0.183780
      5          6           0       -4.115794    0.345515   -0.862257
      6          6           0       -5.297779   -0.313436   -0.511197
      7          1           0       -6.220158   -1.792316    0.760986
      8          1           0       -4.104113   -2.358277    1.938898
      9          1           0       -1.978202   -1.184798    1.319598
     10          1           0       -4.087653    1.101946   -1.637136
     11          1           0       -6.220446   -0.064074   -1.027481
     12          7           0       -1.688700    0.697019   -0.546679
     13          8           0       -1.743978    1.542493   -1.437048
     14          8           0       -0.671559    0.379940    0.066120
     15          6           0        3.625040    0.754813   -0.024210
     16          6           0        2.981812    1.434902    1.184808
     17          6           0        2.161939    2.667654    0.802806
     18          1           0        4.268097    1.477814   -0.544493
     19          1           0        2.838663    0.467242   -0.735762
     20          1           0        3.769051    1.719865    1.894502
     21          1           0        2.340361    0.710145    1.702383
     22          1           0        1.356497    2.395978    0.112838
     23          1           0        2.793305    3.411435    0.306049
     24          1           0        1.711116    3.138236    1.682107
     25          6           0        4.447968   -0.479173    0.341571
     26          6           0        5.091196   -1.159261   -0.867446
     27          6           0        5.911069   -2.392013   -0.485445
     28          1           0        5.234345   -0.191601    1.053124
     29          1           0        3.804911   -1.202173    0.861854
     30          1           0        5.732647   -0.434504   -1.385021
     31          1           0        4.303957   -1.444224   -1.577140
     32          1           0        5.279703   -3.135794    0.011313
     33          1           0        6.716511   -2.120337    0.204524
     34          1           0        6.361892   -2.862595   -1.364745
 ---------------------------------------------------------------------

 SCF Done:  E(RHF) =  -669.536710995     A.U. after   15 cycles
 E2 =    -0.2091384346D+01 EUMP2 =    -0.67162809534065D+03

 The electronic state is 1-A.
 Alpha  occ. eigenvalues --  -20.61101 -20.61087 -15.86103 -11.31379 -11.27933
 Alpha  occ. eigenvalues --  -11.27928 -11.27660 -11.26927 -11.26917 -11.20790
 Alpha  occ. eigenvalues --  -11.20449 -11.20383 -11.20122 -11.20008 -11.19220
 Alpha  occ. eigenvalues --   -1.60140  -1.39698  -1.19539  -1.08953  -1.07268
 Alpha  occ. eigenvalues --   -1.04927  -1.02328  -0.95803  -0.94779  -0.86329
 Alpha  occ. eigenvalues --   -0.85801  -0.82637  -0.78460  -0.77698  -0.77029
 Alpha  occ. eigenvalues --   -0.72324  -0.71444  -0.70647  -0.65196  -0.64931
 Alpha  occ. eigenvalues --   -0.63887  -0.62274  -0.59702  -0.58232  -0.56393
 Alpha  occ. eigenvalues --   -0.55436  -0.54053  -0.53260  -0.53017  -0.51513
 Alpha  occ. eigenvalues --   -0.51213  -0.49221  -0.49078  -0.48558  -0.46744
 Alpha  occ. eigenvalues --   -0.45485  -0.45100  -0.44586  -0.44408  -0.42604
 Alpha  occ. eigenvalues --   -0.37514  -0.36525
 Alpha virt. eigenvalues --    0.04824   0.11132   0.16333   0.21258   0.23934
 Alpha virt. eigenvalues --    0.25536   0.27190   0.27704   0.28252   0.28620
 Alpha virt. eigenvalues --    0.29249   0.30838   0.32289   0.32708   0.32725

 Mulliken charges:
               1
     1  C   -0.170396
     2  C   -0.218557
     3  C   -0.170592
     4  C    0.158154
     5  C   -0.170571
     6  C   -0.218601
     7  H    0.226321
     8  H    0.224134
     9  H    0.275739
    10  H    0.276095
    11  H    0.224133
    12  N    0.489523
    13  O   -0.458577
    14  O   -0.460696
    15  C   -0.300310
    16  C   -0.294958
    17  C   -0.483939
    18  H    0.145023
    19  H    0.161042
    20  H    0.142696
    21  H    0.153654
    22  H    0.184039
    23  H    0.145679
    24  H    0.150889
    25  C   -0.297236
    26  C   -0.298954
    27  C   -0.474874
    28  H    0.145726
    29  H    0.147757
    30  H    0.150660
    31  H    0.152466
    32  H    0.153193
    33  H    0.153630
    34  H    0.157709
 Sum of Mulliken charges =  -0.00000

 Dipole moment (field-independent basis, Debye):
    X=             -4.8968    Y=             -2.4787    Z=              1.1562  Tot=              5.6089
 Quadrupole moment (field-independent basis, Debye-Ang):
   XX=            -68.9540   YY=            -95.0376   ZZ=            -93.5412
   XY=              6.7507   XZ=             -1.3637   YZ=             -1.9564

 Normal termination of Gaussian 16 at Thu May  6 12:36:34 2021.
