 Gaussian 16, Revision A.03,
 Gaussian 16:  EM64L-G16RevA.03 25-Dec-2016

 -------------
 #p 6-31g* mp2
 -------------

 ------------------------------------------------------
 Input file generated by CHIRIPA (05-May-2021 14:51:09)
 ------------------------------------------------------
 Symbolic Z-matrix:
 Charge =  0 Multiplicity = 1

                         Standard orientation:
 ---------------------------------------------------------------------
 Center     Atomic      Atomic             Coordinates (Angstroms)
 Number     Number       Type             X           Y           Z
 ---------------------------------------------------------------------
      1          6           0       -4.083081   -0.300526   -0.329132
      2          6           0       -3.698835   -1.728808    0.058617
      3          6           0       -4.800957   -2.742279   -0.251217
      4          1           0       -5.002632   -0.018095    0.201534
      5          1           0       -4.319370   -0.270203   -1.401812
      6          1           0       -3.462003   -1.756144    1.129961
      7          1           0       -2.779987   -2.007803   -0.472887
      8          1           0       -5.032628   -2.744415   -1.321229
      9          1           0       -5.718520   -2.491327    0.290726
     10          1           0       -4.505216   -3.756728    0.033897
     11          6           0       -2.991460    0.724126   -0.025521
     12          6           0       -3.375707    2.152409   -0.413270
     13          6           0       -2.273584    3.165880   -0.103436
     14          1           0       -2.755172    0.693803    1.047159
     15          1           0       -2.071910    0.441695   -0.556187
     16          1           0       -4.294555    2.431403    0.118234
     17          1           0       -3.612538    2.179745   -1.484614
     18          1           0       -1.356022    2.914927   -0.645379
     19          1           0       -2.041913    3.168015    0.966576
     20          1           0       -2.569326    4.180329   -0.388550
     21          6           0        4.092584   -0.461536   -0.283858
     22          6           0        5.469850    0.104394    0.063776
     23          6           0        6.570367   -0.404468   -0.867736
     24          1           0        4.132628   -1.558596   -0.241434
     25          1           0        3.846765   -0.197636   -1.321801
     26          1           0        5.712399   -0.159311    1.101198
     27          1           0        5.426473    1.200241    0.020706
     28          1           0        6.355141   -0.128495   -1.905096
     29          1           0        6.642691   -1.495771   -0.818465
     30          1           0        7.546534    0.012605   -0.601263
     31          6           0        2.981957    0.037935    0.638511
     32          6           0        1.604692   -0.527995    0.290877
     33          6           0        0.504174   -0.019133    1.222388
     34          1           0        3.227775   -0.225964    1.676454
     35          1           0        2.941913    1.134995    0.596086
     36          1           0        1.648069   -1.623841    0.333947
     37          1           0        1.362143   -0.264289   -0.746545
     38          1           0        0.431851    1.072171    1.173118
     39          1           0        0.719401   -0.295106    2.259749
     40          1           0       -0.471993   -0.436206    0.955916
 ---------------------------------------------------------------------

 SCF Done:  E(RHF) =  -470.732284917     A.U. after   11 cycles
 E2 =    -0.1583600010D+01 EUMP2 =    -0.47231588492774D+03

 The electronic state is 1-A.
 Alpha  occ. eigenvalues --  -11.21637 -11.21594 -11.21577 -11.21540 -11.21388
 Alpha  occ. eigenvalues --  -11.21365 -11.21305 -11.21303 -11.21093 -11.21077
 Alpha  occ. eigenvalues --  -11.21053 -11.20850  -1.08451  -1.08374  -1.03547
 Alpha  occ. eigenvalues --   -1.03465  -0.96011  -0.95896  -0.87033  -0.86913
 Alpha  occ. eigenvalues --   -0.79655  -0.79518  -0.78277  -0.78173  -0.65080
 Alpha  occ. eigenvalues --   -0.65005  -0.60949  -0.60864  -0.59388  -0.59299
 Alpha  occ. eigenvalues --   -0.57754  -0.57384  -0.55277  -0.55199  -0.52850
 Alpha  occ. eigenvalues --   -0.52633  -0.52412  -0.52178  -0.49929  -0.49873
 Alpha  occ. eigenvalues --   -0.47918  -0.47861  -0.46639  -0.46587  -0.45778
 Alpha  occ. eigenvalues --   -0.45735  -0.45698  -0.45645  -0.43807  -0.43587
 Alpha virt. eigenvalues --    0.21575   0.23131   0.23647   0.24124   0.26041
 Alpha virt. eigenvalues --    0.26487   0.26579   0.27225   0.27890   0.29746
 Alpha virt. eigenvalues --    0.30914   0.31371   0.31529   0.31891   0.32265

 Mulliken charges:
               1
     1  C   -0.297788
     2  C   -0.301512
     3  C   -0.475559
     4  H    0.149511
     5  H    0.149243
     6  H    0.152385
     7  H    0.152103
     8  H    0.155324
     9  H    0.155390
    10  H    0.160373
    11  C   -0.302210
    12  C   -0.299224
    13  C   -0.476347
    14  H    0.152258
    15  H    0.153428
    16  H    0.151774
    17  H    0.151561
    18  H    0.155181
    19  H    0.155928
    20  H    0.160071
    21  C   -0.298162
    22  C   -0.299600
    23  C   -0.475664
    24  H    0.149502
    25  H    0.149195
    26  H    0.151896
    27  H    0.151920
    28  H    0.155081
    29  H    0.155114
    30  H    0.160178
    31  C   -0.298192
    32  C   -0.300350
    33  C   -0.482858
    34  H    0.149535
    35  H    0.149592
    36  H    0.151528
    37  H    0.150424
    38  H    0.156195
    39  H    0.153238
    40  H    0.169538
 Sum of Mulliken charges =  -0.00000

 Dipole moment (field-independent basis, Debye):
    X=             -0.0594    Y=              0.0054    Z=              0.0044  Tot=              0.0598
 Quadrupole moment (field-independent basis, Debye-Ang):
   XX=            -85.9754   YY=            -84.9539   ZZ=            -83.9195
   XY=             -0.5131   XZ=              0.1014   YZ=             -0.6573

 Normal termination of Gaussian 16 at Thu May  6 02:08:53 2021.
