 Gaussian 16, Revision A.03,
 Gaussian 16:  EM64L-G16RevA.03 25-Dec-2016

 -------------
 #p 6-31g* mp2
 -------------

 ------------------------------------------------------
 Input file generated by CHIRIPA (05-May-2021 14:53:17)
 ------------------------------------------------------
 Symbolic Z-matrix:
 Charge =  0 Multiplicity = 1

                         Standard orientation:
 ---------------------------------------------------------------------
 Center     Atomic      Atomic             Coordinates (Angstroms)
 Number     Number       Type             X           Y           Z
 ---------------------------------------------------------------------
      1          6           0        3.841956    1.206899   -0.201690
      2          6           0        2.679565    1.791259    0.601651
      3          6           0        2.258930    3.176725    0.110384
      4          1           0        4.698541    1.892614   -0.146891
      5          1           0        3.554537    1.149792   -1.260710
      6          1           0        2.968588    1.845960    1.659049
      7          1           0        1.825711    1.103982    0.545092
      8          1           0        1.944583    3.134869   -0.937488
      9          1           0        3.093954    3.881063    0.182798
     10          1           0        1.426621    3.575652    0.698585
     11          6           0        4.273893   -0.177850    0.277505
     12          6           0        5.436284   -0.762210   -0.525836
     13          6           0        5.856920   -2.147676   -0.034568
     14          1           0        4.561312   -0.120743    1.336525
     15          1           0        3.417308   -0.863565    0.222706
     16          1           0        6.290138   -0.074933   -0.469276
     17          1           0        5.147261   -0.816911   -1.583233
     18          1           0        5.021895   -2.852014   -0.106983
     19          1           0        6.171266   -2.105820    1.013303
     20          1           0        6.689228   -2.546603   -0.622770
     21          6           0       -1.234371   -2.016173    0.082809
     22          6           0       -0.997343   -0.651207   -0.110080
     23          6           0       -2.062315    0.252285   -0.173975
     24          6           0       -3.357407   -0.245918   -0.040484
     25          6           0       -3.625893   -1.600138    0.152626
     26          6           0       -2.545578   -2.485455    0.213316
     27          1           0       -0.401116   -2.710968    0.131199
     28          1           0        0.019913   -0.283922   -0.211755
     29          1           0       -1.907340    1.314051   -0.322483
     30          1           0       -4.650951   -1.936400    0.250604
     31          1           0       -2.732647   -3.544976    0.363201
     32          7           0       -4.492967    0.700949   -0.106431
     33          8           0       -5.624651    0.236817    0.014025
     34          8           0       -4.229833    1.889305   -0.277325
 ---------------------------------------------------------------------

 SCF Done:  E(RHF) =  -669.535463259     A.U. after   15 cycles
 E2 =    -0.2091133578D+01 EUMP2 =    -0.67162659683668D+03

 The electronic state is 1-A.
 Alpha  occ. eigenvalues --  -20.60749 -20.60744 -15.85803 -11.31171 -11.27745
 Alpha  occ. eigenvalues --  -11.27737 -11.27491 -11.26761 -11.26740 -11.22505
 Alpha  occ. eigenvalues --  -11.22281 -11.22208 -11.22144 -11.21745 -11.21701
 Alpha  occ. eigenvalues --   -1.59825  -1.39378  -1.19347  -1.09219  -1.08742
 Alpha  occ. eigenvalues --   -1.04752  -1.04270  -0.96696  -0.95575  -0.87709
 Alpha  occ. eigenvalues --   -0.86152  -0.82410  -0.80339  -0.79035  -0.77453
 Alpha  occ. eigenvalues --   -0.72021  -0.71148  -0.70457  -0.65898  -0.64999
 Alpha  occ. eigenvalues --   -0.64751  -0.62162  -0.61616  -0.60059  -0.58308
 Alpha  occ. eigenvalues --   -0.55986  -0.55255  -0.53374  -0.53119  -0.53078
 Alpha  occ. eigenvalues --   -0.52859  -0.50637  -0.48794  -0.48776  -0.48627
 Alpha  occ. eigenvalues --   -0.47379  -0.46570  -0.46488  -0.44783  -0.44527
 Alpha  occ. eigenvalues --   -0.37329  -0.36352
 Alpha virt. eigenvalues --    0.05080   0.11278   0.16542   0.18864   0.22734
 Alpha virt. eigenvalues --    0.23534   0.24958   0.26445   0.26974   0.28363
 Alpha virt. eigenvalues --    0.29122   0.30019   0.31066   0.31311   0.32096

 Mulliken charges:
               1
     1  C   -0.299073
     2  C   -0.304705
     3  C   -0.477390
     4  H    0.153983
     5  H    0.149450
     6  H    0.156818
     7  H    0.143439
     8  H    0.155217
     9  H    0.159610
    10  H    0.163597
    11  C   -0.296715
    12  C   -0.300304
    13  C   -0.475621
    14  H    0.152299
    15  H    0.140726
    16  H    0.154739
    17  H    0.152464
    18  H    0.152513
    19  H    0.156595
    20  H    0.162702
    21  C   -0.172186
    22  C   -0.225393
    23  C   -0.173277
    24  C    0.158655
    25  C   -0.170994
    26  C   -0.218524
    27  H    0.225788
    28  H    0.233490
    29  H    0.275947
    30  H    0.275590
    31  H    0.223364
    32  N    0.488114
    33  O   -0.460572
    34  O   -0.460349
 Sum of Mulliken charges =  -0.00000

 Dipole moment (field-independent basis, Debye):
    X=              4.1976    Y=             -3.2436    Z=              0.2526  Tot=              5.3108
 Quadrupole moment (field-independent basis, Debye-Ang):
   XX=           -118.7346   YY=            -90.9108   ZZ=            -95.1928
   XY=             14.0972   XZ=             -1.0474   YZ=              0.0629

 Normal termination of Gaussian 16 at Wed May  5 17:14:18 2021.
