 Gaussian 16, Revision A.03,
 Gaussian 16:  EM64L-G16RevA.03 25-Dec-2016

 -------------
 #p 6-31g* mp2
 -------------

 ------------------------------------------------------
 Input file generated by CHIRIPA (05-May-2021 14:55:23)
 ------------------------------------------------------
 Symbolic Z-matrix:
 Charge =  0 Multiplicity = 1

                         Standard orientation:
 ---------------------------------------------------------------------
 Center     Atomic      Atomic             Coordinates (Angstroms)
 Number     Number       Type             X           Y           Z
 ---------------------------------------------------------------------
      1          6           0       -2.255641    2.433900   -0.304618
      2          6           0       -3.544457    2.170923   -0.780348
      3          6           0       -4.067717    0.875310   -0.734168
      4          6           0       -3.271068   -0.138054   -0.203382
      5          6           0       -1.983404    0.092265    0.278450
      6          6           0       -1.480595    1.395562    0.222334
      7          1           0       -1.857104    3.443347   -0.344351
      8          1           0       -4.148629    2.975353   -1.190120
      9          1           0       -5.062311    0.643760   -1.095535
     10          1           0       -1.404963   -0.730249    0.681307
     11          1           0       -0.479352    1.596862    0.592519
     12          7           0       -3.814195   -1.513729   -0.149233
     13          8           0       -3.092229   -2.389097    0.323137
     14          8           0       -4.951580   -1.690567   -0.580188
     15          6           0        3.408380   -0.293867    0.603401
     16          6           0        3.193124    0.402377    1.947608
     17          6           0        1.860356    0.031482    2.598732
     18          1           0        2.583039   -0.033688   -0.073406
     19          1           0        3.361132   -1.381812    0.750157
     20          1           0        3.242141    1.488659    1.798593
     21          1           0        4.019172    0.140663    2.621229
     22          1           0        1.805338   -1.047450    2.776155
     23          1           0        1.023892    0.308204    1.948844
     24          1           0        1.727061    0.540356    3.558493
     25          6           0        4.736400    0.066863   -0.059896
     26          6           0        4.951657   -0.629380   -1.404104
     27          6           0        6.284423   -0.258486   -2.055228
     28          1           0        4.783648    1.154809   -0.206653
     29          1           0        5.561740   -0.193315    0.616910
     30          1           0        4.125607   -0.367667   -2.077725
     31          1           0        4.902639   -1.715662   -1.255089
     32          1           0        7.120887   -0.535208   -1.405340
     33          1           0        6.339441    0.820446   -2.232651
     34          1           0        6.417717   -0.767360   -3.014988
 ---------------------------------------------------------------------

 SCF Done:  E(RHF) =  -669.535363801     A.U. after   15 cycles
 E2 =    -0.2091200684D+01 EUMP2 =    -0.67162656448564D+03

 The electronic state is 1-A.
 Alpha  occ. eigenvalues --  -20.60730 -20.60725 -15.85784 -11.31152 -11.27729
 Alpha  occ. eigenvalues --  -11.27710 -11.27476 -11.26745 -11.26723 -11.22294
 Alpha  occ. eigenvalues --  -11.21969 -11.21948 -11.21938 -11.21817 -11.21351
 Alpha  occ. eigenvalues --   -1.59805  -1.39358  -1.19328  -1.08963  -1.08724
 Alpha  occ. eigenvalues --   -1.04737  -1.04071  -0.96530  -0.95557  -0.87548
 Alpha  occ. eigenvalues --   -0.86132  -0.82396  -0.80135  -0.78748  -0.77437
 Alpha  occ. eigenvalues --   -0.72002  -0.71128  -0.70439  -0.65618  -0.64983
 Alpha  occ. eigenvalues --   -0.64748  -0.62169  -0.61413  -0.59893  -0.58118
 Alpha  occ. eigenvalues --   -0.55849  -0.55228  -0.53214  -0.53065  -0.52977
 Alpha  occ. eigenvalues --   -0.52797  -0.50473  -0.48763  -0.48756  -0.48442
 Alpha  occ. eigenvalues --   -0.47168  -0.46294  -0.46203  -0.44763  -0.44308
 Alpha  occ. eigenvalues --   -0.37313  -0.36335
 Alpha virt. eigenvalues --    0.05098   0.11316   0.16574   0.19233   0.22652
 Alpha virt. eigenvalues --    0.23715   0.25401   0.26421   0.27247   0.28177
 Alpha virt. eigenvalues --    0.29109   0.30104   0.31154   0.31508   0.32377

 Mulliken charges:
               1
     1  C   -0.170822
     2  C   -0.218656
     3  C   -0.170887
     4  C    0.158660
     5  C   -0.172628
     6  C   -0.223334
     7  H    0.225634
     8  H    0.223283
     9  H    0.275526
    10  H    0.276898
    11  H    0.228148
    12  N    0.488202
    13  O   -0.460226
    14  O   -0.460707
    15  C   -0.298643
    16  C   -0.300513
    17  C   -0.479965
    18  H    0.144975
    19  H    0.153739
    20  H    0.149693
    21  H    0.156442
    22  H    0.162722
    23  H    0.144311
    24  H    0.164381
    25  C   -0.298495
    26  C   -0.300178
    27  C   -0.476010
    28  H    0.148453
    29  H    0.151437
    30  H    0.151965
    31  H    0.154117
    32  H    0.155954
    33  H    0.154656
    34  H    0.161868
 Sum of Mulliken charges =  -0.00000

 Dipole moment (field-independent basis, Debye):
    X=              2.0871    Y=              4.7774    Z=             -0.1515  Tot=              5.2156
 Quadrupole moment (field-independent basis, Debye-Ang):
   XX=           -103.8281   YY=            -95.5375   ZZ=            -94.4082
   XY=            -18.5826   XZ=              3.2353   YZ=             -2.1383

 Normal termination of Gaussian 16 at Thu May  6 14:17:46 2021.
