 Gaussian 16, Revision A.03,
 Gaussian 16:  EM64L-G16RevA.03 25-Dec-2016

 -------------
 #p 6-31g* mp2
 -------------

 ------------------------------------------------------
 Input file generated by CHIRIPA (05-May-2021 14:51:09)
 ------------------------------------------------------
 Symbolic Z-matrix:
 Charge =  0 Multiplicity = 1

                         Standard orientation:
 ---------------------------------------------------------------------
 Center     Atomic      Atomic             Coordinates (Angstroms)
 Number     Number       Type             X           Y           Z
 ---------------------------------------------------------------------
      1          6           0       -2.725491   -0.307634   -0.465858
      2          6           0       -4.078824    0.402379   -0.417295
      3          6           0       -4.434540    1.087698   -1.736991
      4          1           0       -1.945196    0.421339   -0.724090
      5          1           0       -2.738313   -1.051442   -1.274548
      6          1           0       -4.063925    1.143663    0.391959
      7          1           0       -4.855961   -0.328331   -0.158960
      8          1           0       -4.476952    0.357123   -2.551277
      9          1           0       -3.680415    1.837481   -1.997228
     10          1           0       -5.405793    1.588976   -1.680014
     11          6           0       -2.355886   -0.997522    0.846078
     12          6           0       -1.002554   -1.707534    0.797515
     13          6           0       -0.646838   -2.392853    2.117211
     14          1           0       -2.343064   -0.253713    1.654768
     15          1           0       -3.136181   -1.726494    1.104310
     16          1           0       -0.225416   -0.976824    0.539180
     17          1           0       -1.017452   -2.448819   -0.011739
     18          1           0       -1.400962   -3.142636    2.377448
     19          1           0       -0.604425   -1.662278    2.931497
     20          1           0        0.324416   -2.894131    2.060234
     21          6           0        2.528496    1.158778    0.381768
     22          6           0        1.500897    2.273472    0.183073
     23          6           0        1.488463    3.278313    1.335433
     24          1           0        2.315052    0.635691    1.323981
     25          1           0        3.526650    1.605004    0.491165
     26          1           0        0.505163    1.825200    0.072700
     27          1           0        1.716698    2.793844   -0.758871
     28          1           0        2.469302    3.752485    1.443688
     29          1           0        1.250883    2.778336    2.279986
     30          1           0        0.746701    4.066483    1.172833
     31          6           0        2.552881    0.146377   -0.761988
     32          6           0        3.580480   -0.968317   -0.563292
     33          6           0        3.592914   -1.973158   -1.715653
     34          1           0        1.554728   -0.299849   -0.871385
     35          1           0        2.766325    0.669464   -1.704201
     36          1           0        3.364680   -1.488689    0.378652
     37          1           0        4.576214   -0.520044   -0.452920
     38          1           0        3.830494   -1.473180   -2.660206
     39          1           0        2.612075   -2.447329   -1.823909
     40          1           0        4.334676   -2.761327   -1.553053
 ---------------------------------------------------------------------

 SCF Done:  E(RHF) =  -470.733249899     A.U. after   11 cycles
 E2 =    -0.1583943191D+01 EUMP2 =    -0.47231719308987D+03

 The electronic state is 1-A.
 Alpha  occ. eigenvalues --  -11.21669 -11.21669 -11.21634 -11.21597 -11.21463
 Alpha  occ. eigenvalues --  -11.21420 -11.21403 -11.21338 -11.21150 -11.21125
 Alpha  occ. eigenvalues --  -11.21088 -11.21058  -1.08510  -1.08435  -1.03585
 Alpha  occ. eigenvalues --   -1.03552  -0.96035  -0.95996  -0.87049  -0.87013
 Alpha  occ. eigenvalues --   -0.79677  -0.79599  -0.78390  -0.78182  -0.65361
 Alpha  occ. eigenvalues --   -0.64883  -0.60976  -0.60954  -0.59399  -0.59367
 Alpha  occ. eigenvalues --   -0.57653  -0.57599  -0.55383  -0.55228  -0.52727
 Alpha  occ. eigenvalues --   -0.52695  -0.52471  -0.52408  -0.50012  -0.49908
 Alpha  occ. eigenvalues --   -0.48022  -0.47911  -0.46783  -0.46627  -0.46216
 Alpha  occ. eigenvalues --   -0.45794  -0.45773  -0.45207  -0.43836  -0.43802
 Alpha virt. eigenvalues --    0.19263   0.22561   0.24153   0.24650   0.24953
 Alpha virt. eigenvalues --    0.26645   0.26977   0.27668   0.28519   0.29702
 Alpha virt. eigenvalues --    0.30697   0.31399   0.31672   0.31840   0.32613

 Mulliken charges:
               1
     1  C   -0.302045
     2  C   -0.299558
     3  C   -0.475833
     4  H    0.152114
     5  H    0.149807
     6  H    0.152079
     7  H    0.152141
     8  H    0.155262
     9  H    0.155485
    10  H    0.160367
    11  C   -0.297351
    12  C   -0.309516
    13  C   -0.475416
    14  H    0.149481
    15  H    0.150061
    16  H    0.161110
    17  H    0.151759
    18  H    0.155769
    19  H    0.155033
    20  H    0.160129
    21  C   -0.298911
    22  C   -0.303979
    23  C   -0.475535
    24  H    0.150035
    25  H    0.150071
    26  H    0.153982
    27  H    0.152496
    28  H    0.155648
    29  H    0.155059
    30  H    0.160223
    31  C   -0.304267
    32  C   -0.299521
    33  C   -0.475934
    34  H    0.155114
    35  H    0.149855
    36  H    0.151888
    37  H    0.151915
    38  H    0.155140
    39  H    0.155729
    40  H    0.160114
 Sum of Mulliken charges =  -0.00000

 Dipole moment (field-independent basis, Debye):
    X=             -0.0115    Y=             -0.0026    Z=             -0.0043  Tot=              0.0126
 Quadrupole moment (field-independent basis, Debye-Ang):
   XX=            -84.2080   YY=            -84.6559   ZZ=            -85.8031
   XY=              1.1545   XZ=             -0.4414   YZ=             -0.1294

 Normal termination of Gaussian 16 at Thu May  6 00:34:24 2021.
