 Gaussian 16, Revision A.03,
 Gaussian 16:  EM64L-G16RevA.03 25-Dec-2016

 -------------
 #p 6-31g* mp2
 -------------

 ------------------------------------------------------
 Input file generated by CHIRIPA (05-May-2021 14:55:20)
 ------------------------------------------------------
 Symbolic Z-matrix:
 Charge =  0 Multiplicity = 1

                         Standard orientation:
 ---------------------------------------------------------------------
 Center     Atomic      Atomic             Coordinates (Angstroms)
 Number     Number       Type             X           Y           Z
 ---------------------------------------------------------------------
      1          6           0       -2.663077   -2.380018    0.676076
      2          6           0       -2.672862   -1.915557   -0.643280
      3          6           0       -2.784368   -0.548494   -0.913937
      4          6           0       -2.884682    0.330085    0.163711
      5          6           0       -2.877838   -0.101823    1.489116
      6          6           0       -2.765416   -1.473268    1.736194
      7          1           0       -2.576101   -3.443688    0.877170
      8          1           0       -2.593537   -2.617454   -1.468564
      9          1           0       -2.794507   -0.161705   -1.925722
     10          1           0       -2.958520    0.622070    2.290919
     11          1           0       -2.758085   -1.831122    2.761831
     12          7           0       -3.003213    1.779653   -0.110340
     13          8           0       -3.090234    2.533246    0.856698
     14          8           0       -3.006852    2.134784   -1.286991
     15          6           0        4.319436   -0.306278    0.082391
     16          6           0        5.249738    0.884201    0.317511
     17          6           0        6.550042    0.488987    1.018089
     18          1           0        4.088894   -0.779383    1.046738
     19          1           0        4.845824   -1.061046   -0.518140
     20          1           0        4.721277    1.637100    0.916251
     21          1           0        5.477940    1.354644   -0.647489
     22          1           0        7.101484   -0.244816    0.421392
     23          1           0        6.340522    0.039246    1.994017
     24          1           0        7.200166    1.355123    1.176222
     25          6           0        3.015340    0.072860   -0.617119
     26          6           0        2.085038   -1.117620   -0.852238
     27          6           0        0.784734   -0.722405   -1.552817
     28          1           0        2.488952    0.827627   -0.016587
     29          1           0        3.245882    0.545965   -1.581466
     30          1           0        1.856836   -1.588063    0.112761
     31          1           0        2.613499   -1.870518   -1.450978
     32          1           0        0.994253   -0.272664   -2.528744
     33          1           0        0.233292    0.011397   -0.956120
     34          1           0        0.134610   -1.588541   -1.710950
 ---------------------------------------------------------------------

 SCF Done:  E(RHF) =  -669.534482592     A.U. after   15 cycles
 E2 =    -0.2092661797D+01 EUMP2 =    -0.67162714438887D+03

 The electronic state is 1-A.
 Alpha  occ. eigenvalues --  -20.60778 -20.60771 -15.85832 -11.31184 -11.27775
 Alpha  occ. eigenvalues --  -11.27749 -11.27518 -11.26777 -11.26751 -11.21726
 Alpha  occ. eigenvalues --  -11.21592 -11.21438 -11.21376 -11.21146 -11.21080
 Alpha  occ. eigenvalues --   -1.59855  -1.39407  -1.19377  -1.08770  -1.08474
 Alpha  occ. eigenvalues --   -1.04783  -1.03583  -0.96040  -0.95599  -0.87062
 Alpha  occ. eigenvalues --   -0.86177  -0.82435  -0.79658  -0.78282  -0.77479
 Alpha  occ. eigenvalues --   -0.72048  -0.71183  -0.70481  -0.65105  -0.65027
 Alpha  occ. eigenvalues --   -0.64784  -0.62129  -0.60991  -0.59433  -0.57651
 Alpha  occ. eigenvalues --   -0.55377  -0.55278  -0.53342  -0.52881  -0.52501
 Alpha  occ. eigenvalues --   -0.52441  -0.49934  -0.48808  -0.48802  -0.47971
 Alpha  occ. eigenvalues --   -0.46678  -0.45825  -0.45746  -0.44809  -0.43861
 Alpha  occ. eigenvalues --   -0.37348  -0.36275
 Alpha virt. eigenvalues --    0.05052   0.11186   0.16474   0.21198   0.22820
 Alpha virt. eigenvalues --    0.24206   0.26602   0.26658   0.27403   0.28150
 Alpha virt. eigenvalues --    0.28405   0.30241   0.31266   0.31805   0.32204

 Mulliken charges:
               1
     1  C   -0.171364
     2  C   -0.216741
     3  C   -0.165559
     4  C    0.157315
     5  C   -0.171760
     6  C   -0.218788
     7  H    0.225640
     8  H    0.223197
     9  H    0.276385
    10  H    0.275537
    11  H    0.223303
    12  N    0.487687
    13  O   -0.460806
    14  O   -0.459969
    15  C   -0.298139
    16  C   -0.299931
    17  C   -0.475695
    18  H    0.148231
    19  H    0.148707
    20  H    0.153352
    21  H    0.152804
    22  H    0.154683
    23  H    0.154470
    24  H    0.160930
    25  C   -0.298964
    26  C   -0.299627
    27  C   -0.475337
    28  H    0.152153
    29  H    0.151186
    30  H    0.149634
    31  H    0.150111
    32  H    0.156006
    33  H    0.158817
    34  H    0.152534
 Sum of Mulliken charges =  -0.00000

 Dipole moment (field-independent basis, Debye):
    X=              0.3889    Y=             -5.0648    Z=              0.9604  Tot=              5.1697
 Quadrupole moment (field-independent basis, Debye-Ang):
   XX=            -98.8273   YY=            -98.6971   ZZ=            -89.0917
   XY=             15.2451   XZ=             -3.7948   YZ=              0.6292

 Normal termination of Gaussian 16 at Thu May  6 01:20:54 2021.
