 Gaussian 16, Revision A.03,
 Gaussian 16:  EM64L-G16RevA.03 25-Dec-2016

 -------------
 #p 6-31g* mp2
 -------------

 ------------------------------------------------------
 Input file generated by CHIRIPA (05-May-2021 14:55:20)
 ------------------------------------------------------
 Symbolic Z-matrix:
 Charge =  0 Multiplicity = 1

                         Standard orientation:
 ---------------------------------------------------------------------
 Center     Atomic      Atomic             Coordinates (Angstroms)
 Number     Number       Type             X           Y           Z
 ---------------------------------------------------------------------
      1          6           0        3.257866    1.586437    1.454703
      2          6           0        2.134627    1.757622    0.638890
      3          6           0        1.694361    0.721252   -0.189754
      4          6           0        2.404259   -0.478407   -0.177493
      5          6           0        3.526925   -0.679599    0.624027
      6          6           0        3.949211    0.370516    1.444686
      7          1           0        3.592892    2.396852    2.095312
      8          1           0        1.595769    2.700831    0.644612
      9          1           0        0.827924    0.826747   -0.831297
     10          1           0        4.043528   -1.631329    0.596646
     11          1           0        4.821861    0.234738    2.077213
     12          7           0        1.947687   -1.582841   -1.050515
     13          8           0        2.590465   -2.630040   -1.021412
     14          8           0        0.955692   -1.380385   -1.747361
     15          6           0       -2.532506    0.759450   -0.123567
     16          6           0       -2.783383    2.089658   -0.834620
     17          6           0       -1.490876    2.838341   -1.161256
     18          1           0       -1.971168    0.945991    0.802202
     19          1           0       -1.892124    0.128821   -0.755716
     20          1           0       -3.424238    2.717049   -0.201926
     21          1           0       -3.344355    1.899948   -1.758707
     22          1           0       -0.850018    2.234769   -1.812104
     23          1           0       -0.930354    3.056513   -0.246479
     24          1           0       -1.693480    3.786372   -1.669242
     25          6           0       -3.815035   -0.000710    0.209605
     26          6           0       -3.564158   -1.330916    0.920658
     27          6           0       -4.856665   -2.079600    1.247294
     28          1           0       -4.455417    0.629919    0.841754
     29          1           0       -4.376373   -0.187251   -0.716164
     30          1           0       -3.003186   -1.141207    1.844745
     31          1           0       -2.923303   -1.958308    0.287964
     32          1           0       -5.417187   -2.297771    0.332517
     33          1           0       -5.497523   -1.476028    1.898143
     34          1           0       -4.654061   -3.027631    1.755280
 ---------------------------------------------------------------------

 SCF Done:  E(RHF) =  -669.535702071     A.U. after   15 cycles
 E2 =    -0.2092643607D+01 EUMP2 =    -0.67162834567815D+03

 The electronic state is 1-A.
 Alpha  occ. eigenvalues --  -20.60789 -20.60782 -15.85827 -11.31107 -11.27700
 Alpha  occ. eigenvalues --  -11.27614 -11.27436 -11.26704 -11.26663 -11.21903
 Alpha  occ. eigenvalues --  -11.21803 -11.21423 -11.21364 -11.21281 -11.20849
 Alpha  occ. eigenvalues --   -1.59853  -1.39410  -1.19288  -1.08703  -1.08475
 Alpha  occ. eigenvalues --   -1.04683  -1.03643  -0.96127  -0.95546  -0.87158
 Alpha  occ. eigenvalues --   -0.86088  -0.82383  -0.79734  -0.78264  -0.77404
 Alpha  occ. eigenvalues --   -0.72051  -0.71167  -0.70411  -0.65127  -0.64939
 Alpha  occ. eigenvalues --   -0.64673  -0.62081  -0.61031  -0.59494  -0.57706
 Alpha  occ. eigenvalues --   -0.55438  -0.55200  -0.53021  -0.52850  -0.52761
 Alpha  occ. eigenvalues --   -0.52557  -0.50074  -0.48807  -0.48802  -0.48014
 Alpha  occ. eigenvalues --   -0.46709  -0.45796  -0.45650  -0.44810  -0.43852
 Alpha  occ. eigenvalues --   -0.37279  -0.36273
 Alpha virt. eigenvalues --    0.05066   0.11348   0.16541   0.20044   0.23086
 Alpha virt. eigenvalues --    0.23980   0.24974   0.26163   0.27548   0.28114
 Alpha virt. eigenvalues --    0.29115   0.30621   0.31487   0.31757   0.32571

 Mulliken charges:
               1
     1  C   -0.170491
     2  C   -0.225908
     3  C   -0.176849
     4  C    0.157545
     5  C   -0.170016
     6  C   -0.219218
     7  H    0.225377
     8  H    0.226364
     9  H    0.288474
    10  H    0.275188
    11  H    0.223065
    12  N    0.488064
    13  O   -0.459920
    14  O   -0.462908
    15  C   -0.308949
    16  C   -0.298036
    17  C   -0.485483
    18  H    0.145189
    19  H    0.164691
    20  H    0.152291
    21  H    0.156932
    22  H    0.157890
    23  H    0.146623
    24  H    0.165374
    25  C   -0.297819
    26  C   -0.301735
    27  C   -0.475868
    28  H    0.147540
    29  H    0.151866
    30  H    0.149637
    31  H    0.160737
    32  H    0.156135
    33  H    0.153127
    34  H    0.161088
 Sum of Mulliken charges =  -0.00000

 Dipole moment (field-independent basis, Debye):
    X=              1.4900    Y=              3.8016    Z=              2.9805  Tot=              5.0552
 Quadrupole moment (field-independent basis, Debye-Ang):
   XX=            -85.0440   YY=            -97.5650   ZZ=            -95.2659
   XY=              5.7048   XZ=              9.2670   YZ=             -2.6734

 Normal termination of Gaussian 16 at Thu May  6 12:28:41 2021.
