 Gaussian 16, Revision A.03,
 Gaussian 16:  EM64L-G16RevA.03 25-Dec-2016

 -------------
 #p 6-31g* mp2
 -------------

 ------------------------------------------------------
 Input file generated by CHIRIPA (05-May-2021 14:51:11)
 ------------------------------------------------------
 Symbolic Z-matrix:
 Charge =  0 Multiplicity = 1

                         Standard orientation:
 ---------------------------------------------------------------------
 Center     Atomic      Atomic             Coordinates (Angstroms)
 Number     Number       Type             X           Y           Z
 ---------------------------------------------------------------------
      1          6           0       -2.482581   -1.173352    0.366499
      2          6           0       -1.434943   -1.432507    1.449678
      3          6           0       -1.353291   -2.905112    1.852866
      4          1           0       -3.464028   -1.511470    0.726196
      5          1           0       -2.245963   -1.783556   -0.516144
      6          1           0       -1.672684   -0.820954    2.329507
      7          1           0       -0.455908   -1.093557    1.087434
      8          1           0       -1.093172   -3.526888    0.990118
      9          1           0       -2.316862   -3.252736    2.239248
     10          1           0       -0.598210   -3.067781    2.628270
     11          6           0       -2.576040    0.294258   -0.047160
     12          6           0       -3.623678    0.553413   -1.130339
     13          6           0       -3.705330    2.026019   -1.533527
     14          1           0       -2.812658    0.904463    0.835483
     15          1           0       -1.594593    0.632376   -0.406857
     16          1           0       -4.602713    0.214463   -0.768095
     17          1           0       -3.385937   -0.058139   -2.010168
     18          1           0       -2.741760    2.373643   -1.919908
     19          1           0       -3.965449    2.647794   -0.670779
     20          1           0       -4.460411    2.188688   -2.308931
     21          6           0        2.318561   -0.102226   -0.655147
     22          6           0        3.374883   -1.190583   -0.849173
     23          6           0        2.938652   -2.267269   -1.843278
     24          1           0        1.383748   -0.564813   -0.310061
     25          1           0        2.097703    0.361931   -1.626319
     26          1           0        3.594692   -1.651609    0.122299
     27          1           0        4.307347   -0.725330   -1.193654
     28          1           0        2.738243   -1.826525   -2.825205
     29          1           0        2.021539   -2.758067   -1.501776
     30          1           0        3.708603   -3.035229   -1.966865
     31          6           0        2.740061    0.981320    0.335809
     32          6           0        1.683738    2.069677    0.529834
     33          6           0        2.119969    3.146363    1.523939
     34          1           0        2.960918    0.517162    1.306980
     35          1           0        3.674873    1.443907   -0.009278
     36          1           0        0.751274    1.604423    0.874315
     37          1           0        1.463929    2.530702   -0.441638
     38          1           0        3.037081    3.637161    1.182436
     39          1           0        2.320378    2.705619    2.505866
     40          1           0        1.350018    3.914323    1.647526
 ---------------------------------------------------------------------

 SCF Done:  E(RHF) =  -470.733289434     A.U. after   11 cycles
 E2 =    -0.1583924239D+01 EUMP2 =    -0.47231721367348D+03

 The electronic state is 1-A.
 Alpha  occ. eigenvalues --  -11.21653 -11.21640 -11.21597 -11.21593 -11.21439
 Alpha  occ. eigenvalues --  -11.21419 -11.21375 -11.21350 -11.21131 -11.21113
 Alpha  occ. eigenvalues --  -11.21065 -11.21060  -1.08487  -1.08427  -1.03559
 Alpha  occ. eigenvalues --   -1.03546  -0.96005  -0.95997  -0.87029  -0.87006
 Alpha  occ. eigenvalues --   -0.79644  -0.79595  -0.78418  -0.78133  -0.65284
 Alpha  occ. eigenvalues --   -0.64912  -0.61001  -0.60903  -0.59373  -0.59366
 Alpha  occ. eigenvalues --   -0.57635  -0.57588  -0.55317  -0.55264  -0.52713
 Alpha  occ. eigenvalues --   -0.52679  -0.52452  -0.52402  -0.50018  -0.49878
 Alpha  occ. eigenvalues --   -0.47999  -0.47895  -0.46804  -0.46641  -0.46271
 Alpha  occ. eigenvalues --   -0.45764  -0.45751  -0.45087  -0.43812  -0.43795
 Alpha virt. eigenvalues --    0.19971   0.23389   0.23494   0.24406   0.25180
 Alpha virt. eigenvalues --    0.26796   0.26895   0.27813   0.27897   0.30053
 Alpha virt. eigenvalues --    0.31217   0.31565   0.31832   0.31934   0.32165

 Mulliken charges:
               1
     1  C   -0.297505
     2  C   -0.309845
     3  C   -0.475293
     4  H    0.149885
     5  H    0.149475
     6  H    0.152158
     7  H    0.159975
     8  H    0.154957
     9  H    0.155773
    10  H    0.160092
    11  C   -0.302822
    12  C   -0.299595
    13  C   -0.475715
    14  H    0.149173
    15  H    0.154576
    16  H    0.151883
    17  H    0.152055
    18  H    0.155475
    19  H    0.155104
    20  H    0.160160
    21  C   -0.307844
    22  C   -0.299069
    23  C   -0.475718
    24  H    0.157435
    25  H    0.149372
    26  H    0.152150
    27  H    0.152271
    28  H    0.155150
    29  H    0.154677
    30  H    0.160588
    31  C   -0.297511
    32  C   -0.304986
    33  C   -0.475610
    34  H    0.149509
    35  H    0.149850
    36  H    0.157654
    37  H    0.151313
    38  H    0.155073
    39  H    0.155222
    40  H    0.160508
 Sum of Mulliken charges =  -0.00000

 Dipole moment (field-independent basis, Debye):
    X=              0.0005    Y=              0.0016    Z=              0.0028  Tot=              0.0033
 Quadrupole moment (field-independent basis, Debye-Ang):
   XX=            -84.1572   YY=            -86.2580   ZZ=            -84.3062
   XY=              0.1375   XZ=             -1.0245   YZ=             -0.4800

 Normal termination of Gaussian 16 at Wed May  5 16:43:19 2021.
