 Gaussian 16, Revision A.03,
 Gaussian 16:  EM64L-G16RevA.03 25-Dec-2016

 -------------
 #p 6-31g* mp2
 -------------

 ------------------------------------------------------
 Input file generated by CHIRIPA (05-May-2021 14:53:16)
 ------------------------------------------------------
 Symbolic Z-matrix:
 Charge =  0 Multiplicity = 1

                         Standard orientation:
 ---------------------------------------------------------------------
 Center     Atomic      Atomic             Coordinates (Angstroms)
 Number     Number       Type             X           Y           Z
 ---------------------------------------------------------------------
      1          6           0        4.201245   -0.247291    0.135789
      2          6           0        3.409593   -1.553689    0.068010
      3          6           0        1.903457   -1.340954    0.223224
      4          1           0        3.996432    0.248829    1.094362
      5          1           0        3.842957    0.431644   -0.650386
      6          1           0        3.770215   -2.230484    0.853196
      7          1           0        3.616464   -2.046851   -0.890433
      8          1           0        1.523359   -0.686199   -0.567613
      9          1           0        1.677983   -0.870876    1.185922
     10          1           0        1.356860   -2.287758    0.171707
     11          6           0        5.708431   -0.443588   -0.017786
     12          6           0        6.500084    0.862811    0.049993
     13          6           0        8.006220    0.650076   -0.105220
     14          1           0        6.066720   -1.122522    0.768390
     15          1           0        5.913245   -0.939707   -0.976358
     16          1           0        6.293213    1.355972    1.008436
     17          1           0        6.139462    1.539606   -0.735192
     18          1           0        8.231694    0.179997   -1.067919
     19          1           0        8.386318   -0.004680    0.685616
     20          1           0        8.552817    1.596880   -0.053704
     21          6           0       -1.950664    1.902907   -0.153630
     22          6           0       -1.720606    0.537717   -0.353245
     23          6           0       -2.777058   -0.376161   -0.295935
     24          6           0       -4.056615    0.111999   -0.035699
     25          6           0       -4.317828    1.466164    0.167511
     26          6           0       -3.246257    2.361965    0.105654
     27          1           0       -1.124115    2.605808   -0.199916
     28          1           0       -0.715475    0.178358   -0.554784
     29          1           0       -2.627189   -1.438349   -0.446651
     30          1           0       -5.330778    1.794383    0.366559
     31          1           0       -3.427884    3.421635    0.261078
     32          7           0       -5.183036   -0.845914    0.027379
     33          8           0       -6.301052   -0.390511    0.258216
     34          8           0       -4.926580   -2.033992   -0.155211
 ---------------------------------------------------------------------

 SCF Done:  E(RHF) =  -669.535573834     A.U. after   15 cycles
 E2 =    -0.2090810110D+01 EUMP2 =    -0.67162638394426D+03

 The electronic state is 1-A.
 Alpha  occ. eigenvalues --  -20.60697 -20.60692 -15.85749 -11.31096 -11.27665
 Alpha  occ. eigenvalues --  -11.27643 -11.27394 -11.26684 -11.26606 -11.22380
 Alpha  occ. eigenvalues --  -11.22155 -11.22094 -11.22084 -11.21918 -11.21471
 Alpha  occ. eigenvalues --   -1.59773  -1.39327  -1.19262  -1.09076  -1.08662
 Alpha  occ. eigenvalues --   -1.04660  -1.04200  -0.96676  -0.95501  -0.87706
 Alpha  occ. eigenvalues --   -0.86058  -0.82332  -0.80278  -0.78867  -0.77380
 Alpha  occ. eigenvalues --   -0.71968  -0.71095  -0.70376  -0.65706  -0.64912
 Alpha  occ. eigenvalues --   -0.64677  -0.62046  -0.61571  -0.60041  -0.58265
 Alpha  occ. eigenvalues --   -0.55981  -0.55167  -0.53401  -0.53196  -0.52992
 Alpha  occ. eigenvalues --   -0.52625  -0.50607  -0.48744  -0.48724  -0.48555
 Alpha  occ. eigenvalues --   -0.47287  -0.46414  -0.46318  -0.44736  -0.44441
 Alpha  occ. eigenvalues --   -0.37248  -0.36261
 Alpha virt. eigenvalues --    0.05146   0.11379   0.16637   0.20460   0.22344
 Alpha virt. eigenvalues --    0.23734   0.25278   0.26179   0.26987   0.28291
 Alpha virt. eigenvalues --    0.28751   0.29933   0.30999   0.31264   0.31985

 Mulliken charges:
               1
     1  C   -0.298852
     2  C   -0.299383
     3  C   -0.481734
     4  H    0.149917
     5  H    0.147215
     6  H    0.156204
     7  H    0.154733
     8  H    0.146170
     9  H    0.158470
    10  H    0.164573
    11  C   -0.298822
    12  C   -0.299991
    13  C   -0.476044
    14  H    0.151328
    15  H    0.150968
    16  H    0.152104
    17  H    0.151379
    18  H    0.155971
    19  H    0.156211
    20  H    0.161238
    21  C   -0.173388
    22  C   -0.225695
    23  C   -0.173882
    24  C    0.158821
    25  C   -0.171508
    26  C   -0.218445
    27  H    0.225503
    28  H    0.236557
    29  H    0.275647
    30  H    0.275180
    31  H    0.222902
    32  N    0.488090
    33  O   -0.460825
    34  O   -0.460612
 Sum of Mulliken charges =  -0.00000

 Dipole moment (field-independent basis, Debye):
    X=              4.2167    Y=              3.3104    Z=             -0.1824  Tot=              5.3641
 Quadrupole moment (field-independent basis, Debye-Ang):
   XX=           -125.9429   YY=            -91.2926   ZZ=            -94.4125
   XY=            -16.2743   XZ=              0.3463   YZ=              0.5464

 Normal termination of Gaussian 16 at Thu May  6 20:26:06 2021.
