 Gaussian 16, Revision A.03,
 Gaussian 16:  EM64L-G16RevA.03 25-Dec-2016

 -------------
 #p 6-31g* mp2
 -------------

 ------------------------------------------------------
 Input file generated by CHIRIPA (05-May-2021 14:55:24)
 ------------------------------------------------------
 Symbolic Z-matrix:
 Charge =  0 Multiplicity = 1

                         Standard orientation:
 ---------------------------------------------------------------------
 Center     Atomic      Atomic             Coordinates (Angstroms)
 Number     Number       Type             X           Y           Z
 ---------------------------------------------------------------------
      1          6           0        3.343342   -2.490234   -0.196119
      2          6           0        4.521511   -1.800425    0.108190
      3          6           0        4.539237   -0.402741    0.134850
      4          6           0        3.355379    0.276340   -0.149088
      5          6           0        2.165701   -0.382373   -0.455768
      6          6           0        2.171264   -1.780258   -0.476632
      7          1           0        3.338618   -3.576067   -0.214578
      8          1           0        5.433250   -2.349186    0.326453
      9          1           0        5.437359    0.156487    0.367358
     10          1           0        1.272512    0.192225   -0.669000
     11          1           0        1.254818   -2.313331   -0.713285
     12          7           0        3.361818    1.756112   -0.123932
     13          8           0        2.305601    2.331110   -0.377747
     14          8           0        4.422958    2.312941    0.149125
     15          6           0       -4.925794    0.373665    0.089966
     16          6           0       -6.138268   -0.462303   -0.321186
     17          6           0       -7.395473    0.382496   -0.529860
     18          1           0       -5.160670    0.918693    1.014479
     19          1           0       -4.734532    1.133236   -0.680661
     20          1           0       -6.326343   -1.220963    0.449320
     21          1           0       -5.900412   -1.005552   -1.244723
     22          1           0       -7.231902    1.129657   -1.313184
     23          1           0       -7.660254    0.913022    0.390484
     24          1           0       -8.250053   -0.235135   -0.823263
     25          6           0       -3.661261   -0.456753    0.302312
     26          6           0       -2.448787    0.379217    0.713463
     27          6           0       -1.191582   -0.465583    0.922138
     28          1           0       -3.852523   -1.216323    1.072939
     29          1           0       -3.426386   -1.001780   -0.622201
     30          1           0       -2.686644    0.922466    1.637000
     31          1           0       -2.260712    1.137877   -0.057042
     32          1           0       -0.926801   -0.996109    0.001794
     33          1           0       -1.355153   -1.212744    1.705462
     34          1           0       -0.337001    0.152048    1.215541
 ---------------------------------------------------------------------

 SCF Done:  E(RHF) =  -669.534657815     A.U. after   15 cycles
 E2 =    -0.2092061742D+01 EUMP2 =    -0.67162671955676D+03

 The electronic state is 1-A.
 Alpha  occ. eigenvalues --  -20.60737 -20.60731 -15.85785 -11.31102 -11.27689
 Alpha  occ. eigenvalues --  -11.27614 -11.27428 -11.26697 -11.26661 -11.21873
 Alpha  occ. eigenvalues --  -11.21747 -11.21661 -11.21651 -11.21523 -11.21162
 Alpha  occ. eigenvalues --   -1.59811  -1.39366  -1.19285  -1.08690  -1.08662
 Alpha  occ. eigenvalues --   -1.04692  -1.03792  -0.96287  -0.95525  -0.87315
 Alpha  occ. eigenvalues --   -0.86082  -0.82366  -0.79867  -0.78458  -0.77405
 Alpha  occ. eigenvalues --   -0.72006  -0.71134  -0.70409  -0.65304  -0.64936
 Alpha  occ. eigenvalues --   -0.64704  -0.62150  -0.61131  -0.59612  -0.57864
 Alpha  occ. eigenvalues --   -0.55614  -0.55157  -0.53234  -0.52935  -0.52733
 Alpha  occ. eigenvalues --   -0.52519  -0.50219  -0.48761  -0.48759  -0.48169
 Alpha  occ. eigenvalues --   -0.46876  -0.46009  -0.45914  -0.44782  -0.44030
 Alpha  occ. eigenvalues --   -0.37274  -0.36244
 Alpha virt. eigenvalues --    0.05099   0.11318   0.16576   0.20448   0.22778
 Alpha virt. eigenvalues --    0.23980   0.25633   0.26684   0.27237   0.28100
 Alpha virt. eigenvalues --    0.29097   0.30196   0.31304   0.31661   0.32248

 Mulliken charges:
               1
     1  C   -0.170965
     2  C   -0.218843
     3  C   -0.170991
     4  C    0.156998
     5  C   -0.171109
     6  C   -0.219854
     7  H    0.225296
     8  H    0.223043
     9  H    0.275185
    10  H    0.280106
    11  H    0.224433
    12  N    0.488588
    13  O   -0.461657
    14  O   -0.460472
    15  C   -0.298746
    16  C   -0.299728
    17  C   -0.475903
    18  H    0.151191
    19  H    0.151483
    20  H    0.151531
    21  H    0.151203
    22  H    0.156103
    23  H    0.155902
    24  H    0.160324
    25  C   -0.298608
    26  C   -0.300815
    27  C   -0.482340
    28  H    0.149047
    29  H    0.146985
    30  H    0.156475
    31  H    0.157308
    32  H    0.141742
    33  H    0.157449
    34  H    0.169638
 Sum of Mulliken charges =  -0.00000

 Dipole moment (field-independent basis, Debye):
    X=             -0.1398    Y=             -5.1390    Z=             -0.0229  Tot=              5.1410
 Quadrupole moment (field-independent basis, Debye-Ang):
   XX=            -90.9572   YY=            -98.5571   ZZ=            -94.2740
   XY=            -17.5032   XZ=              0.5456   YZ=              0.7321

 Normal termination of Gaussian 16 at Wed May  5 17:35:33 2021.
