 Gaussian 16, Revision A.03,
 Gaussian 16:  EM64L-G16RevA.03 25-Dec-2016

 -------------
 #p 6-31g* mp2
 -------------

 ------------------------------------------------------
 Input file generated by CHIRIPA (05-May-2021 14:51:13)
 ------------------------------------------------------
 Symbolic Z-matrix:
 Charge =  0 Multiplicity = 1

                         Standard orientation:
 ---------------------------------------------------------------------
 Center     Atomic      Atomic             Coordinates (Angstroms)
 Number     Number       Type             X           Y           Z
 ---------------------------------------------------------------------
      1          6           0       -3.701371   -0.312438   -0.417794
      2          6           0       -5.132513    0.023065    0.003223
      3          6           0       -6.022210    0.406473   -1.179668
      4          1           0       -3.267508    0.551317   -0.939939
      5          1           0       -3.723869   -1.137312   -1.143378
      6          1           0       -5.107229    0.846140    0.728844
      7          1           0       -5.562954   -0.841521    0.524595
      8          1           0       -6.077190   -0.414164   -1.902256
      9          1           0       -5.618876    1.283085   -1.696846
     10          1           0       -7.040779    0.642353   -0.856036
     11          6           0       -2.799786   -0.697680    0.753726
     12          6           0       -1.368644   -1.033183    0.332709
     13          6           0       -0.478947   -1.416590    1.515600
     14          1           0       -2.777287    0.127194    1.479310
     15          1           0       -3.233649   -1.561435    1.275870
     16          1           0       -0.938202   -0.168597   -0.188663
     17          1           0       -1.393928   -1.856257   -0.392912
     18          1           0       -0.882281   -2.293203    2.032778
     19          1           0       -0.423967   -0.595953    2.238188
     20          1           0        0.539622   -1.652471    1.191967
     21          6           0        3.418249   -0.210900    0.038729
     22          6           0        4.321660   -0.934646   -0.960283
     23          6           0        4.648217   -2.365898   -0.532880
     24          1           0        3.906329   -0.198871    1.022893
     25          1           0        2.486219   -0.780329    0.158997
     26          1           0        5.251133   -0.363294   -1.079677
     27          1           0        3.831458   -0.944785   -1.942227
     28          1           0        3.731868   -2.956485   -0.432321
     29          1           0        5.159609   -2.371691    0.435131
     30          1           0        5.295093   -2.864708   -1.261304
     31          6           0        3.082907    1.221017   -0.374660
     32          6           0        2.179497    1.944763    0.624351
     33          6           0        1.852940    3.376016    0.196949
     34          1           0        4.014938    1.790447   -0.494928
     35          1           0        2.594827    1.208988   -1.358824
     36          1           0        2.669698    1.954902    1.606296
     37          1           0        1.250024    1.373412    0.743745
     38          1           0        1.341548    3.381809   -0.771062
     39          1           0        2.769289    3.966604    0.096389
     40          1           0        1.206063    3.874825    0.925372
 ---------------------------------------------------------------------

 SCF Done:  E(RHF) =  -470.733120576     A.U. after   11 cycles
 E2 =    -0.1583428082D+01 EUMP2 =    -0.47231654865767D+03

 The electronic state is 1-A.
 Alpha  occ. eigenvalues --  -11.21667 -11.21623 -11.21596 -11.21587 -11.21441
 Alpha  occ. eigenvalues --  -11.21394 -11.21381 -11.21332 -11.21089 -11.21088
 Alpha  occ. eigenvalues --  -11.21084 -11.21074  -1.08476  -1.08420  -1.03572
 Alpha  occ. eigenvalues --   -1.03526  -0.96024  -0.95972  -0.87036  -0.86992
 Alpha  occ. eigenvalues --   -0.79637  -0.79584  -0.78282  -0.78243  -0.65183
 Alpha  occ. eigenvalues --   -0.64999  -0.61067  -0.60830  -0.59405  -0.59344
 Alpha  occ. eigenvalues --   -0.57703  -0.57526  -0.55300  -0.55271  -0.52775
 Alpha  occ. eigenvalues --   -0.52653  -0.52484  -0.52336  -0.49954  -0.49922
 Alpha  occ. eigenvalues --   -0.48028  -0.47836  -0.46689  -0.46595  -0.45828
 Alpha  occ. eigenvalues --   -0.45770  -0.45758  -0.45645  -0.43804  -0.43756
 Alpha virt. eigenvalues --    0.20127   0.23100   0.23838   0.24042   0.26309
 Alpha virt. eigenvalues --    0.26744   0.27007   0.27616   0.27935   0.28849
 Alpha virt. eigenvalues --    0.30337   0.31484   0.31699   0.31856   0.32367

 Mulliken charges:
               1
     1  C   -0.298347
     2  C   -0.299706
     3  C   -0.475743
     4  H    0.149649
     5  H    0.149525
     6  H    0.152057
     7  H    0.152009
     8  H    0.155183
     9  H    0.155236
    10  H    0.160360
    11  C   -0.298097
    12  C   -0.302873
    13  C   -0.481702
    14  H    0.149755
    15  H    0.149986
    16  H    0.153125
    17  H    0.151954
    18  H    0.155541
    19  H    0.156177
    20  H    0.165505
    21  C   -0.306387
    22  C   -0.299096
    23  C   -0.475726
    24  H    0.149647
    25  H    0.157365
    26  H    0.151970
    27  H    0.151880
    28  H    0.154656
    29  H    0.155320
    30  H    0.160350
    31  C   -0.297476
    32  C   -0.305789
    33  C   -0.475563
    34  H    0.149554
    35  H    0.149296
    36  H    0.151998
    37  H    0.158373
    38  H    0.154775
    39  H    0.155374
    40  H    0.159887
 Sum of Mulliken charges =  -0.00000

 Dipole moment (field-independent basis, Debye):
    X=             -0.0108    Y=             -0.0105    Z=              0.0134  Tot=              0.0201
 Quadrupole moment (field-independent basis, Debye-Ang):
   XX=            -84.7085   YY=            -84.9316   ZZ=            -85.1080
   XY=              1.1099   XZ=             -0.1640   YZ=              0.6930

 Normal termination of Gaussian 16 at Thu May  6 05:32:40 2021.
