 Gaussian 16, Revision A.03,
 Gaussian 16:  EM64L-G16RevA.03 25-Dec-2016

 -------------
 #p 6-31g* mp2
 -------------

 ------------------------------------------------------
 Input file generated by CHIRIPA (05-May-2021 14:55:19)
 ------------------------------------------------------
 Symbolic Z-matrix:
 Charge =  0 Multiplicity = 1

                         Standard orientation:
 ---------------------------------------------------------------------
 Center     Atomic      Atomic             Coordinates (Angstroms)
 Number     Number       Type             X           Y           Z
 ---------------------------------------------------------------------
      1          6           0        2.647262    0.971796    1.657071
      2          6           0        3.061905    0.925962    0.321971
      3          6           0        2.524145   -0.019415   -0.556450
      4          6           0        1.569417   -0.907775   -0.063904
      5          6           0        1.135888   -0.887256    1.260831
      6          6           0        1.687269    0.066636    2.121421
      7          1           0        3.070297    1.709495    2.332524
      8          1           0        3.807287    1.627675   -0.041415
      9          1           0        2.827138   -0.077087   -1.594856
     10          1           0        0.391162   -1.599890    1.593929
     11          1           0        1.363364    0.099905    3.157772
     12          7           0        0.992905   -1.913111   -0.984411
     13          8           0        0.153218   -2.684671   -0.525873
     14          8           0        1.391638   -1.910497   -2.147012
     15          6           0       -1.989939    1.540558   -0.575821
     16          6           0       -0.644720    2.215776   -0.306655
     17          6           0       -0.377928    3.395693   -1.241756
     18          1           0       -2.018449    1.197240   -1.619020
     19          1           0       -2.792869    2.283055   -0.469063
     20          1           0        0.155321    1.471908   -0.412533
     21          1           0       -0.619335    2.557357    0.736078
     22          1           0       -1.155342    4.158540   -1.130892
     23          1           0       -0.376285    3.066924   -2.286030
     24          1           0        0.588945    3.863636   -1.031880
     25          6           0       -2.271010    0.359175    0.351035
     26          6           0       -3.616230   -0.316043    0.081869
     27          6           0       -3.883022   -1.495960    1.016970
     28          1           0       -1.468081   -0.383322    0.244278
     29          1           0       -2.242501    0.702494    1.394234
     30          1           0       -3.641615   -0.657624   -0.960864
     31          1           0       -4.416271    0.427826    0.187747
     32          1           0       -3.884665   -1.167190    2.061244
     33          1           0       -3.105608   -2.258807    0.906107
     34          1           0       -4.849894   -1.963902    0.807095
 ---------------------------------------------------------------------

 SCF Done:  E(RHF) =  -669.533518100     A.U. after   15 cycles
 E2 =    -0.2097705712D+01 EUMP2 =    -0.67163122381221D+03

 The electronic state is 1-A.
 Alpha  occ. eigenvalues --  -20.61023 -20.61004 -15.86025 -11.31276 -11.27881
 Alpha  occ. eigenvalues --  -11.27872 -11.27638 -11.26890 -11.26872 -11.21354
 Alpha  occ. eigenvalues --  -11.21191 -11.21149 -11.21074 -11.21062 -11.20622
 Alpha  occ. eigenvalues --   -1.60069  -1.39627  -1.19526  -1.08911  -1.08179
 Alpha  occ. eigenvalues --   -1.04900  -1.03269  -0.95766  -0.95738  -0.86773
 Alpha  occ. eigenvalues --   -0.86294  -0.82586  -0.79363  -0.78067  -0.77619
 Alpha  occ. eigenvalues --   -0.72255  -0.71407  -0.70613  -0.65169  -0.64924
 Alpha  occ. eigenvalues --   -0.64781  -0.62243  -0.60698  -0.59161  -0.57371
 Alpha  occ. eigenvalues --   -0.55404  -0.55031  -0.53475  -0.52983  -0.52380
 Alpha  occ. eigenvalues --   -0.52170  -0.49685  -0.49032  -0.49005  -0.47614
 Alpha  occ. eigenvalues --   -0.46370  -0.45564  -0.45503  -0.44734  -0.43527
 Alpha  occ. eigenvalues --   -0.37430  -0.36439
 Alpha virt. eigenvalues --    0.04858   0.11058   0.16316   0.21116   0.23151
 Alpha virt. eigenvalues --    0.24206   0.26709   0.27028   0.27679   0.28112
 Alpha virt. eigenvalues --    0.28678   0.30771   0.31394   0.31988   0.32172

 Mulliken charges:
               1
     1  C   -0.169652
     2  C   -0.214007
     3  C   -0.177432
     4  C    0.160002
     5  C   -0.171668
     6  C   -0.215213
     7  H    0.226452
     8  H    0.224342
     9  H    0.275955
    10  H    0.276742
    11  H    0.224398
    12  N    0.489285
    13  O   -0.460482
    14  O   -0.458408
    15  C   -0.299046
    16  C   -0.305471
    17  C   -0.474772
    18  H    0.152893
    19  H    0.147778
    20  H    0.161935
    21  H    0.145731
    22  H    0.154750
    23  H    0.156563
    24  H    0.153448
    25  C   -0.305140
    26  C   -0.297046
    27  C   -0.480240
    28  H    0.155839
    29  H    0.141558
    30  H    0.157459
    31  H    0.148805
    32  H    0.148345
    33  H    0.166023
    34  H    0.160274
 Sum of Mulliken charges =  -0.00000

 Dipole moment (field-independent basis, Debye):
    X=              2.1968    Y=              3.3548    Z=              3.2050  Tot=              5.1335
 Quadrupole moment (field-independent basis, Debye-Ang):
   XX=            -87.2804   YY=           -101.9759   ZZ=            -92.5636
   XY=              4.7156   XZ=              2.9091   YZ=             -3.5962

 Normal termination of Gaussian 16 at Wed May  5 23:45:54 2021.
