 Gaussian 16, Revision A.03,
 Gaussian 16:  EM64L-G16RevA.03 25-Dec-2016

 -------------
 #p 6-31g* mp2
 -------------

 ------------------------------------------------------
 Input file generated by CHIRIPA (05-May-2021 14:55:24)
 ------------------------------------------------------
 Symbolic Z-matrix:
 Charge =  0 Multiplicity = 1

                         Standard orientation:
 ---------------------------------------------------------------------
 Center     Atomic      Atomic             Coordinates (Angstroms)
 Number     Number       Type             X           Y           Z
 ---------------------------------------------------------------------
      1          6           0        4.958769    0.574755   -0.497006
      2          6           0        4.286112    0.989862    0.657005
      3          6           0        3.066405    0.408378    1.015810
      4          6           0        2.545878   -0.590070    0.193958
      5          6           0        3.192119   -1.025260   -0.962015
      6          6           0        4.410592   -0.429710   -1.301414
      7          1           0        5.905787    1.031929   -0.768197
      8          1           0        4.709462    1.769728    1.283606
      9          1           0        2.524530    0.710672    1.903733
     10          1           0        2.745120   -1.804935   -1.566760
     11          1           0        4.930772   -0.754085   -2.198208
     12          7           0        1.255283   -1.213107    0.563537
     13          8           0        0.817790   -2.090828   -0.177302
     14          8           0        0.705645   -0.811924    1.587054
     15          6           0       -3.296818    1.350503   -0.146243
     16          6           0       -1.780522    1.503368   -0.270577
     17          6           0       -1.327449    2.962833   -0.220740
     18          1           0       -3.783268    1.914712   -0.953698
     19          1           0       -3.628160    1.806251    0.797102
     20          1           0       -1.451963    1.046244   -1.212756
     21          1           0       -1.297619    0.938574    0.537154
     22          1           0       -1.627084    3.427165    0.724362
     23          1           0       -1.782305    3.535445   -1.035491
     24          1           0       -0.240144    3.048975   -0.311341
     25          6           0       -3.765157   -0.102794   -0.194355
     26          6           0       -5.281454   -0.255660   -0.070022
     27          6           0       -5.734526   -1.715124   -0.119859
     28          1           0       -3.433815   -0.558543   -1.137702
     29          1           0       -3.278707   -0.667003    0.613099
     30          1           0       -5.764356    0.309134   -0.877753
     31          1           0       -5.610012    0.201465    0.872157
     32          1           0       -5.279670   -2.287736    0.694892
     33          1           0       -5.434891   -2.179456   -1.064960
     34          1           0       -6.821831   -1.801266   -0.029258
 ---------------------------------------------------------------------

 SCF Done:  E(RHF) =  -669.536427061     A.U. after   15 cycles
 E2 =    -0.2091419572D+01 EUMP2 =    -0.67162784663273D+03

 The electronic state is 1-A.
 Alpha  occ. eigenvalues --  -20.60949 -20.60941 -15.85965 -11.31281 -11.27843
 Alpha  occ. eigenvalues --  -11.27839 -11.27580 -11.26850 -11.26840 -11.20765
 Alpha  occ. eigenvalues --  -11.20607 -11.20503 -11.20482 -11.20309 -11.20271
 Alpha  occ. eigenvalues --   -1.59995  -1.39555  -1.19448  -1.08853  -1.07512
 Alpha  occ. eigenvalues --   -1.04844  -1.02704  -0.95697  -0.95178  -0.86244
 Alpha  occ. eigenvalues --   -0.86195  -0.82533  -0.78755  -0.77587  -0.77297
 Alpha  occ. eigenvalues --   -0.72193  -0.71298  -0.70558  -0.65105  -0.64847
 Alpha  occ. eigenvalues --   -0.64138  -0.62191  -0.60099  -0.58553  -0.56783
 Alpha  occ. eigenvalues --   -0.55349  -0.54468  -0.53175  -0.52936  -0.51910
 Alpha  occ. eigenvalues --   -0.51599  -0.49122  -0.48960  -0.48948  -0.47088
 Alpha  occ. eigenvalues --   -0.45849  -0.45086  -0.44842  -0.44485  -0.42938
 Alpha  occ. eigenvalues --   -0.37423  -0.36444
 Alpha virt. eigenvalues --    0.04906   0.11203   0.16379   0.21332   0.23777
 Alpha virt. eigenvalues --    0.25024   0.27254   0.27610   0.28066   0.28582
 Alpha virt. eigenvalues --    0.28797   0.30894   0.32139   0.32264   0.32563

 Mulliken charges:
               1
     1  C   -0.170573
     2  C   -0.218575
     3  C   -0.170898
     4  C    0.158958
     5  C   -0.170808
     6  C   -0.218556
     7  H    0.225988
     8  H    0.223889
     9  H    0.275823
    10  H    0.275769
    11  H    0.223780
    12  N    0.488895
    13  O   -0.458257
    14  O   -0.460299
    15  C   -0.297119
    16  C   -0.311494
    17  C   -0.474109
    18  H    0.144746
    19  H    0.147413
    20  H    0.148622
    21  H    0.173370
    22  H    0.153719
    23  H    0.152042
    24  H    0.153248
    25  C   -0.299999
    26  C   -0.299242
    27  C   -0.475229
    28  H    0.149910
    29  H    0.161478
    30  H    0.148294
    31  H    0.149956
    32  H    0.157827
    33  H    0.154822
    34  H    0.156610
 Sum of Mulliken charges =  -0.00000

 Dipole moment (field-independent basis, Debye):
    X=              4.7480    Y=              1.9968    Z=             -1.2112  Tot=              5.2913
 Quadrupole moment (field-independent basis, Debye-Ang):
   XX=            -73.1500   YY=            -97.6862   ZZ=            -91.2716
   XY=              2.7160   XZ=             -2.9821   YZ=              4.0324

 Normal termination of Gaussian 16 at Thu May  6 07:56:12 2021.
