 Gaussian 16, Revision A.03,
 Gaussian 16:  EM64L-G16RevA.03 25-Dec-2016

 -------------
 #p 6-31g* mp2
 -------------

 ------------------------------------------------------
 Input file generated by CHIRIPA (05-May-2021 14:53:14)
 ------------------------------------------------------
 Symbolic Z-matrix:
 Charge =  0 Multiplicity = 1

                         Standard orientation:
 ---------------------------------------------------------------------
 Center     Atomic      Atomic             Coordinates (Angstroms)
 Number     Number       Type             X           Y           Z
 ---------------------------------------------------------------------
      1          6           0        3.760321    1.026207    0.166336
      2          6           0        2.568190    1.901195   -0.222515
      3          6           0        2.554662    3.242184    0.511897
      4          1           0        3.740706    0.851763    1.250831
      5          1           0        4.690725    1.570925   -0.045853
      6          1           0        1.640333    1.354446   -0.010943
      7          1           0        2.590538    2.073418   -1.306238
      8          1           0        3.463948    3.810957    0.292133
      9          1           0        2.508345    3.087899    1.594787
     10          1           0        1.694120    3.851694    0.218937
     11          6           0        3.787717   -0.317706   -0.559526
     12          6           0        4.979848   -1.192694   -0.170675
     13          6           0        4.993376   -2.533682   -0.905087
     14          1           0        2.857312   -0.862424   -0.347337
     15          1           0        3.807332   -0.143261   -1.644021
     16          1           0        4.957500   -1.364917    0.913048
     17          1           0        5.907705   -0.645944   -0.382247
     18          1           0        5.039693   -2.379398   -1.987977
     19          1           0        4.084089   -3.102455   -0.685323
     20          1           0        5.853917   -3.143192   -0.612127
     21          6           0       -5.041903    0.445485   -1.055439
     22          6           0       -4.913877   -0.871988   -0.603339
     23          6           0       -3.758414   -1.283242    0.067722
     24          6           0       -2.746065   -0.346582    0.270474
     25          6           0       -2.843883    0.973087   -0.167927
     26          6           0       -4.008319    1.362202   -0.836675
     27          1           0       -5.942980    0.756358   -1.575837
     28          1           0       -5.714960   -1.586078   -0.771827
     29          1           0       -3.633061   -2.296976    0.428344
     30          1           0       -2.028332    1.662208    0.014851
     31          1           0       -4.104996    2.386020   -1.186669
     32          7           0       -1.518078   -0.770240    0.979672
     33          8           0       -0.640544    0.074140    1.145785
     34          8           0       -1.456368   -1.938660    1.356000
 ---------------------------------------------------------------------

 SCF Done:  E(RHF) =  -669.536371710     A.U. after   15 cycles
 E2 =    -0.2090971064D+01 EUMP2 =    -0.67162734277359D+03

 The electronic state is 1-A.
 Alpha  occ. eigenvalues --  -20.61000 -20.60988 -15.86029 -11.31314 -11.27875
 Alpha  occ. eigenvalues --  -11.27871 -11.27609 -11.26877 -11.26867 -11.20777
 Alpha  occ. eigenvalues --  -11.20510 -11.20426 -11.20366 -11.20345 -11.20294
 Alpha  occ. eigenvalues --   -1.60057  -1.39614  -1.19481  -1.08892  -1.07479
 Alpha  occ. eigenvalues --   -1.04873  -1.02649  -0.95740  -0.95129  -0.86275
 Alpha  occ. eigenvalues --   -0.86149  -0.82577  -0.78714  -0.77637  -0.77283
 Alpha  occ. eigenvalues --   -0.72257  -0.71367  -0.70591  -0.65141  -0.64876
 Alpha  occ. eigenvalues --   -0.64080  -0.62221  -0.60022  -0.58509  -0.56747
 Alpha  occ. eigenvalues --   -0.55380  -0.54404  -0.53207  -0.52965  -0.51860
 Alpha  occ. eigenvalues --   -0.51563  -0.49083  -0.49013  -0.48983  -0.47047
 Alpha  occ. eigenvalues --   -0.45734  -0.45116  -0.44846  -0.44571  -0.42899
 Alpha  occ. eigenvalues --   -0.37459  -0.36473
 Alpha virt. eigenvalues --    0.04866   0.11182   0.16342   0.21207   0.23809
 Alpha virt. eigenvalues --    0.24953   0.27060   0.27502   0.27950   0.28801
 Alpha virt. eigenvalues --    0.28860   0.30785   0.31886   0.32321   0.32659

 Mulliken charges:
               1
     1  C   -0.296255
     2  C   -0.311577
     3  C   -0.473457
     4  H    0.153113
     5  H    0.144030
     6  H    0.176590
     7  H    0.143750
     8  H    0.150943
     9  H    0.158180
    10  H    0.152147
    11  C   -0.300546
    12  C   -0.299041
    13  C   -0.475785
    14  H    0.159735
    15  H    0.144522
    16  H    0.153598
    17  H    0.148540
    18  H    0.152291
    19  H    0.157832
    20  H    0.157691
    21  C   -0.170495
    22  C   -0.218584
    23  C   -0.170752
    24  C    0.157789
    25  C   -0.170511
    26  C   -0.218573
    27  H    0.226109
    28  H    0.223886
    29  H    0.275814
    30  H    0.276187
    31  H    0.224056
    32  N    0.492417
    33  O   -0.464769
    34  O   -0.458873
 Sum of Mulliken charges =  -0.00000

 Dipole moment (field-independent basis, Debye):
    X=             -4.6178    Y=              1.3534    Z=             -2.3872  Tot=              5.3716
 Quadrupole moment (field-independent basis, Debye-Ang):
   XX=            -71.4231   YY=            -93.1013   ZZ=            -96.6529
   XY=             -0.5922   XZ=              5.8140   YZ=             -0.0364

 Normal termination of Gaussian 16 at Thu May  6 13:47:17 2021.
