 Gaussian 16, Revision A.03,
 Gaussian 16:  EM64L-G16RevA.03 25-Dec-2016

 -------------
 #p 6-31g* mp2
 -------------

 ------------------------------------------------------
 Input file generated by CHIRIPA (05-May-2021 14:53:16)
 ------------------------------------------------------
 Symbolic Z-matrix:
 Charge =  0 Multiplicity = 1

                         Standard orientation:
 ---------------------------------------------------------------------
 Center     Atomic      Atomic             Coordinates (Angstroms)
 Number     Number       Type             X           Y           Z
 ---------------------------------------------------------------------
      1          6           0       -3.165384    0.655633   -0.202546
      2          6           0       -3.525811    2.102387    0.136542
      3          6           0       -2.313805    3.034243    0.114637
      4          1           0       -2.411272    0.295531    0.510606
      5          1           0       -2.696143    0.625115   -1.195660
      6          1           0       -3.995490    2.129990    1.128135
      7          1           0       -4.279294    2.459024   -0.577383
      8          1           0       -1.847372    3.036392   -0.875836
      9          1           0       -1.561955    2.705489    0.839373
     10          1           0       -2.594172    4.063384    0.359836
     11          6           0       -4.366569   -0.288065   -0.184726
     12          6           0       -4.006143   -1.734819   -0.523814
     13          6           0       -5.218148   -2.666675   -0.501908
     14          1           0       -4.835811   -0.257547    0.808389
     15          1           0       -5.120682    0.072038   -0.897878
     16          1           0       -3.252660   -2.091456    0.190112
     17          1           0       -3.536464   -1.762422   -1.515407
     18          1           0       -5.969999   -2.337920   -1.226644
     19          1           0       -5.684582   -2.668824    0.488564
     20          1           0       -4.937781   -3.695816   -0.747107
     21          6           0        5.222159   -0.370589   -0.905151
     22          6           0        4.765892   -1.342934   -0.009110
     23          6           0        3.504331   -1.227411    0.582216
     24          6           0        2.721748   -0.121635    0.253410
     25          6           0        3.148255    0.863758   -0.635625
     26          6           0        4.413310    0.727717   -1.215002
     27          1           0        6.203527   -0.468299   -1.359866
     28          1           0        5.391900   -2.196956    0.233384
     29          1           0        3.126325   -1.965500    1.279176
     30          1           0        2.501517    1.703877   -0.857773
     31          1           0        4.765054    1.484390   -1.910536
     32          7           0        1.384341    0.011524    0.873095
     33          8           0        0.714051    0.995182    0.566883
     34          8           0        1.031696   -0.870285    1.653282
 ---------------------------------------------------------------------

 SCF Done:  E(RHF) =  -669.536348308     A.U. after   15 cycles
 E2 =    -0.2091414770D+01 EUMP2 =    -0.67162776307826D+03

 The electronic state is 1-A.
 Alpha  occ. eigenvalues --  -20.61015 -20.60995 -15.86026 -11.31322 -11.27882
 Alpha  occ. eigenvalues --  -11.27875 -11.27616 -11.26883 -11.26873 -11.20628
 Alpha  occ. eigenvalues --  -11.20305 -11.20271 -11.20260 -11.19870 -11.19484
 Alpha  occ. eigenvalues --   -1.60061  -1.39617  -1.19487  -1.08898  -1.07199
 Alpha  occ. eigenvalues --   -1.04879  -1.02341  -0.95745  -0.94779  -0.86281
 Alpha  occ. eigenvalues --   -0.85797  -0.82579  -0.78439  -0.77633  -0.76958
 Alpha  occ. eigenvalues --   -0.72248  -0.71367  -0.70596  -0.65144  -0.64883
 Alpha  occ. eigenvalues --   -0.63834  -0.62225  -0.59744  -0.58184  -0.56380
 Alpha  occ. eigenvalues --   -0.55386  -0.54057  -0.53212  -0.52970  -0.51531
 Alpha  occ. eigenvalues --   -0.51181  -0.49071  -0.49004  -0.48684  -0.46717
 Alpha  occ. eigenvalues --   -0.45464  -0.45050  -0.44511  -0.44327  -0.42587
 Alpha  occ. eigenvalues --   -0.37465  -0.36478
 Alpha virt. eigenvalues --    0.04886   0.11177   0.16388   0.21300   0.24041
 Alpha virt. eigenvalues --    0.25492   0.27227   0.27888   0.28090   0.28816
 Alpha virt. eigenvalues --    0.29198   0.30914   0.32390   0.32581   0.32813

 Mulliken charges:
               1
     1  C   -0.301607
     2  C   -0.298659
     3  C   -0.479299
     4  H    0.170406
     5  H    0.144114
     6  H    0.148616
     7  H    0.144365
     8  H    0.148603
     9  H    0.179116
    10  H    0.149726
    11  C   -0.297488
    12  C   -0.299658
    13  C   -0.474856
    14  H    0.147736
    15  H    0.144520
    16  H    0.157052
    17  H    0.148478
    18  H    0.152609
    19  H    0.154417
    20  H    0.157065
    21  C   -0.170489
    22  C   -0.218639
    23  C   -0.170406
    24  C    0.157665
    25  C   -0.170804
    26  C   -0.218595
    27  H    0.226101
    28  H    0.223888
    29  H    0.275834
    30  H    0.276313
    31  H    0.223995
    32  N    0.492529
    33  O   -0.462681
    34  O   -0.459966
 Sum of Mulliken charges =  -0.00000

 Dipole moment (field-independent basis, Debye):
    X=              5.1295    Y=             -0.5302    Z=             -2.0368  Tot=              5.5445
 Quadrupole moment (field-independent basis, Debye-Ang):
   XX=            -71.6946   YY=            -92.6137   ZZ=            -94.3459
   XY=             -3.0298   XZ=             -4.8606   YZ=             -2.5222

 Normal termination of Gaussian 16 at Wed May  5 20:19:07 2021.
