 Gaussian 16, Revision A.03,
 Gaussian 16:  EM64L-G16RevA.03 25-Dec-2016

 -------------
 #p 6-31g* mp2
 -------------

 ------------------------------------------------------
 Input file generated by CHIRIPA (05-May-2021 14:53:17)
 ------------------------------------------------------
 Symbolic Z-matrix:
 Charge =  0 Multiplicity = 1

                         Standard orientation:
 ---------------------------------------------------------------------
 Center     Atomic      Atomic             Coordinates (Angstroms)
 Number     Number       Type             X           Y           Z
 ---------------------------------------------------------------------
      1          6           0       -3.798055   -0.466076   -0.243197
      2          6           0       -2.631302   -0.583241    0.738101
      3          6           0       -1.312144   -0.933493    0.048943
      4          1           0       -3.907537   -1.413978   -0.787661
      5          1           0       -3.560893    0.300169   -0.994208
      6          1           0       -2.871181   -1.348062    1.487849
      7          1           0       -2.524707    0.364986    1.280429
      8          1           0       -1.046178   -0.167041   -0.686186
      9          1           0       -1.394621   -1.889822   -0.477587
     10          1           0       -0.491606   -1.012275    0.768922
     11          6           0       -5.123669   -0.116362    0.430729
     12          6           0       -6.290422    0.000802   -0.550569
     13          6           0       -7.609580    0.351055    0.138589
     14          1           0       -5.360831   -0.882607    1.181740
     15          1           0       -5.014187    0.831539    0.975193
     16          1           0       -6.397018   -0.947424   -1.092897
     17          1           0       -6.050544    0.765623   -1.300318
     18          1           0       -7.527104    1.307384    0.665119
     19          1           0       -7.875547   -0.415397    0.873718
     20          1           0       -8.430119    0.429837   -0.581390
     21          6           0        4.973562   -1.804412    0.073456
     22          6           0        5.472164   -0.544805    0.421748
     23          6           0        4.656435    0.587951    0.344312
     24          6           0        3.341145    0.423954   -0.087438
     25          6           0        2.815221   -0.817583   -0.441387
     26          6           0        3.649016   -1.936548   -0.356241
     27          1           0        5.614258   -2.679007    0.136605
     28          1           0        6.500419   -0.439195    0.755791
     29          1           0        5.016712    1.574956    0.607826
     30          1           0        1.785930   -0.891336   -0.770840
     31          1           0        3.259099   -2.913532   -0.627369
     32          7           0        2.468005    1.615853   -0.173496
     33          8           0        1.312843    1.444757   -0.556856
     34          8           0        2.955333    2.698589    0.144040
 ---------------------------------------------------------------------

 SCF Done:  E(RHF) =  -669.535790088     A.U. after   15 cycles
 E2 =    -0.2091451025D+01 EUMP2 =    -0.67162724111301D+03

 The electronic state is 1-A.
 Alpha  occ. eigenvalues --  -20.60809 -20.60802 -15.85855 -11.31180 -11.27757
 Alpha  occ. eigenvalues --  -11.27709 -11.27498 -11.26768 -11.26748 -11.21268
 Alpha  occ. eigenvalues --  -11.21115 -11.21003 -11.20917 -11.20782 -11.20530
 Alpha  occ. eigenvalues --   -1.59880  -1.39435  -1.19355  -1.08760  -1.08014
 Alpha  occ. eigenvalues --   -1.04750  -1.03116  -0.95650  -0.95529  -0.86614
 Alpha  occ. eigenvalues --   -0.86146  -0.82435  -0.79207  -0.77838  -0.77463
 Alpha  occ. eigenvalues --   -0.72087  -0.71199  -0.70464  -0.65014  -0.64759
 Alpha  occ. eigenvalues --   -0.64629  -0.62103  -0.60489  -0.58953  -0.57190
 Alpha  occ. eigenvalues --   -0.55262  -0.54836  -0.53089  -0.52888  -0.52240
 Alpha  occ. eigenvalues --   -0.52006  -0.49543  -0.48833  -0.48780  -0.47507
 Alpha  occ. eigenvalues --   -0.46193  -0.45374  -0.45279  -0.44833  -0.43379
 Alpha  occ. eigenvalues --   -0.37341  -0.36351
 Alpha virt. eigenvalues --    0.05032   0.11259   0.16536   0.21226   0.23311
 Alpha virt. eigenvalues --    0.24675   0.26340   0.27082   0.27730   0.27964
 Alpha virt. eigenvalues --    0.29175   0.30657   0.31642   0.31888   0.31992

 Mulliken charges:
               1
     1  C   -0.299041
     2  C   -0.299506
     3  C   -0.483186
     4  H    0.146439
     5  H    0.153466
     6  H    0.147564
     7  H    0.157663
     8  H    0.177526
     9  H    0.144232
    10  H    0.154509
    11  C   -0.298304
    12  C   -0.299498
    13  C   -0.475553
    14  H    0.147738
    15  H    0.151226
    16  H    0.150483
    17  H    0.153000
    18  H    0.155714
    19  H    0.154161
    20  H    0.159373
    21  C   -0.170428
    22  C   -0.218862
    23  C   -0.170575
    24  C    0.156168
    25  C   -0.174866
    26  C   -0.220650
    27  H    0.225545
    28  H    0.223354
    29  H    0.275423
    30  H    0.286160
    31  H    0.224003
    32  N    0.491320
    33  O   -0.464325
    34  O   -0.460275
 Sum of Mulliken charges =  -0.00000

 Dipole moment (field-independent basis, Debye):
    X=              3.1492    Y=             -4.0540    Z=              0.2657  Tot=              5.1403
 Quadrupole moment (field-independent basis, Debye-Ang):
   XX=            -73.0514   YY=            -96.4153   ZZ=            -95.2739
   XY=            -10.3805   XZ=              2.5608   YZ=              1.3963

 Normal termination of Gaussian 16 at Thu May  6 15:38:07 2021.
