 Gaussian 16, Revision A.03,
 Gaussian 16:  EM64L-G16RevA.03 25-Dec-2016

 -------------
 #p 6-31g* mp2
 -------------

 ------------------------------------------------------
 Input file generated by CHIRIPA (05-May-2021 14:51:08)
 ------------------------------------------------------
 Symbolic Z-matrix:
 Charge =  0 Multiplicity = 1

                         Standard orientation:
 ---------------------------------------------------------------------
 Center     Atomic      Atomic             Coordinates (Angstroms)
 Number     Number       Type             X           Y           Z
 ---------------------------------------------------------------------
      1          6           0        3.801843    0.143461    0.118847
      2          6           0        4.738345   -0.691234   -0.755357
      3          6           0        6.000536    0.069212   -1.163265
      4          1           0        3.522068    1.057228   -0.423094
      5          1           0        4.342989    0.467071    1.018753
      6          1           0        4.195178   -1.014332   -1.652683
      7          1           0        5.015770   -1.603213   -0.211347
      8          1           0        6.566851    0.378272   -0.278748
      9          1           0        5.741597    0.970498   -1.728273
     10          1           0        6.655770   -0.546098   -1.787702
     11          6           0        2.535578   -0.603078    0.534756
     12          6           0        1.599076    0.231617    1.408960
     13          6           0        0.336884   -0.528829    1.816867
     14          1           0        1.994431   -0.926689   -0.365151
     15          1           0        2.815353   -1.516846    1.076697
     16          1           0        1.321650    1.143595    0.864950
     17          1           0        2.142242    0.554715    2.306286
     18          1           0        0.595823   -1.430115    2.381876
     19          1           0       -0.229431   -0.837889    0.932351
     20          1           0       -0.318350    0.086481    2.441305
     21          6           0       -3.709927   -0.305832   -0.386849
     22          6           0       -3.159592   -1.731680   -0.341341
     23          6           0       -4.254430   -2.792064   -0.462629
     24          1           0       -4.440102   -0.175383    0.423568
     25          1           0       -4.258484   -0.161837   -1.327990
     26          1           0       -2.611061   -1.872506    0.598817
     27          1           0       -2.430502   -1.858691   -1.151842
     28          1           0       -4.796244   -2.680065   -1.407349
     29          1           0       -4.977830   -2.693960    0.353257
     30          1           0       -3.838888   -3.803976   -0.427757
     31          6           0       -2.627493    0.765448   -0.266754
     32          6           0       -3.177829    2.191297   -0.312261
     33          6           0       -2.082990    3.251681   -0.190974
     34          1           0       -2.078937    0.621455    0.674387
     35          1           0       -1.897319    0.635000   -1.077170
     36          1           0       -3.906919    2.318308    0.498239
     37          1           0       -3.726359    2.332125   -1.252421
     38          1           0       -1.359591    3.153577   -1.006860
     39          1           0       -1.541176    3.139682    0.753746
     40          1           0       -2.498533    4.263594   -0.225846
 ---------------------------------------------------------------------

 SCF Done:  E(RHF) =  -470.732156092     A.U. after   11 cycles
 E2 =    -0.1584003571D+01 EUMP2 =    -0.47231615966298D+03

 The electronic state is 1-A.
 Alpha  occ. eigenvalues --  -11.21594 -11.21583 -11.21576 -11.21572 -11.21391
 Alpha  occ. eigenvalues --  -11.21355 -11.21331 -11.21251 -11.21080 -11.21065
 Alpha  occ. eigenvalues --  -11.21058 -11.21001  -1.08442  -1.08379  -1.03523
 Alpha  occ. eigenvalues --   -1.03507  -0.96019  -0.95919  -0.87026  -0.86954
 Alpha  occ. eigenvalues --   -0.79613  -0.79578  -0.78289  -0.78151  -0.65131
 Alpha  occ. eigenvalues --   -0.64967  -0.60941  -0.60898  -0.59394  -0.59288
 Alpha  occ. eigenvalues --   -0.57591  -0.57575  -0.55385  -0.55149  -0.52733
 Alpha  occ. eigenvalues --   -0.52652  -0.52401  -0.52355  -0.50016  -0.49842
 Alpha  occ. eigenvalues --   -0.47972  -0.47845  -0.46719  -0.46606  -0.45866
 Alpha  occ. eigenvalues --   -0.45724  -0.45706  -0.45306  -0.43769  -0.43725
 Alpha virt. eigenvalues --    0.21447   0.23127   0.23618   0.24343   0.25877
 Alpha virt. eigenvalues --    0.26140   0.26823   0.27581   0.28280   0.29618
 Alpha virt. eigenvalues --    0.30386   0.31289   0.31627   0.31977   0.32399

 Mulliken charges:
               1
     1  C   -0.298338
     2  C   -0.299629
     3  C   -0.475694
     4  H    0.149742
     5  H    0.149534
     6  H    0.151803
     7  H    0.151921
     8  H    0.155197
     9  H    0.155177
    10  H    0.160200
    11  C   -0.298576
    12  C   -0.300834
    13  C   -0.482701
    14  H    0.149714
    15  H    0.149618
    16  H    0.153336
    17  H    0.151670
    18  H    0.154684
    19  H    0.164930
    20  H    0.158110
    21  C   -0.297130
    22  C   -0.303723
    23  C   -0.475482
    24  H    0.149305
    25  H    0.149027
    26  H    0.156460
    27  H    0.150818
    28  H    0.155084
    29  H    0.155245
    30  H    0.160267
    31  C   -0.306805
    32  C   -0.299058
    33  C   -0.476146
    34  H    0.161604
    35  H    0.147278
    36  H    0.151625
    37  H    0.151504
    38  H    0.154600
    39  H    0.155306
    40  H    0.160356
 Sum of Mulliken charges =  -0.00000

 Dipole moment (field-independent basis, Debye):
    X=             -0.0007    Y=             -0.0155    Z=              0.0186  Tot=              0.0243
 Quadrupole moment (field-independent basis, Debye-Ang):
   XX=            -86.0451   YY=            -85.6860   ZZ=            -83.2621
   XY=             -1.1145   XZ=              0.4880   YZ=             -0.2027

 Normal termination of Gaussian 16 at Wed May  5 22:54:21 2021.
