 Gaussian 16, Revision A.03,
 Gaussian 16:  EM64L-G16RevA.03 25-Dec-2016

 -------------
 #p 6-31g* mp2
 -------------

 ------------------------------------------------------
 Input file generated by CHIRIPA (05-May-2021 14:51:09)
 ------------------------------------------------------
 Symbolic Z-matrix:
 Charge =  0 Multiplicity = 1

                         Standard orientation:
 ---------------------------------------------------------------------
 Center     Atomic      Atomic             Coordinates (Angstroms)
 Number     Number       Type             X           Y           Z
 ---------------------------------------------------------------------
      1          6           0       -3.417041    0.891032    0.213539
      2          6           0       -4.418274    1.947827   -0.254117
      3          6           0       -4.120940    3.336048    0.313535
      4          1           0       -3.423863    0.849015    1.311325
      5          1           0       -2.404430    1.199517   -0.081164
      6          1           0       -5.428843    1.636762    0.040168
      7          1           0       -4.409206    1.987198   -1.350923
      8          1           0       -3.124324    3.671482    0.008834
      9          1           0       -4.149754    3.319054    1.407830
     10          1           0       -4.848807    4.076046   -0.033558
     11          6           0       -3.701045   -0.501983   -0.345549
     12          6           0       -2.699812   -1.558778    0.122108
     13          6           0       -2.997146   -2.946999   -0.445544
     14          1           0       -4.713656   -0.810468   -0.050845
     15          1           0       -3.694223   -0.459966   -1.443335
     16          1           0       -2.708880   -1.598150    1.218914
     17          1           0       -1.689243   -1.247713   -0.172178
     18          1           0       -2.968332   -2.930005   -1.539840
     19          1           0       -3.993762   -3.282433   -0.140844
     20          1           0       -2.269280   -3.686997   -0.098452
     21          6           0        3.077056   -0.715809   -0.215744
     22          6           0        2.151377   -1.319540    0.840956
     23          6           0        1.193004   -2.360723    0.261945
     24          1           0        2.469169   -0.256620   -1.007303
     25          1           0        3.653265   -1.521310   -0.691711
     26          1           0        1.578086   -0.512989    1.315751
     27          1           0        2.761538   -1.777177    1.630188
     28          1           0        1.750028   -3.185031   -0.195044
     29          1           0        0.559853   -1.913661   -0.511267
     30          1           0        0.540540   -2.779352    1.034538
     31          6           0        4.041031    0.326760    0.347754
     32          6           0        4.966709    0.930491   -0.708946
     33          6           0        5.925082    1.971674   -0.129936
     34          1           0        3.464821    1.132261    0.823720
     35          1           0        4.648916   -0.132429    1.139313
     36          1           0        4.356548    1.388128   -1.498178
     37          1           0        5.539999    0.123941   -1.183741
     38          1           0        6.558233    1.524612    0.643277
     39          1           0        5.368057    2.795984    0.327053
     40          1           0        6.577546    2.390304   -0.902528
 ---------------------------------------------------------------------

 SCF Done:  E(RHF) =  -470.732980438     A.U. after   11 cycles
 E2 =    -0.1582794406D+01 EUMP2 =    -0.47231577484352D+03

 The electronic state is 1-A.
 Alpha  occ. eigenvalues --  -11.21615 -11.21610 -11.21602 -11.21507 -11.21421
 Alpha  occ. eigenvalues --  -11.21390 -11.21361 -11.21321 -11.21081 -11.21078
 Alpha  occ. eigenvalues --  -11.21059 -11.21007  -1.08448  -1.08402  -1.03564
 Alpha  occ. eigenvalues --   -1.03478  -0.96018  -0.95926  -0.87012  -0.86967
 Alpha  occ. eigenvalues --   -0.79659  -0.79514  -0.78269  -0.78206  -0.65130
 Alpha  occ. eigenvalues --   -0.64998  -0.61091  -0.60779  -0.59451  -0.59232
 Alpha  occ. eigenvalues --   -0.57614  -0.57550  -0.55364  -0.55160  -0.52737
 Alpha  occ. eigenvalues --   -0.52589  -0.52417  -0.52362  -0.50041  -0.49827
 Alpha  occ. eigenvalues --   -0.47953  -0.47848  -0.46788  -0.46447  -0.45839
 Alpha  occ. eigenvalues --   -0.45750  -0.45735  -0.45556  -0.43790  -0.43753
 Alpha virt. eigenvalues --    0.21562   0.23120   0.23492   0.24878   0.26129
 Alpha virt. eigenvalues --    0.26812   0.26932   0.27491   0.27675   0.29101
 Alpha virt. eigenvalues --    0.29807   0.31214   0.31606   0.31881   0.32450

 Mulliken charges:
               1
     1  C   -0.298039
     2  C   -0.299588
     3  C   -0.475669
     4  H    0.149626
     5  H    0.148623
     6  H    0.152050
     7  H    0.151875
     8  H    0.154911
     9  H    0.155178
    10  H    0.160281
    11  C   -0.297982
    12  C   -0.304384
    13  C   -0.476596
    14  H    0.149289
    15  H    0.149197
    16  H    0.150997
    17  H    0.158247
    18  H    0.154618
    19  H    0.154786
    20  H    0.161905
    21  C   -0.298316
    22  C   -0.300727
    23  C   -0.478521
    24  H    0.149182
    25  H    0.149643
    26  H    0.152507
    27  H    0.152093
    28  H    0.155044
    29  H    0.157760
    30  H    0.161837
    31  C   -0.298310
    32  C   -0.299642
    33  C   -0.475719
    34  H    0.149586
    35  H    0.149756
    36  H    0.151814
    37  H    0.151964
    38  H    0.155229
    39  H    0.155219
    40  H    0.160277
 Sum of Mulliken charges =  -0.00000

 Dipole moment (field-independent basis, Debye):
    X=              0.0255    Y=             -0.0152    Z=              0.0075  Tot=              0.0306
 Quadrupole moment (field-independent basis, Debye-Ang):
   XX=            -84.6496   YY=            -85.9304   ZZ=            -84.2805
   XY=             -1.0721   XZ=             -0.5875   YZ=             -0.8772

 Normal termination of Gaussian 16 at Wed May  5 19:42:32 2021.
