 Gaussian 16, Revision A.03,
 Gaussian 16:  EM64L-G16RevA.03 25-Dec-2016

 -------------
 #p 6-31g* mp2
 -------------

 ------------------------------------------------------
 Input file generated by CHIRIPA (05-May-2021 14:53:15)
 ------------------------------------------------------
 Symbolic Z-matrix:
 Charge =  0 Multiplicity = 1

                         Standard orientation:
 ---------------------------------------------------------------------
 Center     Atomic      Atomic             Coordinates (Angstroms)
 Number     Number       Type             X           Y           Z
 ---------------------------------------------------------------------
      1          6           0       -3.588190   -0.251258    0.198875
      2          6           0       -3.029799   -1.661441    0.005046
      3          6           0       -1.523945   -1.740889    0.257802
      4          1           0       -3.064692    0.439520   -0.476196
      5          1           0       -3.368894    0.085031    1.221721
      6          1           0       -3.251296   -1.995510   -1.016694
      7          1           0       -3.554820   -2.348977    0.680520
      8          1           0       -1.288425   -1.433193    1.281743
      9          1           0       -0.983177   -1.077718   -0.425114
     10          1           0       -1.145768   -2.757778    0.113654
     11          6           0       -5.092367   -0.155751   -0.050237
     12          6           0       -5.650758    1.254431    0.143592
     13          6           0       -7.156612    1.333879   -0.109164
     14          1           0       -5.311663   -0.492041   -1.073083
     15          1           0       -5.615865   -0.846530    0.624834
     16          1           0       -5.125737    1.941967   -0.531882
     17          1           0       -5.429261    1.588500    1.165332
     18          1           0       -7.697380    0.670708    0.573752
     19          1           0       -7.392132    1.026183   -1.133105
     20          1           0       -7.534789    2.350768    0.034985
     21          6           0        3.983437    2.609030    0.051717
     22          6           0        4.957792    1.640685    0.315272
     23          6           0        4.640728    0.280294    0.257360
     24          6           0        3.333553   -0.077872   -0.068675
     25          6           0        2.340632    0.863229   -0.336493
     26          6           0        2.680264    2.217901   -0.272753
     27          1           0        4.238505    3.663593    0.098969
     28          1           0        5.970666    1.941526    0.567516
     29          1           0        5.375500   -0.490263    0.456781
     30          1           0        1.339519    0.532613   -0.585254
     31          1           0        1.921519    2.967739   -0.477917
     32          7           0        2.985946   -1.515031   -0.133069
     33          8           0        1.827088   -1.804637   -0.422574
     34          8           0        3.878932   -2.324655    0.107183
 ---------------------------------------------------------------------

 SCF Done:  E(RHF) =  -669.535436356     A.U. after   15 cycles
 E2 =    -0.2091332710D+01 EUMP2 =    -0.67162676906605D+03

 The electronic state is 1-A.
 Alpha  occ. eigenvalues --  -20.60795 -20.60785 -15.85831 -11.31202 -11.27773
 Alpha  occ. eigenvalues --  -11.27768 -11.27519 -11.26791 -11.26780 -11.21499
 Alpha  occ. eigenvalues --  -11.21171 -11.21086 -11.20988 -11.20970 -11.20086
 Alpha  occ. eigenvalues --   -1.59863  -1.39417  -1.19376  -1.08772  -1.08125
 Alpha  occ. eigenvalues --   -1.04780  -1.03129  -0.95644  -0.95512  -0.86558
 Alpha  occ. eigenvalues --   -0.86178  -0.82440  -0.79210  -0.77949  -0.77464
 Alpha  occ. eigenvalues --   -0.72055  -0.71180  -0.70487  -0.65033  -0.64796
 Alpha  occ. eigenvalues --   -0.64754  -0.62133  -0.60530  -0.58949  -0.57162
 Alpha  occ. eigenvalues --   -0.55284  -0.54849  -0.53109  -0.52879  -0.52170
 Alpha  occ. eigenvalues --   -0.51984  -0.49539  -0.48818  -0.48796  -0.47494
 Alpha  occ. eigenvalues --   -0.46262  -0.45471  -0.45400  -0.44806  -0.43354
 Alpha  occ. eigenvalues --   -0.37358  -0.36383
 Alpha virt. eigenvalues --    0.05038   0.11269   0.16524   0.20911   0.23090
 Alpha virt. eigenvalues --    0.24209   0.25923   0.27118   0.27652   0.27862
 Alpha virt. eigenvalues --    0.29205   0.30410   0.31564   0.32032   0.32575

 Mulliken charges:
               1
     1  C   -0.296788
     2  C   -0.302418
     3  C   -0.470237
     4  H    0.143683
     5  H    0.147579
     6  H    0.151012
     7  H    0.150373
     8  H    0.149300
     9  H    0.154478
    10  H    0.173089
    11  C   -0.297635
    12  C   -0.299047
    13  C   -0.475463
    14  H    0.149554
    15  H    0.150140
    16  H    0.149586
    17  H    0.150942
    18  H    0.155578
    19  H    0.155237
    20  H    0.159005
    21  C   -0.170494
    22  C   -0.218806
    23  C   -0.170506
    24  C    0.156630
    25  C   -0.171355
    26  C   -0.220079
    27  H    0.225649
    28  H    0.223462
    29  H    0.275627
    30  H    0.279754
    31  H    0.223853
    32  N    0.491398
    33  O   -0.462636
    34  O   -0.460465
 Sum of Mulliken charges =  -0.00000

 Dipole moment (field-independent basis, Debye):
    X=              1.3901    Y=              4.9368    Z=              0.2180  Tot=              5.1334
 Quadrupole moment (field-independent basis, Debye-Ang):
   XX=            -84.0206   YY=            -95.5765   ZZ=            -94.4831
   XY=             16.1834   XZ=              1.7266   YZ=             -0.8571

 Normal termination of Gaussian 16 at Thu May  6 04:16:41 2021.
