 Gaussian 16, Revision A.03,
 Gaussian 16:  EM64L-G16RevA.03 25-Dec-2016

 -------------
 #p 6-31g* mp2
 -------------

 ------------------------------------------------------
 Input file generated by CHIRIPA (05-May-2021 14:57:27)
 ------------------------------------------------------
 Symbolic Z-matrix:
 Charge =  0 Multiplicity = 1

                         Standard orientation:
 ---------------------------------------------------------------------
 Center     Atomic      Atomic             Coordinates (Angstroms)
 Number     Number       Type             X           Y           Z
 ---------------------------------------------------------------------
      1          6           0        2.694837    0.660856    2.025601
      2          6           0        3.963352    0.133018    2.287859
      3          6           0        4.806604   -0.243476    1.238228
      4          6           0        4.347170   -0.077634   -0.067416
      5          6           0        3.088740    0.445310   -0.360968
      6          6           0        2.262343    0.815046    0.704354
      7          1           0        2.046325    0.950701    2.847074
      8          1           0        4.301871    0.012142    3.312963
      9          1           0        5.793430   -0.654718    1.412796
     10          1           0        2.779090    0.553897   -1.393317
     11          1           0        1.277699    1.224699    0.497697
     12          7           0        5.230962   -0.472634   -1.186918
     13          8           0        4.802726   -0.316472   -2.328349
     14          8           0        6.335179   -0.930917   -0.901756
     15          6           0       -3.087920    2.253195   -0.441552
     16          6           0       -4.478985    2.142428   -0.537434
     17          6           0       -5.106730    0.905973   -0.359499
     18          6           0       -4.309168   -0.204086   -0.085724
     19          6           0       -2.921064   -0.125911    0.015987
     20          6           0       -2.314763    1.120669   -0.165634
     21          1           0       -2.608602    3.217636   -0.581208
     22          1           0       -5.081949    3.020271   -0.751612
     23          1           0       -6.181746    0.791822   -0.428274
     24          1           0       -2.346553   -1.018828    0.230591
     25          1           0       -1.234246    1.203714   -0.090598
     26          7           0       -4.962383   -1.518425    0.104598
     27          8           0       -4.237311   -2.481327    0.344864
     28          8           0       -6.187076   -1.560815    0.009905
 ---------------------------------------------------------------------

 SCF Done:  E(RHF) =  -868.336548665     A.U. after   16 cycles
 E2 =    -0.2599360563D+01 EUMP2 =    -0.87093590922763D+03

 The electronic state is 1-A.
 Alpha  occ. eigenvalues --  -20.61185 -20.61179 -20.61167 -20.61160 -15.86246
 Alpha  occ. eigenvalues --  -15.86228 -11.31727 -11.31709 -11.28367 -11.28367
 Alpha  occ. eigenvalues --  -11.28298 -11.28276 -11.28125 -11.28101 -11.27497
 Alpha  occ. eigenvalues --  -11.27492 -11.27318 -11.27288  -1.60259  -1.60240
 Alpha  occ. eigenvalues --   -1.39809  -1.39790  -1.19931  -1.19914  -1.09308
 Alpha  occ. eigenvalues --   -1.09286  -1.05373  -1.05345  -0.96114  -0.96094
 Alpha  occ. eigenvalues --   -0.86793  -0.86720  -0.82970  -0.82923  -0.78012
 Alpha  occ. eigenvalues --   -0.77931  -0.72461  -0.72443  -0.71584  -0.71565
 Alpha  occ. eigenvalues --   -0.71036  -0.71014  -0.65601  -0.65590  -0.65574
 Alpha  occ. eigenvalues --   -0.65224  -0.62831  -0.62586  -0.55886  -0.55822
 Alpha  occ. eigenvalues --   -0.53674  -0.53662  -0.53631  -0.53298  -0.49237
 Alpha  occ. eigenvalues --   -0.49208  -0.49206  -0.49189  -0.45188  -0.45170
 Alpha  occ. eigenvalues --   -0.37918  -0.37893  -0.36968  -0.36954
 Alpha virt. eigenvalues --    0.04584   0.04603   0.10672   0.10687   0.16027
 Alpha virt. eigenvalues --    0.16038   0.17732   0.21870   0.24292   0.27740
 Alpha virt. eigenvalues --    0.27779   0.28394   0.29507   0.31601   0.31799

 Mulliken charges:
               1
     1  C   -0.171401
     2  C   -0.218249
     3  C   -0.169374
     4  C    0.159137
     5  C   -0.171459
     6  C   -0.223453
     7  H    0.226987
     8  H    0.226035
     9  H    0.277917
    10  H    0.275695
    11  H    0.218541
    12  N    0.488148
    13  O   -0.459750
    14  O   -0.458483
    15  C   -0.171897
    16  C   -0.218392
    17  C   -0.169708
    18  C    0.159083
    19  C   -0.172186
    20  C   -0.222766
    21  H    0.226186
    22  H    0.225606
    23  H    0.277679
    24  H    0.277065
    25  H    0.219095
    26  N    0.488064
    27  O   -0.459337
    28  O   -0.458781
 Sum of Mulliken charges =  -0.00000

 Dipole moment (field-independent basis, Debye):
    X=             -0.8055    Y=              5.9521    Z=              3.3077  Tot=              6.8569
 Quadrupole moment (field-independent basis, Debye-Ang):
   XX=           -143.7441   YY=           -106.8983   ZZ=           -103.9546
   XY=            -17.7891   XZ=             23.9233   YZ=             -2.1766

 Normal termination of Gaussian 16 at Thu May  6 18:11:08 2021.
