 Gaussian 16, Revision A.03,
 Gaussian 16:  EM64L-G16RevA.03 25-Dec-2016

 -------------
 #p 6-31g* mp2
 -------------

 ------------------------------------------------------
 Input file generated by CHIRIPA (05-May-2021 14:57:21)
 ------------------------------------------------------
 Symbolic Z-matrix:
 Charge =  0 Multiplicity = 1

                         Standard orientation:
 ---------------------------------------------------------------------
 Center     Atomic      Atomic             Coordinates (Angstroms)
 Number     Number       Type             X           Y           Z
 ---------------------------------------------------------------------
      1          6           0       -6.344524    0.820001    0.372721
      2          6           0       -5.921492   -0.471544    0.703595
      3          6           0       -4.614974   -0.883889    0.425152
      4          6           0       -3.754035    0.025251   -0.187660
      5          6           0       -4.145743    1.318697   -0.529496
      6          6           0       -5.456865    1.709431   -0.241686
      7          1           0       -7.361247    1.131926    0.592660
      8          1           0       -6.608690   -1.164412    1.180813
      9          1           0       -4.261208   -1.877892    0.670559
     10          1           0       -3.437848    1.986989   -1.004563
     11          1           0       -5.782644    2.713076   -0.499774
     12          7           0       -2.368446   -0.399840   -0.487393
     13          8           0       -1.629258    0.420020   -1.027827
     14          8           0       -2.047845   -1.544838   -0.176215
     15          6           0        1.903306   -1.509066    0.349460
     16          6           0        2.676596   -1.570891   -0.814465
     17          6           0        3.830536   -0.792050   -0.942441
     18          6           0        4.183395    0.041365    0.117842
     19          6           0        3.433703    0.125060    1.290125
     20          6           0        2.283657   -0.662779    1.396194
     21          1           0        1.008410   -2.117583    0.440365
     22          1           0        2.383624   -2.227226   -1.628983
     23          1           0        4.447506   -0.820417   -1.832363
     24          1           0        3.751183    0.788839    2.085123
     25          1           0        1.685030   -0.612721    2.301282
     26          7           0        5.402959    0.870652   -0.006045
     27          8           0        5.692359    1.596861    0.942378
     28          8           0        6.046360    0.778735   -1.049224
 ---------------------------------------------------------------------

 SCF Done:  E(RHF) =  -868.340169651     A.U. after   16 cycles
 E2 =    -0.2598288222D+01 EUMP2 =    -0.87093845787276D+03

 The electronic state is 1-A.
 Alpha  occ. eigenvalues --  -20.61761 -20.61718 -20.59851 -20.59844 -15.86758
 Alpha  occ. eigenvalues --  -15.84898 -11.31870 -11.29989 -11.28421 -11.28385
 Alpha  occ. eigenvalues --  -11.28093 -11.27365 -11.27341 -11.26593 -11.26559
 Alpha  occ. eigenvalues --  -11.26045 -11.25468 -11.25408  -1.60802  -1.58933
 Alpha  occ. eigenvalues --   -1.40361  -1.38495  -1.20016  -1.18132  -1.09458
 Alpha  occ. eigenvalues --   -1.07528  -1.05378  -1.03522  -0.96336  -0.94416
 Alpha  occ. eigenvalues --   -0.86787  -0.84909  -0.83176  -0.81285  -0.78252
 Alpha  occ. eigenvalues --   -0.76409  -0.72992  -0.72105  -0.71124  -0.71116
 Alpha  occ. eigenvalues --   -0.70254  -0.69127  -0.65670  -0.65374  -0.63773
 Alpha  occ. eigenvalues --   -0.63523  -0.62726  -0.60904  -0.55885  -0.53872
 Alpha  occ. eigenvalues --   -0.53720  -0.53462  -0.51831  -0.51613  -0.49757
 Alpha  occ. eigenvalues --   -0.49710  -0.47892  -0.47853  -0.45819  -0.43964
 Alpha  occ. eigenvalues --   -0.37980  -0.36970  -0.35991  -0.35141
 Alpha virt. eigenvalues --    0.04254   0.06158   0.10689   0.12540   0.15802
 Alpha virt. eigenvalues --    0.17746   0.20868   0.22787   0.26795   0.27736
 Alpha virt. eigenvalues --    0.28470   0.29788   0.30477   0.31911   0.32475

 Mulliken charges:
               1
     1  C   -0.169829
     2  C   -0.218523
     3  C   -0.171042
     4  C    0.157403
     5  C   -0.170436
     6  C   -0.218556
     7  H    0.227962
     8  H    0.225023
     9  H    0.274357
    10  H    0.277414
    11  H    0.226024
    12  N    0.489127
    13  O   -0.455287
    14  O   -0.470898
    15  C   -0.164751
    16  C   -0.218105
    17  C   -0.171720
    18  C    0.156653
    19  C   -0.171865
    20  C   -0.220215
    21  H    0.242460
    22  H    0.222966
    23  H    0.271661
    24  H    0.270720
    25  H    0.219075
    26  N    0.488410
    27  O   -0.464426
    28  O   -0.463600
 Sum of Mulliken charges =  -0.00000

 Dipole moment (field-independent basis, Debye):
    X=             -9.7716    Y=             -1.4388    Z=              1.4155  Tot=              9.9779
 Quadrupole moment (field-independent basis, Debye-Ang):
   XX=           -105.8058   YY=           -100.8827   ZZ=           -101.2261
   XY=            -18.3316   XZ=             -3.2919   YZ=             -0.7391

 Normal termination of Gaussian 16 at Thu May  6 16:07:34 2021.
