 Gaussian 16, Revision A.03,
 Gaussian 16:  EM64L-G16RevA.03 25-Dec-2016

 -------------
 #p 6-31g* mp2
 -------------

 ------------------------------------------------------
 Input file generated by CHIRIPA (05-May-2021 14:57:21)
 ------------------------------------------------------
 Symbolic Z-matrix:
 Charge =  0 Multiplicity = 1

                         Standard orientation:
 ---------------------------------------------------------------------
 Center     Atomic      Atomic             Coordinates (Angstroms)
 Number     Number       Type             X           Y           Z
 ---------------------------------------------------------------------
      1          6           0       -2.448974   -1.959742    1.050535
      2          6           0       -1.837662   -0.873057    0.416552
      3          6           0       -2.610426    0.143771   -0.152170
      4          6           0       -3.998148    0.041437   -0.068229
      5          6           0       -4.636757   -1.028580    0.556698
      6          6           0       -3.844111   -2.033904    1.118465
      7          1           0       -1.840950   -2.745171    1.489630
      8          1           0       -0.754392   -0.812831    0.362293
      9          1           0       -2.163238    0.996230   -0.648914
     10          1           0       -5.718844   -1.060895    0.594938
     11          1           0       -4.321596   -2.876666    1.610202
     12          7           0       -4.826763    1.111818   -0.666628
     13          8           0       -6.047465    0.998258   -0.579295
     14          8           0       -4.239839    2.044075   -1.211654
     15          6           0        3.571701    2.452161    0.924875
     16          6           0        4.844346    1.998359    0.562992
     17          6           0        5.016779    0.716315    0.032732
     18          6           0        3.889607   -0.089043   -0.122747
     19          6           0        2.608709    0.334415    0.228359
     20          6           0        2.459905    1.620208    0.756699
     21          1           0        3.446929    3.449540    1.336048
     22          1           0        5.709582    2.642289    0.692481
     23          1           0        5.990610    0.339693   -0.255761
     24          1           0        1.765166   -0.330425    0.087506
     25          1           0        1.470356    1.969985    1.036868
     26          7           0        4.059647   -1.448269   -0.683093
     27          8           0        3.050594   -2.138422   -0.810132
     28          8           0        5.198758   -1.797741   -0.984644
 ---------------------------------------------------------------------

 SCF Done:  E(RHF) =  -868.337366007     A.U. after   16 cycles
 E2 =    -0.2599359047D+01 EUMP2 =    -0.87093672505396D+03

 The electronic state is 1-A.
 Alpha  occ. eigenvalues --  -20.61395 -20.61368 -20.60987 -20.60976 -15.86438
 Alpha  occ. eigenvalues --  -15.86041 -11.31819 -11.31420 -11.28497 -11.28316
 Alpha  occ. eigenvalues --  -11.28055 -11.28051 -11.27972 -11.27706 -11.27413
 Alpha  occ. eigenvalues --  -11.27319 -11.27096 -11.26955  -1.60455  -1.60060
 Alpha  occ. eigenvalues --   -1.40012  -1.39614  -1.19972  -1.19598  -1.09347
 Alpha  occ. eigenvalues --   -1.08976  -1.05392  -1.05022  -0.96194  -0.95809
 Alpha  occ. eigenvalues --   -0.86780  -0.86409  -0.83037  -0.82658  -0.78106
 Alpha  occ. eigenvalues --   -0.77708  -0.72657  -0.72258  -0.71775  -0.71383
 Alpha  occ. eigenvalues --   -0.71080  -0.70674  -0.65628  -0.65417  -0.65252
 Alpha  occ. eigenvalues --   -0.65025  -0.62812  -0.62324  -0.55848  -0.55466
 Alpha  occ. eigenvalues --   -0.53692  -0.53525  -0.53325  -0.53080  -0.49424
 Alpha  occ. eigenvalues --   -0.49401  -0.49019  -0.49011  -0.45415  -0.45017
 Alpha  occ. eigenvalues --   -0.37912  -0.37547  -0.36988  -0.36627
 Alpha virt. eigenvalues --    0.04459   0.04849   0.10675   0.11038   0.15973
 Alpha virt. eigenvalues --    0.16336   0.17946   0.22047   0.24366   0.27101
 Alpha virt. eigenvalues --    0.28148   0.29198   0.29937   0.31032   0.32012

 Mulliken charges:
               1
     1  C   -0.171614
     2  C   -0.221484
     3  C   -0.173659
     4  C    0.158911
     5  C   -0.170264
     6  C   -0.218556
     7  H    0.230867
     8  H    0.223485
     9  H    0.272878
    10  H    0.276570
    11  H    0.225329
    12  N    0.488237
    13  O   -0.459306
    14  O   -0.461544
    15  C   -0.170043
    16  C   -0.218187
    17  C   -0.169407
    18  C    0.160940
    19  C   -0.179516
    20  C   -0.220055
    21  H    0.229000
    22  H    0.226270
    23  H    0.277550
    24  H    0.274297
    25  H    0.222833
    26  N    0.487367
    27  O   -0.463930
    28  O   -0.456970
 Sum of Mulliken charges =  -0.00000

 Dipole moment (field-independent basis, Debye):
    X=              2.4328    Y=              1.0238    Z=              4.1368  Tot=              4.9071
 Quadrupole moment (field-independent basis, Debye-Ang):
   XX=           -123.0848   YY=           -105.3565   ZZ=           -106.7024
   XY=             38.0297   XZ=             -2.7813   YZ=             -1.2963

 Normal termination of Gaussian 16 at Thu May  6 16:09:18 2021.
