 Gaussian 16, Revision A.03,
 Gaussian 16:  EM64L-G16RevA.03 25-Dec-2016

 -------------
 #p 6-31g* mp2
 -------------

 ------------------------------------------------------
 Input file generated by CHIRIPA (05-May-2021 14:51:13)
 ------------------------------------------------------
 Symbolic Z-matrix:
 Charge =  0 Multiplicity = 1

                         Standard orientation:
 ---------------------------------------------------------------------
 Center     Atomic      Atomic             Coordinates (Angstroms)
 Number     Number       Type             X           Y           Z
 ---------------------------------------------------------------------
      1          6           0       -1.973815   -1.150224    0.451052
      2          6           0       -1.310962   -2.315512   -0.284281
      3          6           0       -0.159338   -2.935739    0.507473
      4          1           0       -1.217958   -0.382002    0.664265
      5          1           0       -2.344261   -1.502671    1.423650
      6          1           0       -0.943102   -1.961298   -1.255789
      7          1           0       -2.068524   -3.080964   -0.495937
      8          1           0       -0.514812   -3.315917    1.470647
      9          1           0        0.617004   -2.189889    0.706478
     10          1           0        0.300148   -3.766825   -0.036613
     11          6           0       -3.126915   -0.519749   -0.327786
     12          6           0       -3.789769    0.645539    0.407547
     13          6           0       -4.941393    1.265766   -0.384207
     14          1           0       -2.756469   -0.167302   -1.300384
     15          1           0       -3.882772   -1.287971   -0.540999
     16          1           0       -3.032207    1.410991    0.619203
     17          1           0       -4.157629    0.291325    1.379055
     18          1           0       -5.717735    0.519916   -0.583212
     19          1           0       -4.585919    1.645944   -1.347381
     20          1           0       -5.400878    2.096852    0.159879
     21          6           0        2.515794    1.520972    0.272525
     22          6           0        1.505625    2.464005   -0.381870
     23          6           0        1.447983    3.832403    0.297805
     24          1           0        2.256650    1.394785    1.332650
     25          1           0        3.510953    1.986176    0.247246
     26          1           0        0.512915    1.996563   -0.356603
     27          1           0        1.767092    2.587810   -1.440606
     28          1           0        2.426083    4.322807    0.260038
     29          1           0        1.164779    3.728201    1.350201
     30          1           0        0.719558    4.490590   -0.185980
     31          6           0        2.584936    0.149002   -0.395791
     32          6           0        3.595105   -0.794032    0.258604
     33          6           0        3.652747   -2.162430   -0.421070
     34          1           0        1.589778   -0.316203   -0.370512
     35          1           0        2.844080    0.275189   -1.455917
     36          1           0        3.333638   -0.917837    1.317340
     37          1           0        4.587816   -0.326589    0.233337
     38          1           0        3.935953   -2.058227   -1.473466
     39          1           0        2.674648   -2.652834   -0.383304
     40          1           0        4.381173   -2.820617    0.062714
 ---------------------------------------------------------------------

 SCF Done:  E(RHF) =  -470.732197508     A.U. after   11 cycles
 E2 =    -0.1584676549D+01 EUMP2 =    -0.47231687405659D+03

 The electronic state is 1-A.
 Alpha  occ. eigenvalues --  -11.21675 -11.21663 -11.21642 -11.21590 -11.21477
 Alpha  occ. eigenvalues --  -11.21434 -11.21407 -11.21371 -11.21129 -11.21112
 Alpha  occ. eigenvalues --  -11.21096 -11.20928  -1.08519  -1.08438  -1.03627
 Alpha  occ. eigenvalues --   -1.03509  -0.96070  -0.95960  -0.87092  -0.86977
 Alpha  occ. eigenvalues --   -0.79702  -0.79565  -0.78350  -0.78235  -0.65404
 Alpha  occ. eigenvalues --   -0.64875  -0.61275  -0.60702  -0.59432  -0.59347
 Alpha  occ. eigenvalues --   -0.57665  -0.57580  -0.55449  -0.55167  -0.52790
 Alpha  occ. eigenvalues --   -0.52667  -0.52471  -0.52350  -0.50071  -0.49859
 Alpha  occ. eigenvalues --   -0.48008  -0.47874  -0.46829  -0.46529  -0.46066
 Alpha  occ. eigenvalues --   -0.45800  -0.45779  -0.45354  -0.43836  -0.43793
 Alpha virt. eigenvalues --    0.19217   0.22454   0.23625   0.24661   0.25801
 Alpha virt. eigenvalues --    0.26806   0.26947   0.27436   0.28464   0.30119
 Alpha virt. eigenvalues --    0.30892   0.31384   0.31508   0.31761   0.32201

 Mulliken charges:
               1
     1  C   -0.301781
     2  C   -0.300554
     3  C   -0.483353
     4  H    0.151075
     5  H    0.150008
     6  H    0.153117
     7  H    0.152793
     8  H    0.155959
     9  H    0.161599
    10  H    0.161596
    11  C   -0.298282
    12  C   -0.299933
    13  C   -0.475757
    14  H    0.150002
    15  H    0.149962
    16  H    0.151939
    17  H    0.152016
    18  H    0.155257
    19  H    0.155399
    20  H    0.160435
    21  C   -0.297719
    22  C   -0.301410
    23  C   -0.475735
    24  H    0.149551
    25  H    0.150040
    26  H    0.152078
    27  H    0.152244
    28  H    0.155520
    29  H    0.155370
    30  H    0.160304
    31  C   -0.305629
    32  C   -0.300020
    33  C   -0.482763
    34  H    0.154646
    35  H    0.150061
    36  H    0.151578
    37  H    0.152341
    38  H    0.154151
    39  H    0.164174
    40  H    0.159723
 Sum of Mulliken charges =  -0.00000

 Dipole moment (field-independent basis, Debye):
    X=             -0.0375    Y=             -0.0197    Z=              0.0004  Tot=              0.0424
 Quadrupole moment (field-independent basis, Debye-Ang):
   XX=            -84.6547   YY=            -85.5211   ZZ=            -84.5441
   XY=              1.3896   XZ=             -1.0501   YZ=             -0.6669

 Normal termination of Gaussian 16 at Thu May  6 03:59:26 2021.
