 Gaussian 16, Revision A.03,
 Gaussian 16:  EM64L-G16RevA.03 25-Dec-2016

 -------------
 #p 6-31g* mp2
 -------------

 ------------------------------------------------------
 Input file generated by CHIRIPA (05-May-2021 14:51:11)
 ------------------------------------------------------
 Symbolic Z-matrix:
 Charge =  0 Multiplicity = 1

                         Standard orientation:
 ---------------------------------------------------------------------
 Center     Atomic      Atomic             Coordinates (Angstroms)
 Number     Number       Type             X           Y           Z
 ---------------------------------------------------------------------
      1          6           0        4.319858   -0.337455    0.195268
      2          6           0        5.297512   -1.254272   -0.540684
      3          6           0        5.995927   -2.244187    0.392096
      4          1           0        4.860889    0.212645    0.977329
      5          1           0        3.567580   -0.952005    0.708883
      6          1           0        6.046910   -0.638128   -1.053895
      7          1           0        4.754128   -1.802112   -1.321211
      8          1           0        5.262556   -2.883211    0.894506
      9          1           0        6.562683   -1.712614    1.163341
     10          1           0        6.690235   -2.889729   -0.154779
     11          6           0        3.613816    0.657788   -0.723821
     12          6           0        2.636162    1.574605    0.012131
     13          6           0        1.937747    2.564521   -0.920649
     14          1           0        4.366094    1.272338   -1.237436
     15          1           0        3.072785    0.107688   -1.505883
     16          1           0        3.179546    2.122445    0.792657
     17          1           0        1.886764    0.958461    0.525341
     18          1           0        1.370991    2.032948   -1.691894
     19          1           0        2.671118    3.203545   -1.423059
     20          1           0        1.243439    3.210063   -0.373774
     21          6           0       -4.386460   -0.640130   -0.156419
     22          6           0       -5.865877   -0.258516   -0.217083
     23          6           0       -6.692324   -1.228190   -1.062371
     24          1           0       -3.981454   -0.676036   -1.177019
     25          1           0       -4.293408   -1.655689    0.252695
     26          1           0       -5.956026    0.756552   -0.624671
     27          1           0       -6.267360   -0.223327    0.803793
     28          1           0       -6.632114   -2.242429   -0.654581
     29          1           0       -6.319011   -1.256983   -2.091161
     30          1           0       -7.746800   -0.936548   -1.092139
     31          6           0       -3.547214    0.319796    0.684972
     32          6           0       -2.067797   -0.061817    0.745637
     33          6           0       -1.241350    0.907856    1.590925
     34          1           0       -3.640266    1.335356    0.275858
     35          1           0       -3.952220    0.355702    1.705573
     36          1           0       -1.666314   -0.097006   -0.275240
     37          1           0       -1.977648   -1.076885    1.153225
     38          1           0       -1.614664    0.936651    2.619714
     39          1           0       -1.301561    1.922096    1.183134
     40          1           0       -0.186874    0.616214    1.620692
 ---------------------------------------------------------------------

 SCF Done:  E(RHF) =  -470.733239717     A.U. after   11 cycles
 E2 =    -0.1582602455D+01 EUMP2 =    -0.47231584217165D+03

 The electronic state is 1-A.
 Alpha  occ. eigenvalues --  -11.21625 -11.21610 -11.21596 -11.21560 -11.21418
 Alpha  occ. eigenvalues --  -11.21395 -11.21359 -11.21334 -11.21079 -11.21071
 Alpha  occ. eigenvalues --  -11.21067 -11.21053  -1.08446  -1.08416  -1.03560
 Alpha  occ. eigenvalues --   -1.03499  -0.96012  -0.95946  -0.87011  -0.86981
 Alpha  occ. eigenvalues --   -0.79638  -0.79551  -0.78258  -0.78231  -0.65094
 Alpha  occ. eigenvalues --   -0.65038  -0.61017  -0.60874  -0.59460  -0.59237
 Alpha  occ. eigenvalues --   -0.57657  -0.57523  -0.55324  -0.55199  -0.52730
 Alpha  occ. eigenvalues --   -0.52633  -0.52449  -0.52366  -0.49926  -0.49905
 Alpha  occ. eigenvalues --   -0.48017  -0.47817  -0.46648  -0.46586  -0.45804
 Alpha  occ. eigenvalues --   -0.45769  -0.45723  -0.45691  -0.43800  -0.43725
 Alpha virt. eigenvalues --    0.21216   0.23115   0.23521   0.25172   0.26108
 Alpha virt. eigenvalues --    0.26577   0.26968   0.27306   0.27746   0.29079
 Alpha virt. eigenvalues --    0.30062   0.30934   0.31454   0.31899   0.32400

 Mulliken charges:
               1
     1  C   -0.298256
     2  C   -0.299628
     3  C   -0.475716
     4  H    0.149721
     5  H    0.149084
     6  H    0.151957
     7  H    0.151941
     8  H    0.155168
     9  H    0.155184
    10  H    0.160238
    11  C   -0.297712
    12  C   -0.306220
    13  C   -0.475524
    14  H    0.149441
    15  H    0.149414
    16  H    0.151907
    17  H    0.158277
    18  H    0.154528
    19  H    0.154975
    20  H    0.160956
    21  C   -0.298278
    22  C   -0.299677
    23  C   -0.475714
    24  H    0.149612
    25  H    0.149467
    26  H    0.152014
    27  H    0.151967
    28  H    0.155163
    29  H    0.155182
    30  H    0.160303
    31  C   -0.298436
    32  C   -0.299691
    33  C   -0.481240
    34  H    0.149752
    35  H    0.149754
    36  H    0.151867
    37  H    0.151645
    38  H    0.155207
    39  H    0.155967
    40  H    0.165400
 Sum of Mulliken charges =  -0.00000

 Dipole moment (field-independent basis, Debye):
    X=             -0.0101    Y=              0.0065    Z=              0.0091  Tot=              0.0151
 Quadrupole moment (field-independent basis, Debye-Ang):
   XX=            -85.0981   YY=            -84.9780   ZZ=            -84.7083
   XY=              0.6258   XZ=             -0.7587   YZ=             -0.2935

 Normal termination of Gaussian 16 at Wed May  5 18:15:47 2021.
