 Gaussian 16, Revision A.03,
 Gaussian 16:  EM64L-G16RevA.03 25-Dec-2016

 -------------
 #p 6-31g* mp2
 -------------

 ------------------------------------------------------
 Input file generated by CHIRIPA (05-May-2021 14:55:20)
 ------------------------------------------------------
 Symbolic Z-matrix:
 Charge =  0 Multiplicity = 1

                         Standard orientation:
 ---------------------------------------------------------------------
 Center     Atomic      Atomic             Coordinates (Angstroms)
 Number     Number       Type             X           Y           Z
 ---------------------------------------------------------------------
      1          6           0        4.854137   -0.632985   -0.923619
      2          6           0        3.661254   -1.050712   -1.522831
      3          6           0        2.429738   -0.773064   -0.922141
      4          6           0        2.428010   -0.072475    0.283040
      5          6           0        3.599451    0.357076    0.904734
      6          6           0        4.819489    0.068339    0.286118
      7          1           0        5.806350   -0.852976   -1.397212
      8          1           0        3.685128   -1.595540   -2.462319
      9          1           0        1.491196   -1.084666   -1.364251
     10          1           0        3.543693    0.898393    1.841369
     11          1           0        5.744320    0.393987    0.753757
     12          7           0        1.130335    0.227329    0.928453
     13          8           0        1.155794    0.846065    1.990128
     14          8           0        0.112330   -0.162098    0.360430
     15          6           0       -3.614769   -0.389064    0.255486
     16          6           0       -3.857505   -1.736493   -0.425320
     17          6           0       -4.323523   -2.816776    0.551210
     18          1           0       -2.865562   -0.516020    1.048907
     19          1           0       -4.540839   -0.063503    0.749246
     20          1           0       -2.931640   -2.058753   -0.918817
     21          1           0       -4.606079   -1.606275   -1.217339
     22          1           0       -5.259996   -2.520767    1.034943
     23          1           0       -3.576043   -2.975817    1.335160
     24          1           0       -4.491051   -3.771737    0.043426
     25          6           0       -3.148451    0.701090   -0.707758
     26          6           0       -2.905715    2.048521   -0.026952
     27          6           0       -2.439696    3.128804   -1.003481
     28          1           0       -2.222380    0.375531   -1.201518
     29          1           0       -3.897658    0.828047   -1.501179
     30          1           0       -2.157140    1.918303    0.765067
     31          1           0       -3.831580    2.370781    0.466545
     32          1           0       -3.187177    3.287845   -1.787432
     33          1           0       -1.503224    2.832795   -1.487215
     34          1           0       -2.272169    4.083765   -0.495698
 ---------------------------------------------------------------------

 SCF Done:  E(RHF) =  -669.536703035     A.U. after   15 cycles
 E2 =    -0.2092267382D+01 EUMP2 =    -0.67162897041630D+03

 The electronic state is 1-A.
 Alpha  occ. eigenvalues --  -20.61173 -20.61164 -15.86176 -11.31421 -11.27974
 Alpha  occ. eigenvalues --  -11.27967 -11.27694 -11.26960 -11.26951 -11.20448
 Alpha  occ. eigenvalues --  -11.20124 -11.20014 -11.19914 -11.19826 -11.19765
 Alpha  occ. eigenvalues --   -1.60213  -1.39773  -1.19579  -1.09000  -1.06965
 Alpha  occ. eigenvalues --   -1.04963  -1.02247  -0.95855  -0.94715  -0.86368
 Alpha  occ. eigenvalues --   -0.85749  -0.82693  -0.78311  -0.77757  -0.76767
 Alpha  occ. eigenvalues --   -0.72420  -0.71518  -0.70688  -0.65247  -0.64968
 Alpha  occ. eigenvalues --   -0.63516  -0.62311  -0.59633  -0.58108  -0.56341
 Alpha  occ. eigenvalues --   -0.55470  -0.53989  -0.53298  -0.53053  -0.51490
 Alpha  occ. eigenvalues --   -0.51170  -0.49175  -0.49156  -0.48648  -0.46655
 Alpha  occ. eigenvalues --   -0.45306  -0.45207  -0.44317  -0.44114  -0.42444
 Alpha  occ. eigenvalues --   -0.37552  -0.36560
 Alpha virt. eigenvalues --    0.04746   0.11097   0.16246   0.21151   0.24243
 Alpha virt. eigenvalues --    0.25506   0.26989   0.27541   0.28505   0.28977
 Alpha virt. eigenvalues --    0.29287   0.30974   0.32414   0.32566   0.32961

 Mulliken charges:
               1
     1  C   -0.170286
     2  C   -0.218505
     3  C   -0.170505
     4  C    0.157577
     5  C   -0.170331
     6  C   -0.218585
     7  H    0.226535
     8  H    0.224395
     9  H    0.275506
    10  H    0.276153
    11  H    0.224301
    12  N    0.492963
    13  O   -0.458067
    14  O   -0.464356
    15  C   -0.301102
    16  C   -0.298101
    17  C   -0.475165
    18  H    0.168097
    19  H    0.141945
    20  H    0.150557
    21  H    0.146154
    22  H    0.152927
    23  H    0.156629
    24  H    0.154531
    25  C   -0.294316
    26  C   -0.303601
    27  C   -0.474497
    28  H    0.157375
    29  H    0.138724
    30  H    0.171094
    31  H    0.144502
    32  H    0.149392
    33  H    0.151775
    34  H    0.156285
 Sum of Mulliken charges =  -0.00000

 Dipole moment (field-independent basis, Debye):
    X=              5.0533    Y=             -1.1012    Z=             -2.0883  Tot=              5.5776
 Quadrupole moment (field-independent basis, Debye-Ang):
   XX=            -72.4719   YY=            -95.8708   ZZ=            -94.0057
   XY=             -2.2296   XZ=             -2.4717   YZ=              2.6984

 Normal termination of Gaussian 16 at Thu May  6 15:48:17 2021.
