 Gaussian 16, Revision A.03,
 Gaussian 16:  EM64L-G16RevA.03 25-Dec-2016

 -------------
 #p 6-31g* mp2
 -------------

 ------------------------------------------------------
 Input file generated by CHIRIPA (05-May-2021 14:57:26)
 ------------------------------------------------------
 Symbolic Z-matrix:
 Charge =  0 Multiplicity = 1

                         Standard orientation:
 ---------------------------------------------------------------------
 Center     Atomic      Atomic             Coordinates (Angstroms)
 Number     Number       Type             X           Y           Z
 ---------------------------------------------------------------------
      1          6           0       -1.211979   -1.978270   -0.060831
      2          6           0       -1.345084   -1.140626    1.051444
      3          6           0       -2.398676   -0.224910    1.128628
      4          6           0       -3.305081   -0.173307    0.070773
      5          6           0       -3.199354   -0.994505   -1.050719
      6          6           0       -2.137906   -1.902670   -1.106519
      7          1           0       -0.390472   -2.686688   -0.112483
      8          1           0       -0.627488   -1.197144    1.865020
      9          1           0       -2.525447    0.435362    1.977973
     10          1           0       -3.930399   -0.915048   -1.846130
     11          1           0       -2.037022   -2.551959   -1.971557
     12          7           0       -4.424630    0.792124    0.141165
     13          8           0       -5.209911    0.818070   -0.803979
     14          8           0       -4.495651    1.504601    1.140148
     15          6           0        2.390881    2.726509   -0.378277
     16          6           0        3.749713    2.419831   -0.251608
     17          6           0        4.165479    1.096846   -0.074419
     18          6           0        3.191109    0.100970   -0.028322
     19          6           0        1.829783    0.374690   -0.151447
     20          6           0        1.436935    1.704761   -0.327881
     21          1           0        2.076805    3.756988   -0.515628
     22          1           0        4.492773    3.211288   -0.290366
     23          1           0        5.210835    0.831339    0.026358
     24          1           0        1.112386   -0.435828   -0.108802
     25          1           0        0.380955    1.939987   -0.425968
     26          7           0        3.619131   -1.303367    0.158860
     27          8           0        2.741021   -2.162536    0.196088
     28          8           0        4.824622   -1.518324    0.264802
 ---------------------------------------------------------------------

 SCF Done:  E(RHF) =  -868.339245235     A.U. after   16 cycles
 E2 =    -0.2601792078D+01 EUMP2 =    -0.87094103731332D+03

 The electronic state is 1-A.
 Alpha  occ. eigenvalues --  -20.61575 -20.61510 -20.61198 -20.61189 -15.86579
 Alpha  occ. eigenvalues --  -15.86249 -11.31646 -11.31642 -11.28213 -11.28186
 Alpha  occ. eigenvalues --  -11.28165 -11.28091 -11.27859 -11.27709 -11.27144
 Alpha  occ. eigenvalues --  -11.27137 -11.27106 -11.27097  -1.60604  -1.60275
 Alpha  occ. eigenvalues --   -1.40175  -1.39826  -1.19826  -1.19777  -1.09244
 Alpha  occ. eigenvalues --   -1.09165  -1.05232  -1.05111  -0.96147  -0.95967
 Alpha  occ. eigenvalues --   -0.86656  -0.86478  -0.82980  -0.82797  -0.78088
 Alpha  occ. eigenvalues --   -0.77868  -0.72824  -0.72456  -0.71914  -0.71608
 Alpha  occ. eigenvalues --   -0.70958  -0.70705  -0.65454  -0.65443  -0.65246
 Alpha  occ. eigenvalues --   -0.64999  -0.62627  -0.62404  -0.55684  -0.55506
 Alpha  occ. eigenvalues --   -0.53665  -0.53509  -0.53220  -0.53062  -0.49582
 Alpha  occ. eigenvalues --   -0.49514  -0.49218  -0.49214  -0.45641  -0.45225
 Alpha  occ. eigenvalues --   -0.37770  -0.37728  -0.36976  -0.36599
 Alpha virt. eigenvalues --    0.04371   0.04649   0.10539   0.11072   0.15890
 Alpha virt. eigenvalues --    0.16170   0.20851   0.21679   0.26817   0.27282
 Alpha virt. eigenvalues --    0.27653   0.28771   0.30754   0.31143   0.31957

 Mulliken charges:
               1
     1  C   -0.187844
     2  C   -0.230881
     3  C   -0.175059
     4  C    0.156506
     5  C   -0.171671
     6  C   -0.219158
     7  H    0.251405
     8  H    0.232739
     9  H    0.276332
    10  H    0.276922
    11  H    0.228191
    12  N    0.487816
    13  O   -0.458971
    14  O   -0.460597
    15  C   -0.169760
    16  C   -0.219172
    17  C   -0.169696
    18  C    0.156867
    19  C   -0.179275
    20  C   -0.226010
    21  H    0.228913
    22  H    0.225232
    23  H    0.276038
    24  H    0.282612
    25  H    0.228283
    26  N    0.489916
    27  O   -0.474255
    28  O   -0.455423
 Sum of Mulliken charges =  -0.00000

 Dipole moment (field-independent basis, Debye):
    X=              2.4293    Y=              1.5205    Z=             -0.9538  Tot=              3.0205
 Quadrupole moment (field-independent basis, Debye-Ang):
   XX=           -135.7197   YY=           -102.1759   ZZ=           -101.7418
   XY=             29.1065   XZ=              0.9374   YZ=              1.2543

 Normal termination of Gaussian 16 at Fri May  7 05:03:43 2021.
