 Gaussian 16, Revision A.03,
 Gaussian 16:  EM64L-G16RevA.03 25-Dec-2016

 -------------
 #p 6-31g* mp2
 -------------

 ------------------------------------------------------
 Input file generated by CHIRIPA (05-May-2021 14:57:25)
 ------------------------------------------------------
 Symbolic Z-matrix:
 Charge =  0 Multiplicity = 1

                         Standard orientation:
 ---------------------------------------------------------------------
 Center     Atomic      Atomic             Coordinates (Angstroms)
 Number     Number       Type             X           Y           Z
 ---------------------------------------------------------------------
      1          6           0        1.075252    0.720619   -0.662077
      2          6           0        2.086253    0.948824   -1.601395
      3          6           0        3.397764    0.536655   -1.347223
      4          6           0        3.664084   -0.103735   -0.137982
      5          6           0        2.678558   -0.345504    0.817830
      6          6           0        1.374104    0.075321    0.542414
      7          1           0        0.059179    1.044164   -0.867775
      8          1           0        1.857068    1.449736   -2.537668
      9          1           0        4.199648    0.700615   -2.056813
     10          1           0        2.937655   -0.847309    1.742209
     11          1           0        0.590959   -0.103237    1.273746
     12          7           0        5.048787   -0.544662    0.142344
     13          8           0        5.257551   -1.106760    1.215237
     14          8           0        5.899132   -0.319814   -0.716139
     15          6           0       -2.146593    1.916128    1.256672
     16          6           0       -2.916709    2.156077    0.113926
     17          6           0       -3.635164    1.119151   -0.488699
     18          6           0       -3.560511   -0.151176    0.080499
     19          6           0       -2.802149   -0.421846    1.218442
     20          6           0       -2.091866    0.630199    1.804317
     21          1           0       -1.591654    2.727509    1.718300
     22          1           0       -2.961071    3.153739   -0.313561
     23          1           0       -4.239236    1.277026   -1.373905
     24          1           0       -2.777543   -1.426963    1.621617
     25          1           0       -1.494610    0.440929    2.691733
     26          7           0       -4.316781   -1.256925   -0.548607
     27          8           0       -4.234449   -2.367138   -0.027754
     28          8           0       -4.977556   -0.992462   -1.550641
 ---------------------------------------------------------------------

 SCF Done:  E(RHF) =  -868.336985080     A.U. after   16 cycles
 E2 =    -0.2602183782D+01 EUMP2 =    -0.87093916886177D+03

 The electronic state is 1-A.
 Alpha  occ. eigenvalues --  -20.61699 -20.61692 -20.60953 -20.60947 -15.86765
 Alpha  occ. eigenvalues --  -15.86008 -11.32407 -11.31395 -11.29039 -11.29026
 Alpha  occ. eigenvalues --  -11.28817 -11.28101 -11.28061 -11.27991 -11.27968
 Alpha  occ. eigenvalues --  -11.27639 -11.26967 -11.26944  -1.60770  -1.60028
 Alpha  occ. eigenvalues --   -1.40315  -1.39581  -1.20652  -1.19570  -1.09981
 Alpha  occ. eigenvalues --   -1.08946  -1.06090  -1.04986  -0.96745  -0.95779
 Alpha  occ. eigenvalues --   -0.87460  -0.86373  -0.83573  -0.82622  -0.78575
 Alpha  occ. eigenvalues --   -0.77679  -0.72972  -0.72225  -0.72103  -0.71677
 Alpha  occ. eigenvalues --   -0.71353  -0.70658  -0.66270  -0.66111  -0.65217
 Alpha  occ. eigenvalues --   -0.65006  -0.63392  -0.62341  -0.56518  -0.55537
 Alpha  occ. eigenvalues --   -0.54334  -0.54141  -0.53310  -0.53021  -0.49754
 Alpha  occ. eigenvalues --   -0.49712  -0.48987  -0.48979  -0.45658  -0.44982
 Alpha  occ. eigenvalues --   -0.38663  -0.37703  -0.37501  -0.36601
 Alpha virt. eigenvalues --    0.03942   0.04883   0.09801   0.11069   0.15283
 Alpha virt. eigenvalues --    0.16363   0.19649   0.21708   0.25165   0.27244
 Alpha virt. eigenvalues --    0.27920   0.28037   0.29513   0.31108   0.31830

 Mulliken charges:
               1
     1  C   -0.177259
     2  C   -0.219263
     3  C   -0.170451
     4  C    0.158684
     5  C   -0.171603
     6  C   -0.221586
     7  H    0.230335
     8  H    0.223372
     9  H    0.276143
    10  H    0.274461
    11  H    0.219001
    12  N    0.488072
    13  O   -0.460684
    14  O   -0.459750
    15  C   -0.173653
    16  C   -0.224927
    17  C   -0.170833
    18  C    0.158992
    19  C   -0.169896
    20  C   -0.229514
    21  H    0.232126
    22  H    0.228167
    23  H    0.279906
    24  H    0.280337
    25  H    0.225693
    26  N    0.488130
    27  O   -0.456571
    28  O   -0.457427
 Sum of Mulliken charges =  -0.00000

 Dipole moment (field-independent basis, Debye):
    X=             -2.5771    Y=              5.4533    Z=              1.1788  Tot=              6.1457
 Quadrupole moment (field-independent basis, Debye-Ang):
   XX=           -158.7765   YY=           -104.4436   ZZ=            -98.2504
   XY=             -8.7857   XZ=            -10.8935   YZ=             -4.4691

 Normal termination of Gaussian 16 at Fri May  7 09:35:26 2021.
