 Gaussian 16, Revision A.03,
 Gaussian 16:  EM64L-G16RevA.03 25-Dec-2016

 -------------
 #p 6-31g* mp2
 -------------

 ------------------------------------------------------
 Input file generated by CHIRIPA (05-May-2021 14:51:12)
 ------------------------------------------------------
 Symbolic Z-matrix:
 Charge =  0 Multiplicity = 1

                         Standard orientation:
 ---------------------------------------------------------------------
 Center     Atomic      Atomic             Coordinates (Angstroms)
 Number     Number       Type             X           Y           Z
 ---------------------------------------------------------------------
      1          6           0        2.308890   -0.492770    0.670151
      2          6           0        1.281793   -1.622830    0.592554
      3          6           0        0.073848   -1.387109    1.499803
      4          1           0        2.645537   -0.382602    1.710092
      5          1           0        1.823148    0.454209    0.396872
      6          1           0        1.769667   -2.567609    0.864559
      7          1           0        0.947695   -1.730447   -0.447356
      8          1           0       -0.438613   -0.459297    1.225667
      9          1           0        0.388029   -1.301217    2.545036
     10          1           0       -0.647700   -2.206972    1.428711
     11          6           0        3.522263   -0.713989   -0.231246
     12          6           0        4.549360    0.416071   -0.153649
     13          6           0        5.757305    0.180350   -1.060898
     14          1           0        4.008005   -1.660968    0.042033
     15          1           0        3.185617   -0.824156   -1.271187
     16          1           0        4.883459    0.523688    0.886261
     17          1           0        4.061487    1.360851   -0.425654
     18          1           0        5.443124    0.094458   -2.106132
     19          1           0        6.269766   -0.747461   -0.786763
     20          1           0        6.478853    1.000213   -0.989806
     21          6           0       -2.748570    1.208075    0.216305
     22          6           0       -1.680581    2.117540   -0.392182
     23          6           0       -1.357298    3.322864    0.491265
     24          1           0       -3.662492    1.792236    0.390798
     25          1           0       -2.406752    0.860826    1.201177
     26          1           0       -2.023712    2.461860   -1.376215
     27          1           0       -0.769159    1.531100   -0.565423
     28          1           0       -0.990526    2.996049    1.469668
     29          1           0       -2.252208    3.932098    0.654270
     30          1           0       -0.591534    3.959521    0.037245
     31          6           0       -3.082583   -0.001316   -0.655210
     32          6           0       -4.150572   -0.910781   -0.046723
     33          6           0       -4.473856   -2.116106   -0.930169
     34          1           0       -3.424402    0.345932   -1.640082
     35          1           0       -2.168662   -0.585478   -0.829702
     36          1           0       -5.061995   -0.324342    0.126519
     37          1           0       -3.807441   -1.255101    0.937310
     38          1           0       -3.578946   -2.725339   -1.093174
     39          1           0       -4.840627   -1.789291   -1.908572
     40          1           0       -5.239619   -2.752763   -0.476149
 ---------------------------------------------------------------------

 SCF Done:  E(RHF) =  -470.732838104     A.U. after   11 cycles
 E2 =    -0.1584307261D+01 EUMP2 =    -0.47231714536591D+03

 The electronic state is 1-A.
 Alpha  occ. eigenvalues --  -11.21674 -11.21655 -11.21625 -11.21572 -11.21455
 Alpha  occ. eigenvalues --  -11.21391 -11.21389 -11.21327 -11.21115 -11.21105
 Alpha  occ. eigenvalues --  -11.21087 -11.21057  -1.08503  -1.08418  -1.03584
 Alpha  occ. eigenvalues --   -1.03536  -0.96066  -0.95951  -0.87054  -0.86999
 Alpha  occ. eigenvalues --   -0.79648  -0.79600  -0.78291  -0.78249  -0.65401
 Alpha  occ. eigenvalues --   -0.64875  -0.61073  -0.60840  -0.59386  -0.59350
 Alpha  occ. eigenvalues --   -0.57644  -0.57589  -0.55578  -0.55019  -0.52726
 Alpha  occ. eigenvalues --   -0.52676  -0.52475  -0.52383  -0.50029  -0.49863
 Alpha  occ. eigenvalues --   -0.48019  -0.47864  -0.46688  -0.46640  -0.45930
 Alpha  occ. eigenvalues --   -0.45785  -0.45707  -0.45571  -0.43831  -0.43787
 Alpha virt. eigenvalues --    0.19363   0.22813   0.23458   0.24527   0.26166
 Alpha virt. eigenvalues --    0.26286   0.27164   0.27795   0.28249   0.29902
 Alpha virt. eigenvalues --    0.30299   0.31435   0.31639   0.31777   0.31921

 Mulliken charges:
               1
     1  C   -0.301113
     2  C   -0.300224
     3  C   -0.484734
     4  H    0.150014
     5  H    0.151480
     6  H    0.152475
     7  H    0.151919
     8  H    0.164863
     9  H    0.155352
    10  H    0.160275
    11  C   -0.298252
    12  C   -0.299745
    13  C   -0.475755
    14  H    0.149713
    15  H    0.149792
    16  H    0.152013
    17  H    0.152124
    18  H    0.155269
    19  H    0.155206
    20  H    0.160377
    21  C   -0.302982
    22  C   -0.303795
    23  C   -0.475719
    24  H    0.151112
    25  H    0.152196
    26  H    0.152674
    27  H    0.153089
    28  H    0.155626
    29  H    0.155653
    30  H    0.160144
    31  C   -0.300142
    32  C   -0.300258
    33  C   -0.475822
    34  H    0.149327
    35  H    0.152530
    36  H    0.151777
    37  H    0.153259
    38  H    0.155027
    39  H    0.155051
    40  H    0.160203
 Sum of Mulliken charges =  -0.00000

 Dipole moment (field-independent basis, Debye):
    X=              0.0055    Y=              0.0074    Z=              0.0130  Tot=              0.0160
 Quadrupole moment (field-independent basis, Debye-Ang):
   XX=            -84.9638   YY=            -85.1194   ZZ=            -84.6184
   XY=             -0.9462   XZ=              1.0677   YZ=             -1.1250

 Normal termination of Gaussian 16 at Thu May  6 02:18:32 2021.
