 Gaussian 16, Revision A.03,
 Gaussian 16:  EM64L-G16RevA.03 25-Dec-2016

 -------------
 #p 6-31g* mp2
 -------------

 ------------------------------------------------------
 Input file generated by CHIRIPA (05-May-2021 14:55:21)
 ------------------------------------------------------
 Symbolic Z-matrix:
 Charge =  0 Multiplicity = 1

                         Standard orientation:
 ---------------------------------------------------------------------
 Center     Atomic      Atomic             Coordinates (Angstroms)
 Number     Number       Type             X           Y           Z
 ---------------------------------------------------------------------
      1          6           0        0.807325    0.174737    1.742763
      2          6           0        0.635298   -0.561983    0.566255
      3          6           0        1.716217   -0.797217   -0.288629
      4          6           0        2.960800   -0.278653    0.065481
      5          6           0        3.164057    0.459151    1.230652
      6          6           0        2.068931    0.682059    2.070628
      7          1           0       -0.037877    0.352685    2.401067
      8          1           0       -0.343337   -0.957187    0.309091
      9          1           0        1.611153   -1.364215   -1.205631
     10          1           0        4.151680    0.840336    1.460253
     11          1           0        2.205477    1.254556    2.983671
     12          7           0        4.112640   -0.521160   -0.831655
     13          8           0        5.198928   -0.053519   -0.497098
     14          8           0        3.907355   -1.174286   -1.852400
     15          6           0       -3.584520   -0.378359    0.065044
     16          6           0       -4.831110   -1.176479   -0.318365
     17          6           0       -4.892240   -2.542342    0.366088
     18          1           0       -2.689855   -0.960628   -0.194733
     19          1           0       -3.564487   -0.244319    1.155469
     20          1           0       -4.849507   -1.307784   -1.407877
     21          1           0       -5.722910   -0.592162   -0.057821
     22          1           0       -4.898720   -2.427699    1.454857
     23          1           0       -4.020355   -3.147387    0.097130
     24          1           0       -5.791312   -3.095937    0.077887
     25          6           0       -3.509144    0.989393   -0.611195
     26          6           0       -2.262554    1.787512   -0.227787
     27          6           0       -2.201424    3.153375   -0.912240
     28          1           0       -3.529178    0.855352   -1.701621
     29          1           0       -4.403808    1.571661   -0.351419
     30          1           0       -1.370755    1.203194   -0.488330
     31          1           0       -2.244158    1.918817    0.861726
     32          1           0       -3.073310    3.758420   -0.643281
     33          1           0       -2.194943    3.038730   -2.001008
     34          1           0       -1.302352    3.706970   -0.624039
 ---------------------------------------------------------------------

 SCF Done:  E(RHF) =  -669.534549380     A.U. after   15 cycles
 E2 =    -0.2093196294D+01 EUMP2 =    -0.67162774567364D+03

 The electronic state is 1-A.
 Alpha  occ. eigenvalues --  -20.60745 -20.60740 -15.85798 -11.31158 -11.27729
 Alpha  occ. eigenvalues --  -11.27720 -11.27445 -11.26737 -11.26679 -11.22488
 Alpha  occ. eigenvalues --  -11.22386 -11.22341 -11.22176 -11.21792 -11.21635
 Alpha  occ. eigenvalues --   -1.59820  -1.39374  -1.19333  -1.09308  -1.08719
 Alpha  occ. eigenvalues --   -1.04742  -1.04280  -0.96735  -0.95557  -0.87744
 Alpha  occ. eigenvalues --   -0.86142  -0.82396  -0.80370  -0.79183  -0.77435
 Alpha  occ. eigenvalues --   -0.72016  -0.71144  -0.70423  -0.66003  -0.64979
 Alpha  occ. eigenvalues --   -0.64702  -0.62099  -0.61670  -0.60102  -0.58360
 Alpha  occ. eigenvalues --   -0.56029  -0.55220  -0.53410  -0.53205  -0.53037
 Alpha  occ. eigenvalues --   -0.52823  -0.50673  -0.48784  -0.48773  -0.48674
 Alpha  occ. eigenvalues --   -0.47410  -0.46636  -0.46566  -0.44781  -0.44574
 Alpha  occ. eigenvalues --   -0.37262  -0.36305
 Alpha virt. eigenvalues --    0.05081   0.11217   0.16509   0.19704   0.22721
 Alpha virt. eigenvalues --    0.23438   0.24512   0.25480   0.27206   0.28366
 Alpha virt. eigenvalues --    0.29682   0.30692   0.30956   0.31480   0.31668

 Mulliken charges:
               1
     1  C   -0.171244
     2  C   -0.223545
     3  C   -0.175289
     4  C    0.158947
     5  C   -0.170930
     6  C   -0.219033
     7  H    0.226966
     8  H    0.234569
     9  H    0.275576
    10  H    0.275459
    11  H    0.223241
    12  N    0.488088
    13  O   -0.460586
    14  O   -0.460589
    15  C   -0.303493
    16  C   -0.299366
    17  C   -0.476392
    18  H    0.143023
    19  H    0.147121
    20  H    0.154995
    21  H    0.155236
    22  H    0.155045
    23  H    0.154104
    24  H    0.164035
    25  C   -0.298269
    26  C   -0.306327
    27  C   -0.475625
    28  H    0.152822
    29  H    0.152718
    30  H    0.157001
    31  H    0.145036
    32  H    0.156001
    33  H    0.158062
    34  H    0.162644
 Sum of Mulliken charges =  -0.00000

 Dipole moment (field-independent basis, Debye):
    X=             -4.2194    Y=              0.9016    Z=              3.1086  Tot=              5.3178
 Quadrupole moment (field-independent basis, Debye-Ang):
   XX=           -116.5829   YY=            -95.1818   ZZ=            -92.3358
   XY=              5.1307   XZ=             11.2074   YZ=              1.7083

 Normal termination of Gaussian 16 at Thu May  6 09:21:11 2021.
