 Gaussian 16, Revision A.03,
 Gaussian 16:  EM64L-G16RevA.03 25-Dec-2016

 -------------
 #p 6-31g* mp2
 -------------

 ------------------------------------------------------
 Input file generated by CHIRIPA (05-May-2021 14:51:10)
 ------------------------------------------------------
 Symbolic Z-matrix:
 Charge =  0 Multiplicity = 1

                         Standard orientation:
 ---------------------------------------------------------------------
 Center     Atomic      Atomic             Coordinates (Angstroms)
 Number     Number       Type             X           Y           Z
 ---------------------------------------------------------------------
      1          6           0        3.871639   -0.505435   -0.246313
      2          6           0        3.346201   -1.929358   -0.060998
      3          6           0        4.467197   -2.962270    0.058396
      4          1           0        4.503380   -0.468496   -1.144358
      5          1           0        4.519909   -0.247878    0.602690
      6          1           0        2.698009   -2.183653   -0.909406
      7          1           0        2.715482   -1.962868    0.836603
      8          1           0        5.109764   -2.736092    0.915456
      9          1           0        5.092190   -2.958131   -0.840474
     10          1           0        4.069196   -3.973249    0.190219
     11          6           0        2.762898    0.538501   -0.367224
     12          6           0        3.288336    1.962424   -0.552539
     13          6           0        2.167340    2.995336   -0.671933
     14          1           0        2.114629    0.280944   -1.216227
     15          1           0        2.131157    0.501562    0.530821
     16          1           0        3.919055    1.995934   -1.450140
     17          1           0        3.936529    2.216719    0.295869
     18          1           0        1.542347    2.991197    0.226936
     19          1           0        1.524773    2.769157   -1.528993
     20          1           0        2.565341    4.006315   -0.803756
     21          6           0       -2.864370    0.010401    0.921251
     22          6           0       -1.556960    0.765142    0.678292
     23          6           0       -0.661572    0.810428    1.916850
     24          1           0       -3.406351    0.486061    1.750075
     25          1           0       -2.633567   -1.013760    1.245631
     26          1           0       -1.790165    1.787152    0.353136
     27          1           0       -1.018118    0.287745   -0.150175
     28          1           0       -0.399956   -0.202255    2.240317
     29          1           0       -1.176389    1.305672    2.746487
     30          1           0        0.267563    1.354630    1.720858
     31          6           0       -3.770168   -0.043466   -0.307714
     32          6           0       -5.077578   -0.798208   -0.064755
     33          6           0       -5.972965   -0.843494   -1.303312
     34          1           0       -4.000971    0.980694   -0.632093
     35          1           0       -3.228187   -0.519127   -1.136537
     36          1           0       -5.616418   -0.320810    0.763712
     37          1           0       -4.844371   -1.820218    0.260402
     38          1           0       -5.458147   -1.338737   -2.132949
     39          1           0       -6.234581    0.169189   -1.626779
     40          1           0       -6.902099   -1.387696   -1.107321
 ---------------------------------------------------------------------

 SCF Done:  E(RHF) =  -470.732848381     A.U. after   11 cycles
 E2 =    -0.1583493104D+01 EUMP2 =    -0.47231634148433D+03

 The electronic state is 1-A.
 Alpha  occ. eigenvalues --  -11.21605 -11.21597 -11.21592 -11.21567 -11.21390
 Alpha  occ. eigenvalues --  -11.21380 -11.21330 -11.21309 -11.21075 -11.21074
 Alpha  occ. eigenvalues --  -11.21066 -11.21065  -1.08442  -1.08397  -1.03558
 Alpha  occ. eigenvalues --   -1.03493  -0.95983  -0.95973  -0.87010  -0.86984
 Alpha  occ. eigenvalues --   -0.79599  -0.79575  -0.78263  -0.78203  -0.65093
 Alpha  occ. eigenvalues --   -0.65028  -0.60969  -0.60916  -0.59507  -0.59194
 Alpha  occ. eigenvalues --   -0.57614  -0.57553  -0.55338  -0.55196  -0.52735
 Alpha  occ. eigenvalues --   -0.52651  -0.52411  -0.52399  -0.49973  -0.49869
 Alpha  occ. eigenvalues --   -0.47964  -0.47856  -0.46632  -0.46589  -0.45835
 Alpha  occ. eigenvalues --   -0.45726  -0.45681  -0.45626  -0.43781  -0.43719
 Alpha virt. eigenvalues --    0.20867   0.23165   0.23457   0.24779   0.25792
 Alpha virt. eigenvalues --    0.26479   0.26906   0.27597   0.27984   0.29796
 Alpha virt. eigenvalues --    0.30044   0.31473   0.31523   0.31861   0.32090

 Mulliken charges:
               1
     1  C   -0.297679
     2  C   -0.299723
     3  C   -0.475671
     4  H    0.149493
     5  H    0.149451
     6  H    0.151500
     7  H    0.151979
     8  H    0.155289
     9  H    0.155210
    10  H    0.160107
    11  C   -0.306100
    12  C   -0.299692
    13  C   -0.479473
    14  H    0.149188
    15  H    0.158592
    16  H    0.151956
    17  H    0.151632
    18  H    0.158156
    19  H    0.155861
    20  H    0.160361
    21  C   -0.298426
    22  C   -0.300318
    23  C   -0.482135
    24  H    0.149544
    25  H    0.149505
    26  H    0.152278
    27  H    0.153959
    28  H    0.154605
    29  H    0.155215
    30  H    0.165415
    31  C   -0.298236
    32  C   -0.299643
    33  C   -0.475698
    34  H    0.149579
    35  H    0.149555
    36  H    0.151928
    37  H    0.151908
    38  H    0.155121
    39  H    0.155187
    40  H    0.160219
 Sum of Mulliken charges =  -0.00000

 Dipole moment (field-independent basis, Debye):
    X=             -0.0014    Y=              0.0072    Z=             -0.0001  Tot=              0.0073
 Quadrupole moment (field-independent basis, Debye-Ang):
   XX=            -85.7329   YY=            -84.7878   ZZ=            -84.3584
   XY=              0.1098   XZ=             -0.7575   YZ=              0.3835

 Normal termination of Gaussian 16 at Thu May  6 03:49:09 2021.
