 Gaussian 16, Revision A.03,
 Gaussian 16:  EM64L-G16RevA.03 25-Dec-2016

 -------------
 #p 6-31g* mp2
 -------------

 ------------------------------------------------------
 Input file generated by CHIRIPA (05-May-2021 14:53:14)
 ------------------------------------------------------
 Symbolic Z-matrix:
 Charge =  0 Multiplicity = 1

                         Standard orientation:
 ---------------------------------------------------------------------
 Center     Atomic      Atomic             Coordinates (Angstroms)
 Number     Number       Type             X           Y           Z
 ---------------------------------------------------------------------
      1          6           0       -3.895331   -0.065392   -0.224612
      2          6           0       -2.986173   -1.223380   -0.637503
      3          6           0       -1.504889   -0.844580   -0.627387
      4          1           0       -3.727810    0.783359   -0.901741
      5          1           0       -3.609911    0.275385    0.780277
      6          1           0       -3.274125   -1.562779   -1.640752
      7          1           0       -3.156016   -2.069540    0.040570
      8          1           0       -1.195551   -0.525995    0.373320
      9          1           0       -1.314331   -0.016355   -1.317555
     10          1           0       -0.873035   -1.686984   -0.925679
     11          6           0       -5.379175   -0.428585   -0.229844
     12          6           0       -6.288333    0.729404    0.183047
     13          6           0       -7.769617    0.350603    0.172931
     14          1           0       -5.664595   -0.769362   -1.234733
     15          1           0       -5.546695   -1.277336    0.447285
     16          1           0       -6.118490    1.575563   -0.495026
     17          1           0       -6.000381    1.068802    1.186296
     18          1           0       -7.960175   -0.477622    0.863099
     19          1           0       -8.078955    0.032018   -0.827776
     20          1           0       -8.401470    1.193007    0.471223
     21          6           0        5.944655   -0.446332   -0.575119
     22          6           0        5.216959   -1.304656    0.255700
     23          6           0        3.929655   -0.960697    0.678891
     24          6           0        3.398391    0.254764    0.250284
     25          6           0        4.098388    1.131205   -0.577450
     26          6           0        5.384036    0.766720   -0.988314
     27          1           0        6.944020   -0.721500   -0.899076
     28          1           0        5.649819   -2.247364    0.578159
     29          1           0        3.344216   -1.606412    1.322110
     30          1           0        3.640291    2.064251   -0.882394
     31          1           0        5.946859    1.435273   -1.633536
     32          7           0        2.036456    0.629763    0.691773
     33          8           0        1.590869    1.706236    0.300240
     34          8           0        1.440349   -0.159885    1.420983
 ---------------------------------------------------------------------

 SCF Done:  E(RHF) =  -669.536182648     A.U. after   15 cycles
 E2 =    -0.2091118224D+01 EUMP2 =    -0.67162730087277D+03

 The electronic state is 1-A.
 Alpha  occ. eigenvalues --  -20.60895 -20.60874 -15.85910 -11.31252 -11.27816
 Alpha  occ. eigenvalues --  -11.27812 -11.27558 -11.26828 -11.26818 -11.20928
 Alpha  occ. eigenvalues --  -11.20605 -11.20523 -11.20506 -11.20366 -11.19521
 Alpha  occ. eigenvalues --   -1.59936  -1.39494  -1.19420  -1.08821  -1.07536
 Alpha  occ. eigenvalues --   -1.04819  -1.02588  -0.95663  -0.95014  -0.86219
 Alpha  occ. eigenvalues --   -0.86026  -0.82495  -0.78676  -0.77545  -0.77321
 Alpha  occ. eigenvalues --   -0.72134  -0.71242  -0.70530  -0.65076  -0.64824
 Alpha  occ. eigenvalues --   -0.64173  -0.62167  -0.59985  -0.58444  -0.56630
 Alpha  occ. eigenvalues --   -0.55326  -0.54291  -0.53151  -0.52912  -0.51733
 Alpha  occ. eigenvalues --   -0.51433  -0.49137  -0.48884  -0.48705  -0.46944
 Alpha  occ. eigenvalues --   -0.45733  -0.44954  -0.44852  -0.44656  -0.42859
 Alpha  occ. eigenvalues --   -0.37398  -0.36421
 Alpha virt. eigenvalues --    0.04969   0.11234   0.16457   0.21366   0.23718
 Alpha virt. eigenvalues --    0.25303   0.27280   0.27546   0.28217   0.28381
 Alpha virt. eigenvalues --    0.29062   0.30931   0.32348   0.32511   0.32642

 Mulliken charges:
               1
     1  C   -0.297841
     2  C   -0.299607
     3  C   -0.482439
     4  H    0.149340
     5  H    0.153427
     6  H    0.145615
     7  H    0.148605
     8  H    0.181478
     9  H    0.153078
    10  H    0.150154
    11  C   -0.297606
    12  C   -0.299138
    13  C   -0.475210
    14  H    0.146981
    15  H    0.148040
    16  H    0.151421
    17  H    0.152562
    18  H    0.154229
    19  H    0.153783
    20  H    0.158624
    21  C   -0.170655
    22  C   -0.218582
    23  C   -0.170720
    24  C    0.158990
    25  C   -0.170793
    26  C   -0.218591
    27  H    0.225814
    28  H    0.223653
    29  H    0.275760
    30  H    0.275765
    31  H    0.223655
    32  N    0.489319
    33  O   -0.459461
    34  O   -0.459652
 Sum of Mulliken charges =  -0.00000

 Dipole moment (field-independent basis, Debye):
    X=              5.0875    Y=             -1.2223    Z=             -1.4282  Tot=              5.4237
 Quadrupole moment (field-independent basis, Debye-Ang):
   XX=            -65.0457   YY=            -92.1274   ZZ=            -94.0442
   XY=             -3.4363   XZ=             -4.6356   YZ=             -3.7761

 Normal termination of Gaussian 16 at Thu May  6 01:02:42 2021.
