 Gaussian 16, Revision A.03,
 Gaussian 16:  EM64L-G16RevA.03 25-Dec-2016

 -------------
 #p 6-31g* mp2
 -------------

 ------------------------------------------------------
 Input file generated by CHIRIPA (05-May-2021 14:51:13)
 ------------------------------------------------------
 Symbolic Z-matrix:
 Charge =  0 Multiplicity = 1

                         Standard orientation:
 ---------------------------------------------------------------------
 Center     Atomic      Atomic             Coordinates (Angstroms)
 Number     Number       Type             X           Y           Z
 ---------------------------------------------------------------------
      1          6           0        4.216097   -0.139915    0.355145
      2          6           0        5.426891   -0.293468   -0.565932
      3          6           0        6.712272    0.259696    0.050186
      4          1           0        4.080310    0.922963    0.597625
      5          1           0        4.419202   -0.653728    1.304956
      6          1           0        5.221016    0.219306   -1.514243
      7          1           0        5.559697   -1.356084   -0.806401
      8          1           0        6.944886   -0.258472    0.986132
      9          1           0        6.604281    1.325870    0.274268
     10          1           0        7.565171    0.139640   -0.625099
     11          6           0        2.923562   -0.688268   -0.246843
     12          6           0        1.712767   -0.534715    0.674235
     13          6           0        0.427387   -1.087879    0.058116
     14          1           0        2.720457   -0.174455   -1.196653
     15          1           0        3.059349   -1.751146   -0.489322
     16          1           0        1.579962    0.527901    0.914704
     17          1           0        1.918643   -1.047489    1.622546
     18          1           0        0.535377   -2.154052   -0.165965
     19          1           0        0.194772   -0.569711   -0.877829
     20          1           0       -0.425512   -0.967823    0.733401
     21          6           0       -3.594204   -0.328805   -0.230059
     22          6           0       -4.886776   -1.014835    0.213342
     23          6           0       -4.920593   -2.500702   -0.145614
     24          1           0       -3.477221   -0.447917   -1.315910
     25          1           0       -2.738757   -0.838705    0.234277
     26          1           0       -5.739612   -0.502928   -0.250596
     27          1           0       -5.000793   -0.893911    1.298235
     28          1           0       -4.088783   -3.030812    0.329439
     29          1           0       -4.831801   -2.637608   -1.228192
     30          1           0       -5.853321   -2.971372    0.180499
     31          6           0       -3.545455    1.156988    0.121756
     32          6           0       -2.252883    1.843018   -0.321644
     33          6           0       -2.219065    3.328885    0.037312
     34          1           0       -4.400902    1.666888   -0.342580
     35          1           0       -3.662437    1.276100    1.207607
     36          1           0       -2.138867    1.722093   -1.406538
     37          1           0       -1.400047    1.331111    0.142293
     38          1           0       -2.307858    3.465791    1.119889
     39          1           0       -3.050876    3.858995   -0.437742
     40          1           0       -1.286339    3.799555   -0.288801
 ---------------------------------------------------------------------

 SCF Done:  E(RHF) =  -470.732370761     A.U. after   11 cycles
 E2 =    -0.1583603719D+01 EUMP2 =    -0.47231597447961D+03

 The electronic state is 1-A.
 Alpha  occ. eigenvalues --  -11.21636 -11.21613 -11.21547 -11.21512 -11.21423
 Alpha  occ. eigenvalues --  -11.21363 -11.21338 -11.21261 -11.21080 -11.21063
 Alpha  occ. eigenvalues --  -11.21040 -11.21027  -1.08457  -1.08369  -1.03561
 Alpha  occ. eigenvalues --   -1.03472  -0.96011  -0.95927  -0.87029  -0.86948
 Alpha  occ. eigenvalues --   -0.79641  -0.79538  -0.78279  -0.78156  -0.65126
 Alpha  occ. eigenvalues --   -0.64997  -0.61036  -0.60807  -0.59410  -0.59278
 Alpha  occ. eigenvalues --   -0.57639  -0.57523  -0.55301  -0.55223  -0.52809
 Alpha  occ. eigenvalues --   -0.52571  -0.52427  -0.52340  -0.49984  -0.49853
 Alpha  occ. eigenvalues --   -0.47951  -0.47841  -0.46677  -0.46558  -0.45831
 Alpha  occ. eigenvalues --   -0.45751  -0.45670  -0.45599  -0.43759  -0.43659
 Alpha virt. eigenvalues --    0.21378   0.23046   0.23826   0.24590   0.26193
 Alpha virt. eigenvalues --    0.26404   0.26798   0.27512   0.27945   0.29132
 Alpha virt. eigenvalues --    0.30971   0.30985   0.31842   0.31936   0.32395

 Mulliken charges:
               1
     1  C   -0.298273
     2  C   -0.299652
     3  C   -0.475713
     4  H    0.149686
     5  H    0.149518
     6  H    0.151975
     7  H    0.151970
     8  H    0.155183
     9  H    0.155207
    10  H    0.160299
    11  C   -0.298679
    12  C   -0.301673
    13  C   -0.480120
    14  H    0.149838
    15  H    0.149833
    16  H    0.152580
    17  H    0.151925
    18  H    0.155598
    19  H    0.158502
    20  H    0.162134
    21  C   -0.304586
    22  C   -0.299152
    23  C   -0.475559
    24  H    0.149286
    25  H    0.156855
    26  H    0.151651
    27  H    0.151375
    28  H    0.155157
    29  H    0.155185
    30  H    0.159952
    31  C   -0.297870
    32  C   -0.306368
    33  C   -0.475301
    34  H    0.149179
    35  H    0.148747
    36  H    0.150806
    37  H    0.161270
    38  H    0.154843
    39  H    0.154970
    40  H    0.159423
 Sum of Mulliken charges =  -0.00000

 Dipole moment (field-independent basis, Debye):
    X=              0.0391    Y=             -0.0267    Z=             -0.0081  Tot=              0.0480
 Quadrupole moment (field-independent basis, Debye-Ang):
   XX=            -85.8406   YY=            -85.3048   ZZ=            -83.9375
   XY=             -0.7734   XZ=              0.1211   YZ=             -0.8955

 Normal termination of Gaussian 16 at Wed May  5 15:22:06 2021.
