 Gaussian 16, Revision A.03,
 Gaussian 16:  EM64L-G16RevA.03 25-Dec-2016

 -------------
 #p 6-31g* mp2
 -------------

 ------------------------------------------------------
 Input file generated by CHIRIPA (05-May-2021 14:53:13)
 ------------------------------------------------------
 Symbolic Z-matrix:
 Charge =  0 Multiplicity = 1

                         Standard orientation:
 ---------------------------------------------------------------------
 Center     Atomic      Atomic             Coordinates (Angstroms)
 Number     Number       Type             X           Y           Z
 ---------------------------------------------------------------------
      1          6           0       -3.580347    0.150401   -0.279685
      2          6           0       -3.880569   -1.336484   -0.472103
      3          6           0       -4.806744   -1.603805   -1.658920
      4          1           0       -4.524934    0.693476   -0.139079
      5          1           0       -3.125306    0.547252   -1.197749
      6          1           0       -4.333640   -1.730731    0.446544
      7          1           0       -2.935145   -1.876110   -0.612076
      8          1           0       -4.358086   -1.237321   -2.587896
      9          1           0       -5.764527   -1.091116   -1.523261
     10          1           0       -5.008138   -2.672956   -1.778147
     11          6           0       -2.655709    0.433655    0.902914
     12          6           0       -2.355487    1.920539    1.095332
     13          6           0       -1.429312    2.187860    2.282149
     14          1           0       -3.110750    0.036803    1.820978
     15          1           0       -1.711122   -0.109421    0.762308
     16          1           0       -3.300911    2.460166    1.235306
     17          1           0       -1.902416    2.314787    0.176686
     18          1           0       -0.471529    1.675172    2.146490
     19          1           0       -1.877970    1.821377    3.211125
     20          1           0       -1.227918    3.257012    2.401377
     21          6           0        2.524192   -2.287992    1.210916
     22          6           0        3.698987   -1.588338    0.916195
     23          6           0        3.661984   -0.445739    0.111431
     24          6           0        2.427429   -0.029008   -0.384051
     25          6           0        1.239665   -0.704624   -0.108277
     26          6           0        1.300437   -1.844683    0.698643
     27          1           0        2.562169   -3.174603    1.836914
     28          1           0        4.650786   -1.930311    1.312654
     29          1           0        4.556219    0.114851   -0.132496
     30          1           0        0.305774   -0.339414   -0.518017
     31          1           0        0.386476   -2.386057    0.925875
     32          7           0        2.375674    1.179266   -1.237160
     33          8           0        1.275444    1.525878   -1.661414
     34          8           0        3.436318    1.756820   -1.465420
 ---------------------------------------------------------------------

 SCF Done:  E(RHF) =  -669.535683152     A.U. after   15 cycles
 E2 =    -0.2092340050D+01 EUMP2 =    -0.67162802320201D+03

 The electronic state is 1-A.
 Alpha  occ. eigenvalues --  -20.60836 -20.60830 -15.85885 -11.31240 -11.27802
 Alpha  occ. eigenvalues --  -11.27791 -11.27538 -11.26821 -11.26810 -11.21960
 Alpha  occ. eigenvalues --  -11.21712 -11.21561 -11.21512 -11.21279 -11.21001
 Alpha  occ. eigenvalues --   -1.59906  -1.39460  -1.19411  -1.08805  -1.08636
 Alpha  occ. eigenvalues --   -1.04813  -1.03655  -0.96113  -0.95643  -0.87129
 Alpha  occ. eigenvalues --   -0.86208  -0.82478  -0.79729  -0.78472  -0.77519
 Alpha  occ. eigenvalues --   -0.72105  -0.71227  -0.70527  -0.65339  -0.65055
 Alpha  occ. eigenvalues --   -0.64777  -0.62164  -0.61030  -0.59483  -0.57720
 Alpha  occ. eigenvalues --   -0.55440  -0.55273  -0.53139  -0.52906  -0.52782
 Alpha  occ. eigenvalues --   -0.52527  -0.50059  -0.48861  -0.48859  -0.48041
 Alpha  occ. eigenvalues --   -0.46758  -0.46017  -0.45876  -0.44865  -0.43939
 Alpha  occ. eigenvalues --   -0.37385  -0.36397
 Alpha virt. eigenvalues --    0.04968   0.11195   0.16439   0.19237   0.22896
 Alpha virt. eigenvalues --    0.24143   0.24989   0.26757   0.27635   0.28127
 Alpha virt. eigenvalues --    0.30363   0.30921   0.31359   0.31813   0.31974

 Mulliken charges:
               1
     1  C   -0.301096
     2  C   -0.298033
     3  C   -0.475993
     4  H    0.152499
     5  H    0.156241
     6  H    0.151521
     7  H    0.142828
     8  H    0.158209
     9  H    0.156960
    10  H    0.159698
    11  C   -0.299819
    12  C   -0.303534
    13  C   -0.475898
    14  H    0.149259
    15  H    0.137541
    16  H    0.152499
    17  H    0.165305
    18  H    0.154019
    19  H    0.152087
    20  H    0.163825
    21  C   -0.170743
    22  C   -0.218397
    23  C   -0.170769
    24  C    0.158985
    25  C   -0.175464
    26  C   -0.219873
    27  H    0.226040
    28  H    0.223790
    29  H    0.275775
    30  H    0.280213
    31  H    0.225147
    32  N    0.488345
    33  O   -0.461427
    34  O   -0.459740
 Sum of Mulliken charges =  -0.00000

 Dipole moment (field-independent basis, Debye):
    X=              0.1549    Y=             -4.1308    Z=              2.9401  Tot=              5.0726
 Quadrupole moment (field-independent basis, Debye-Ang):
   XX=            -88.1777   YY=            -95.0103   ZZ=            -98.1901
   XY=            -10.5298   XZ=              7.0776   YZ=              1.2351

 Normal termination of Gaussian 16 at Wed May  5 18:35:01 2021.
