 Gaussian 16, Revision A.03,
 Gaussian 16:  EM64L-G16RevA.03 25-Dec-2016

 -------------
 #p 6-31g* mp2
 -------------

 ------------------------------------------------------
 Input file generated by CHIRIPA (05-May-2021 14:51:12)
 ------------------------------------------------------
 Symbolic Z-matrix:
 Charge =  0 Multiplicity = 1

                         Standard orientation:
 ---------------------------------------------------------------------
 Center     Atomic      Atomic             Coordinates (Angstroms)
 Number     Number       Type             X           Y           Z
 ---------------------------------------------------------------------
      1          6           0        2.941982    0.397603   -0.709189
      2          6           0        4.098416   -0.531534   -0.338583
      3          6           0        4.735743   -1.197670   -1.558367
      4          1           0        2.180354   -0.175330   -1.255646
      5          1           0        3.308012    1.169510   -1.400258
      6          1           0        3.730626   -1.300637    0.352667
      7          1           0        4.857293    0.043635    0.207222
      8          1           0        5.129417   -0.443478   -2.247436
      9          1           0        3.996348   -1.795388   -2.101164
     10          1           0        5.560153   -1.857484   -1.270521
     11          6           0        2.294604    1.070975    0.499611
     12          6           0        1.138170    2.000112    0.129005
     13          6           0        0.500843    2.666248    1.348789
     14          1           0        1.928574    0.299067    1.190680
     15          1           0        3.056233    1.643908    1.046068
     16          1           0        0.379293    1.424942   -0.416800
     17          1           0        1.505960    2.769214   -0.562245
     18          1           0        1.240238    3.263965    1.891586
     19          1           0        0.107169    1.912056    2.037858
     20          1           0       -0.323567    3.326061    1.060943
     21          6           0       -3.043809   -0.114176   -0.028736
     22          6           0       -4.128488   -0.338550   -1.082828
     23          6           0       -4.971427    0.911109   -1.338946
     24          1           0       -3.514564    0.210874    0.909175
     25          1           0       -2.391936    0.708849   -0.352906
     26          1           0       -4.777292   -1.161824   -0.757423
     27          1           0       -3.655112   -0.663288   -2.018284
     28          1           0       -4.341514    1.735907   -1.687543
     29          1           0       -5.470071    1.234538   -0.419517
     30          1           0       -5.740613    0.728353   -2.095791
     31          6           0       -2.192778   -1.354401    0.238314
     32          6           0       -1.108098   -1.130027    1.292407
     33          6           0       -0.265159   -2.379687    1.548525
     34          1           0       -2.844650   -2.177427    0.562484
     35          1           0       -1.722023   -1.679451   -0.699598
     36          1           0       -1.581475   -0.805290    2.227862
     37          1           0       -0.459294   -0.306753    0.967000
     38          1           0        0.233485   -2.703115    0.629096
     39          1           0       -0.895072   -3.204485    1.897122
     40          1           0        0.504027   -2.196930    2.305369
 ---------------------------------------------------------------------

 SCF Done:  E(RHF) =  -470.732342896     A.U. after   11 cycles
 E2 =    -0.1585087341D+01 EUMP2 =    -0.47231743023778D+03

 The electronic state is 1-A.
 Alpha  occ. eigenvalues --  -11.21642 -11.21623 -11.21610 -11.21596 -11.21441
 Alpha  occ. eigenvalues --  -11.21429 -11.21380 -11.21367 -11.21149 -11.21084
 Alpha  occ. eigenvalues --  -11.21082 -11.21049  -1.08532  -1.08406  -1.03629
 Alpha  occ. eigenvalues --   -1.03501  -0.96029  -0.95988  -0.87037  -0.87012
 Alpha  occ. eigenvalues --   -0.79649  -0.79614  -0.78300  -0.78271  -0.65529
 Alpha  occ. eigenvalues --   -0.64777  -0.61259  -0.60682  -0.59406  -0.59318
 Alpha  occ. eigenvalues --   -0.57638  -0.57596  -0.55384  -0.55221  -0.52713
 Alpha  occ. eigenvalues --   -0.52684  -0.52483  -0.52378  -0.50020  -0.49892
 Alpha  occ. eigenvalues --   -0.48074  -0.47835  -0.46696  -0.46645  -0.46019
 Alpha  occ. eigenvalues --   -0.45792  -0.45715  -0.45434  -0.43820  -0.43803
 Alpha virt. eigenvalues --    0.19807   0.22519   0.23677   0.24462   0.25624
 Alpha virt. eigenvalues --    0.26394   0.26725   0.28203   0.29159   0.29811
 Alpha virt. eigenvalues --    0.30316   0.31255   0.31700   0.31853   0.32006

 Mulliken charges:
               1
     1  C   -0.297786
     2  C   -0.300179
     3  C   -0.475660
     4  H    0.148772
     5  H    0.149691
     6  H    0.152841
     7  H    0.151978
     8  H    0.155141
     9  H    0.154976
    10  H    0.160421
    11  C   -0.302936
    12  C   -0.306406
    13  C   -0.477772
    14  H    0.153709
    15  H    0.150412
    16  H    0.152825
    17  H    0.154055
    18  H    0.155259
    19  H    0.158487
    20  H    0.160361
    21  C   -0.301668
    22  C   -0.299568
    23  C   -0.475752
    24  H    0.150063
    25  H    0.152180
    26  H    0.152087
    27  H    0.151877
    28  H    0.155275
    29  H    0.155283
    30  H    0.160332
    31  C   -0.297204
    32  C   -0.312781
    33  C   -0.476021
    34  H    0.149728
    35  H    0.148800
    36  H    0.151782
    37  H    0.166770
    38  H    0.154791
    39  H    0.155809
    40  H    0.160025
 Sum of Mulliken charges =  -0.00000

 Dipole moment (field-independent basis, Debye):
    X=             -0.0005    Y=              0.0094    Z=              0.0184  Tot=              0.0207
 Quadrupole moment (field-independent basis, Debye-Ang):
   XX=            -84.6758   YY=            -85.1132   ZZ=            -84.9362
   XY=              1.5771   XZ=             -0.2914   YZ=             -0.4546

 Normal termination of Gaussian 16 at Thu May  6 03:54:10 2021.
