 Gaussian 16, Revision A.03,
 Gaussian 16:  EM64L-G16RevA.03 25-Dec-2016

 -------------
 #p 6-31g* mp2
 -------------

 ------------------------------------------------------
 Input file generated by CHIRIPA (05-May-2021 14:51:09)
 ------------------------------------------------------
 Symbolic Z-matrix:
 Charge =  0 Multiplicity = 1

                         Standard orientation:
 ---------------------------------------------------------------------
 Center     Atomic      Atomic             Coordinates (Angstroms)
 Number     Number       Type             X           Y           Z
 ---------------------------------------------------------------------
      1          6           0        4.048058   -0.411075    0.162170
      2          6           0        4.619916    0.392218   -1.006454
      3          6           0        6.065174    0.831913   -0.770462
      4          1           0        4.103850    0.194436    1.077150
      5          1           0        4.677903   -1.295020    0.333438
      6          1           0        3.988390    1.273651   -1.176357
      7          1           0        4.562580   -0.215205   -1.918796
      8          1           0        6.713257   -0.038004   -0.622700
      9          1           0        6.135805    1.459311    0.123957
     10          1           0        6.454081    1.404622   -1.618174
     11          6           0        2.603990   -0.857769   -0.058869
     12          6           0        2.032132   -1.661063    1.109755
     13          6           0        0.586874   -2.100758    0.873763
     14          1           0        1.974145    0.026175   -0.230137
     15          1           0        2.548198   -1.463280   -0.973849
     16          1           0        2.089468   -1.053640    2.022097
     17          1           0        2.663658   -2.542495    1.279658
     18          1           0        0.516244   -2.728156   -0.020656
     19          1           0       -0.061209   -1.230841    0.726001
     20          1           0        0.197968   -2.673467    1.721475
     21          6           0       -2.585559    0.818599   -0.016700
     22          6           0       -2.330202    2.186417    0.617218
     23          6           0       -0.844158    2.540702    0.680048
     24          1           0       -2.047839    0.050225    0.555494
     25          1           0       -2.161762    0.807174   -1.030435
     26          1           0       -2.755570    2.195721    1.628946
     27          1           0       -2.868747    2.951598    0.043562
     28          1           0       -0.409686    2.559062   -0.324690
     29          1           0       -0.295865    1.798889    1.269700
     30          1           0       -0.684454    3.522439    1.136719
     31          6           0       -4.066490    0.450246   -0.086601
     32          6           0       -4.321846   -0.917572   -0.720519
     33          6           0       -5.807891   -1.271858   -0.783350
     34          1           0       -4.490286    0.461671    0.927135
     35          1           0       -4.604210    1.218619   -0.658795
     36          1           0       -3.783301   -1.682754   -0.146863
     37          1           0       -3.896478   -0.926876   -1.732246
     38          1           0       -6.356183   -0.530045   -1.373001
     39          1           0       -6.242362   -1.290217    0.221390
     40          1           0       -5.967594   -2.253595   -1.240020
 ---------------------------------------------------------------------

 SCF Done:  E(RHF) =  -470.733332636     A.U. after   11 cycles
 E2 =    -0.1583083563D+01 EUMP2 =    -0.47231641619914D+03

 The electronic state is 1-A.
 Alpha  occ. eigenvalues --  -11.21647 -11.21579 -11.21579 -11.21569 -11.21412
 Alpha  occ. eigenvalues --  -11.21363 -11.21352 -11.21302 -11.21159 -11.21056
 Alpha  occ. eigenvalues --  -11.21045 -11.21026  -1.08451  -1.08392  -1.03555
 Alpha  occ. eigenvalues --   -1.03497  -0.96009  -0.95946  -0.87034  -0.86957
 Alpha  occ. eigenvalues --   -0.79637  -0.79547  -0.78297  -0.78169  -0.65127
 Alpha  occ. eigenvalues --   -0.64986  -0.61010  -0.60844  -0.59382  -0.59306
 Alpha  occ. eigenvalues --   -0.57652  -0.57529  -0.55348  -0.55198  -0.52704
 Alpha  occ. eigenvalues --   -0.52649  -0.52505  -0.52303  -0.50023  -0.49838
 Alpha  occ. eigenvalues --   -0.48036  -0.47826  -0.46743  -0.46563  -0.45919
 Alpha  occ. eigenvalues --   -0.45736  -0.45707  -0.45384  -0.43803  -0.43754
 Alpha virt. eigenvalues --    0.20622   0.23032   0.23680   0.24867   0.25667
 Alpha virt. eigenvalues --    0.26277   0.27008   0.27398   0.28736   0.29262
 Alpha virt. eigenvalues --    0.30645   0.31595   0.31692   0.31809   0.32080

 Mulliken charges:
               1
     1  C   -0.298170
     2  C   -0.299700
     3  C   -0.475686
     4  H    0.149690
     5  H    0.149311
     6  H    0.152208
     7  H    0.151749
     8  H    0.155068
     9  H    0.155229
    10  H    0.160127
    11  C   -0.300203
    12  C   -0.298900
    13  C   -0.484411
    14  H    0.151962
    15  H    0.149428
    16  H    0.151308
    17  H    0.151826
    18  H    0.155530
    19  H    0.163086
    20  H    0.159356
    21  C   -0.306278
    22  C   -0.299236
    23  C   -0.478178
    24  H    0.157590
    25  H    0.149581
    26  H    0.152043
    27  H    0.152287
    28  H    0.155526
    29  H    0.155929
    30  H    0.160800
    31  C   -0.297562
    32  C   -0.299969
    33  C   -0.475730
    34  H    0.149421
    35  H    0.149617
    36  H    0.152904
    37  H    0.151956
    38  H    0.155048
    39  H    0.155127
    40  H    0.160316
 Sum of Mulliken charges =  -0.00000

 Dipole moment (field-independent basis, Debye):
    X=             -0.0302    Y=              0.0157    Z=             -0.0082  Tot=              0.0350
 Quadrupole moment (field-independent basis, Debye-Ang):
   XX=            -86.8811   YY=            -84.1644   ZZ=            -83.7730
   XY=             -1.1127   XZ=             -0.2524   YZ=             -0.0493

 Normal termination of Gaussian 16 at Thu May  6 05:21:08 2021.
