 Gaussian 16, Revision A.03,
 Gaussian 16:  EM64L-G16RevA.03 25-Dec-2016

 -------------
 #p 6-31g* mp2
 -------------

 ------------------------------------------------------
 Input file generated by CHIRIPA (05-May-2021 14:51:09)
 ------------------------------------------------------
 Symbolic Z-matrix:
 Charge =  0 Multiplicity = 1

                         Standard orientation:
 ---------------------------------------------------------------------
 Center     Atomic      Atomic             Coordinates (Angstroms)
 Number     Number       Type             X           Y           Z
 ---------------------------------------------------------------------
      1          6           0        2.956119   -0.926246    0.717708
      2          6           0        1.433800   -0.795550    0.658995
      3          6           0        0.728831   -1.600028    1.751528
      4          1           0        3.230438   -1.986371    0.629237
      5          1           0        3.307946   -0.593610    1.704099
      6          1           0        1.085081   -1.127031   -0.327480
      7          1           0        1.163082    0.264406    0.747424
      8          1           0        1.048353   -1.264909    2.743598
      9          1           0        0.969909   -2.664252    1.662586
     10          1           0       -0.358639   -1.492303    1.690994
     11          6           0        3.675049   -0.127681   -0.368184
     12          6           0        5.197369   -0.258376   -0.309470
     13          6           0        5.902337    0.546101   -1.402003
     14          1           0        3.323223   -0.460317   -1.354574
     15          1           0        3.400731    0.932445   -0.279712
     16          1           0        5.468086   -1.318333   -0.397900
     17          1           0        5.546088    0.073104    0.677004
     18          1           0        5.661260    1.610325   -1.313061
     19          1           0        5.582815    0.210982   -2.394073
     20          1           0        6.989807    0.438376   -1.341469
     21          6           0       -3.441526   -0.165269   -0.472059
     22          6           0       -4.908484   -0.592579   -0.413566
     23          6           0       -5.144496   -1.979606   -1.012106
     24          1           0       -3.104127   -0.177301   -1.517508
     25          1           0       -2.829733   -0.905200    0.062364
     26          1           0       -5.517490    0.148662   -0.946756
     27          1           0       -5.242484   -0.579342    0.631846
     28          1           0       -4.561603   -2.735076   -0.475354
     29          1           0       -4.838171   -2.002935   -2.062926
     30          1           0       -6.199780   -2.265109   -0.959933
     31          6           0       -3.189644    1.219195    0.122534
     32          6           0       -1.722684    1.646506    0.064041
     33          6           0       -1.486672    3.033532    0.662582
     34          1           0       -3.801435    1.959127   -0.411889
     35          1           0       -3.527042    1.231229    1.167983
     36          1           0       -1.388684    1.633269   -0.981370
     37          1           0       -1.113679    0.905265    0.597231
     38          1           0       -1.792998    3.056862    1.713400
     39          1           0       -2.069566    3.789002    0.125830
     40          1           0       -0.431388    3.319037    0.610408
 ---------------------------------------------------------------------

 SCF Done:  E(RHF) =  -470.732944740     A.U. after   11 cycles
 E2 =    -0.1583417682D+01 EUMP2 =    -0.47231636242206D+03

 The electronic state is 1-A.
 Alpha  occ. eigenvalues --  -11.21603 -11.21599 -11.21582 -11.21520 -11.21405
 Alpha  occ. eigenvalues --  -11.21398 -11.21346 -11.21333 -11.21128 -11.21073
 Alpha  occ. eigenvalues --  -11.21069 -11.21069  -1.08453  -1.08400  -1.03577
 Alpha  occ. eigenvalues --   -1.03485  -0.96003  -0.95970  -0.87013  -0.86986
 Alpha  occ. eigenvalues --   -0.79715  -0.79489  -0.78340  -0.78130  -0.65130
 Alpha  occ. eigenvalues --   -0.65005  -0.61068  -0.60820  -0.59470  -0.59238
 Alpha  occ. eigenvalues --   -0.57653  -0.57537  -0.55309  -0.55235  -0.52719
 Alpha  occ. eigenvalues --   -0.52646  -0.52425  -0.52393  -0.49954  -0.49899
 Alpha  occ. eigenvalues --   -0.48089  -0.47763  -0.46802  -0.46474  -0.45935
 Alpha  occ. eigenvalues --   -0.45752  -0.45702  -0.45429  -0.43797  -0.43768
 Alpha virt. eigenvalues --    0.20698   0.22970   0.23719   0.24281   0.25859
 Alpha virt. eigenvalues --    0.26258   0.26833   0.27325   0.28360   0.29125
 Alpha virt. eigenvalues --    0.30881   0.31352   0.31445   0.31851   0.32509

 Mulliken charges:
               1
     1  C   -0.297818
     2  C   -0.302908
     3  C   -0.479841
     4  H    0.149500
     5  H    0.149354
     6  H    0.152894
     7  H    0.155554
     8  H    0.155404
     9  H    0.155910
    10  H    0.161523
    11  C   -0.298242
    12  C   -0.299658
    13  C   -0.475704
    14  H    0.149613
    15  H    0.149559
    16  H    0.151962
    17  H    0.151912
    18  H    0.155163
    19  H    0.155184
    20  H    0.160265
    21  C   -0.300405
    22  C   -0.299577
    23  C   -0.475734
    24  H    0.149773
    25  H    0.150637
    26  H    0.152071
    27  H    0.151958
    28  H    0.155225
    29  H    0.155125
    30  H    0.160271
    31  C   -0.297562
    32  C   -0.308519
    33  C   -0.476103
    34  H    0.149347
    35  H    0.149232
    36  H    0.151787
    37  H    0.162989
    38  H    0.154998
    39  H    0.155364
    40  H    0.159497
 Sum of Mulliken charges =  -0.00000

 Dipole moment (field-independent basis, Debye):
    X=              0.0147    Y=             -0.0080    Z=             -0.0058  Tot=              0.0178
 Quadrupole moment (field-independent basis, Debye-Ang):
   XX=            -85.3872   YY=            -85.2591   ZZ=            -84.2381
   XY=             -0.6821   XZ=              0.5268   YZ=              0.1193

 Normal termination of Gaussian 16 at Wed May  5 19:45:37 2021.
