 Gaussian 16, Revision A.03,
 Gaussian 16:  EM64L-G16RevA.03 25-Dec-2016

 -------------
 #p 6-31g* mp2
 -------------

 ------------------------------------------------------
 Input file generated by CHIRIPA (05-May-2021 14:55:19)
 ------------------------------------------------------
 Symbolic Z-matrix:
 Charge =  0 Multiplicity = 1

                         Standard orientation:
 ---------------------------------------------------------------------
 Center     Atomic      Atomic             Coordinates (Angstroms)
 Number     Number       Type             X           Y           Z
 ---------------------------------------------------------------------
      1          6           0       -4.298662    1.263596   -1.569260
      2          6           0       -3.965163   -0.090945   -1.671818
      3          6           0       -3.243598   -0.723461   -0.655052
      4          6           0       -2.869951    0.032141    0.455238
      5          6           0       -3.187166    1.383221    0.586570
      6          6           0       -3.909285    1.995066   -0.442380
      7          1           0       -4.859406    1.746921   -2.363840
      8          1           0       -4.266236   -0.661495   -2.545817
      9          1           0       -2.972128   -1.770763   -0.708728
     10          1           0       -2.873107    1.925835    1.469946
     11          1           0       -4.166892    3.047161   -0.360035
     12          7           0       -2.105768   -0.626534    1.538092
     13          8           0       -1.788350    0.061220    2.506016
     14          8           0       -1.838691   -1.818085    1.398405
     15          6           0        3.076189   -0.256649   -0.400726
     16          6           0        2.634493   -1.640708   -0.877454
     17          6           0        1.114254   -1.778383   -0.965276
     18          1           0        2.630914   -0.055390    0.583230
     19          1           0        2.677171    0.504094   -1.085889
     20          1           0        3.035380   -2.398714   -0.192376
     21          1           0        3.081026   -1.838776   -1.860304
     22          1           0        0.700641   -1.043881   -1.663869
     23          1           0        0.654738   -1.607002    0.013536
     24          1           0        0.820575   -2.775443   -1.308035
     25          6           0        4.593308   -0.103538   -0.307808
     26          6           0        5.035004    1.280520    0.168921
     27          6           0        6.555242    1.418195    0.256744
     28          1           0        4.992326   -0.864282    0.377356
     29          1           0        5.038583   -0.304799   -1.291764
     30          1           0        4.588471    1.478587    1.151771
     31          1           0        4.634116    2.038526   -0.516157
     32          1           0        7.014760    1.246813   -0.722070
     33          1           0        6.968855    0.683693    0.955336
     34          1           0        6.848922    2.415255    0.599502
 ---------------------------------------------------------------------

 SCF Done:  E(RHF) =  -669.536260552     A.U. after   15 cycles
 E2 =    -0.2091164338D+01 EUMP2 =    -0.67162742489034D+03

 The electronic state is 1-A.
 Alpha  occ. eigenvalues --  -20.60899 -20.60885 -15.85913 -11.31219 -11.27788
 Alpha  occ. eigenvalues --  -11.27775 -11.27528 -11.26794 -11.26782 -11.21245
 Alpha  occ. eigenvalues --  -11.21032 -11.20968 -11.20855 -11.20774 -11.20341
 Alpha  occ. eigenvalues --   -1.59953  -1.39508  -1.19389  -1.08799  -1.07963
 Alpha  occ. eigenvalues --   -1.04784  -1.03051  -0.95646  -0.95493  -0.86516
 Alpha  occ. eigenvalues --   -0.86185  -0.82478  -0.79126  -0.77780  -0.77527
 Alpha  occ. eigenvalues --   -0.72140  -0.71266  -0.70502  -0.65047  -0.64791
 Alpha  occ. eigenvalues --   -0.64589  -0.62131  -0.60438  -0.58880  -0.57114
 Alpha  occ. eigenvalues --   -0.55296  -0.54774  -0.53114  -0.52878  -0.52195
 Alpha  occ. eigenvalues --   -0.51931  -0.49442  -0.48906  -0.48892  -0.47456
 Alpha  occ. eigenvalues --   -0.46182  -0.45359  -0.45260  -0.44751  -0.43312
 Alpha  occ. eigenvalues --   -0.37368  -0.36382
 Alpha virt. eigenvalues --    0.04979   0.11254   0.16458   0.21375   0.23338
 Alpha virt. eigenvalues --    0.24780   0.27118   0.27229   0.27862   0.28043
 Alpha virt. eigenvalues --    0.28693   0.30868   0.31881   0.32060   0.32407

 Mulliken charges:
               1
     1  C   -0.170604
     2  C   -0.218885
     3  C   -0.169831
     4  C    0.158728
     5  C   -0.170807
     6  C   -0.218693
     7  H    0.225690
     8  H    0.223674
     9  H    0.276706
    10  H    0.275542
    11  H    0.223504
    12  N    0.487288
    13  O   -0.459517
    14  O   -0.458161
    15  C   -0.299388
    16  C   -0.298754
    17  C   -0.483319
    18  H    0.155015
    19  H    0.145797
    20  H    0.153985
    21  H    0.147705
    22  H    0.146145
    23  H    0.173055
    24  H    0.157581
    25  C   -0.297945
    26  C   -0.299573
    27  C   -0.475468
    28  H    0.150454
    29  H    0.147677
    30  H    0.153723
    31  H    0.149929
    32  H    0.153996
    33  H    0.155615
    34  H    0.159135
 Sum of Mulliken charges =  -0.00000

 Dipole moment (field-independent basis, Debye):
    X=             -2.8403    Y=              2.2939    Z=             -3.6838  Tot=              5.1865
 Quadrupole moment (field-independent basis, Debye-Ang):
   XX=            -81.5818   YY=            -91.0322   ZZ=            -96.7121
   XY=             -7.1135   XZ=             10.1860   YZ=              2.9414

 Normal termination of Gaussian 16 at Wed May  5 23:43:13 2021.
