 Gaussian 16, Revision A.03,
 Gaussian 16:  EM64L-G16RevA.03 25-Dec-2016

 -------------
 #p 6-31g* mp2
 -------------

 ------------------------------------------------------
 Input file generated by CHIRIPA (05-May-2021 14:57:27)
 ------------------------------------------------------
 Symbolic Z-matrix:
 Charge =  0 Multiplicity = 1

                         Standard orientation:
 ---------------------------------------------------------------------
 Center     Atomic      Atomic             Coordinates (Angstroms)
 Number     Number       Type             X           Y           Z
 ---------------------------------------------------------------------
      1          6           0       -2.692668    2.703777    0.189049
      2          6           0       -1.522439    2.023058   -0.162672
      3          6           0       -1.516245    0.628961   -0.267569
      4          6           0       -2.703411   -0.055839   -0.012670
      5          6           0       -3.885383    0.593790    0.339772
      6          6           0       -3.868332    1.988232    0.438709
      7          1           0       -2.688451    3.786879    0.268221
      8          1           0       -0.607940    2.576160   -0.357131
      9          1           0       -0.624450    0.076746   -0.538084
     10          1           0       -4.781581    0.015031    0.527617
     11          1           0       -4.778631    2.514243    0.712046
     12          7           0       -2.709158   -1.531890   -0.120564
     13          8           0       -3.768072   -2.112067    0.109068
     14          8           0       -1.654638   -2.080692   -0.432721
     15          6           0        1.879472   -2.568452    0.133987
     16          6           0        1.701413   -1.833901   -1.042980
     17          6           0        2.153394   -0.513881   -1.131334
     18          6           0        2.782028    0.042757   -0.018560
     19          6           0        2.974227   -0.663272    1.167978
     20          6           0        2.514192   -1.981828    1.233770
     21          1           0        1.525235   -3.593307    0.193859
     22          1           0        1.208829   -2.286908   -1.898661
     23          1           0        2.028599    0.077569   -2.030239
     24          1           0        3.468916   -0.184570    2.004366
     25          1           0        2.653843   -2.549901    2.149104
     26          7           0        3.264783    1.439428   -0.100154
     27          8           0        3.815523    1.906927    0.894214
     28          8           0        3.083284    2.040194   -1.156930
 ---------------------------------------------------------------------

 SCF Done:  E(RHF) =  -868.340082648     A.U. after   16 cycles
 E2 =    -0.2601780834D+01 EUMP2 =    -0.87094186348189D+03

 The electronic state is 1-A.
 Alpha  occ. eigenvalues --  -20.61198 -20.61141 -20.61095 -20.61072 -15.86207
 Alpha  occ. eigenvalues --  -15.86123 -11.31246 -11.31241 -11.27805 -11.27713
 Alpha  occ. eigenvalues --  -11.27705 -11.27674 -11.27446 -11.27210 -11.26754
 Alpha  occ. eigenvalues --  -11.26635 -11.26626 -11.26544  -1.60246  -1.60172
 Alpha  occ. eigenvalues --   -1.39810  -1.39729  -1.19394  -1.19342  -1.08844
 Alpha  occ. eigenvalues --   -1.08723  -1.04770  -1.04666  -0.95736  -0.95622
 Alpha  occ. eigenvalues --   -0.86152  -0.86055  -0.82580  -0.82467  -0.77720
 Alpha  occ. eigenvalues --   -0.77540  -0.72474  -0.72326  -0.71554  -0.71511
 Alpha  occ. eigenvalues --   -0.70496  -0.70318  -0.65051  -0.64950  -0.64724
 Alpha  occ. eigenvalues --   -0.64596  -0.62140  -0.61993  -0.55260  -0.55043
 Alpha  occ. eigenvalues --   -0.53260  -0.53097  -0.52717  -0.52540  -0.49211
 Alpha  occ. eigenvalues --   -0.49168  -0.49113  -0.49059  -0.45290  -0.45189
 Alpha  occ. eigenvalues --   -0.37361  -0.37172  -0.36336  -0.36274
 Alpha virt. eigenvalues --    0.04685   0.05018   0.11314   0.11346   0.16317
 Alpha virt. eigenvalues --    0.16568   0.21359   0.21945   0.27000   0.27719
 Alpha virt. eigenvalues --    0.28532   0.28851   0.31010   0.31585   0.32598

 Mulliken charges:
               1
     1  C   -0.169725
     2  C   -0.225683
     3  C   -0.177606
     4  C    0.154162
     5  C   -0.170533
     6  C   -0.219461
     7  H    0.228428
     8  H    0.233668
     9  H    0.284600
    10  H    0.274384
    11  H    0.223583
    12  N    0.490096
    13  O   -0.459186
    14  O   -0.472445
    15  C   -0.161064
    16  C   -0.205407
    17  C   -0.197573
    18  C    0.159301
    19  C   -0.172765
    20  C   -0.219508
    21  H    0.235086
    22  H    0.233638
    23  H    0.273010
    24  H    0.274343
    25  H    0.224839
    26  N    0.486995
    27  O   -0.459353
    28  O   -0.465823
 Sum of Mulliken charges =  -0.00000

 Dipole moment (field-independent basis, Debye):
    X=             -1.6935    Y=              0.0165    Z=              0.7217  Tot=              1.8409
 Quadrupole moment (field-independent basis, Debye-Ang):
   XX=           -110.3042   YY=           -105.8622   ZZ=           -101.0083
   XY=            -28.9955   XZ=              0.2823   YZ=             -0.1894

 Normal termination of Gaussian 16 at Thu May  6 00:28:53 2021.
