 Gaussian 16, Revision A.03,
 Gaussian 16:  EM64L-G16RevA.03 25-Dec-2016

 -------------
 #p 6-31g* mp2
 -------------

 ------------------------------------------------------
 Input file generated by CHIRIPA (05-May-2021 14:53:18)
 ------------------------------------------------------
 Symbolic Z-matrix:
 Charge =  0 Multiplicity = 1

                         Standard orientation:
 ---------------------------------------------------------------------
 Center     Atomic      Atomic             Coordinates (Angstroms)
 Number     Number       Type             X           Y           Z
 ---------------------------------------------------------------------
      1          6           0       -3.334066   -0.012132    0.339305
      2          6           0       -2.875945   -0.603762    1.672753
      3          6           0       -1.365547   -0.490748    1.881847
      4          1           0       -2.809805   -0.522295   -0.480347
      5          1           0       -3.034498    1.044023    0.292494
      6          1           0       -3.177505   -1.658117    1.717615
      7          1           0       -3.401500   -0.092261    2.489316
      8          1           0       -1.051509    0.557893    1.863605
      9          1           0       -0.826241   -1.016859    1.087519
     10          1           0       -1.059844   -0.919805    2.841178
     11          6           0       -4.841590   -0.117610    0.115755
     12          6           0       -5.299711    0.474020   -1.217693
     13          6           0       -6.810109    0.361006   -1.426787
     14          1           0       -5.141159   -1.173765    0.162565
     15          1           0       -5.365851    0.392553    0.935407
     16          1           0       -4.774157   -0.037481   -2.034256
     17          1           0       -4.998151    1.528375   -1.262555
     18          1           0       -7.349416    0.887117   -0.632459
     19          1           0       -7.124148   -0.687635   -1.408545
     20          1           0       -7.115812    0.790063   -2.386118
     21          6           0        3.143770   -2.447698   -0.526394
     22          6           0        4.237739   -1.700071   -0.974510
     23          6           0        4.276061   -0.315216   -0.786735
     24          6           0        3.198434    0.292214   -0.144053
     25          6           0        2.094375   -0.425256    0.313745
     26          6           0        2.077460   -1.809030    0.115172
     27          1           0        3.122316   -3.523065   -0.676456
     28          1           0        5.067259   -2.193396   -1.473080
     29          1           0        5.110523    0.287756   -1.123654
     30          1           0        1.282316    0.094670    0.807360
     31          1           0        1.226565   -2.387112    0.464233
     32          7           0        3.227674    1.757726    0.060452
     33          8           0        2.265749    2.269103    0.629513
     34          8           0        4.211962    2.367266   -0.352191
 ---------------------------------------------------------------------

 SCF Done:  E(RHF) =  -669.535038501     A.U. after   15 cycles
 E2 =    -0.2091946125D+01 EUMP2 =    -0.67162698462584D+03

 The electronic state is 1-A.
 Alpha  occ. eigenvalues --  -20.60697 -20.60692 -15.85746 -11.31063 -11.27666
 Alpha  occ. eigenvalues --  -11.27558 -11.27414 -11.26676 -11.26639 -11.22096
 Alpha  occ. eigenvalues --  -11.21854 -11.21738 -11.21688 -11.21584 -11.21178
 Alpha  occ. eigenvalues --   -1.59771  -1.39325  -1.19252  -1.08737  -1.08661
 Alpha  occ. eigenvalues --   -1.04661  -1.03888  -0.96374  -0.95495  -0.87411
 Alpha  occ. eigenvalues --   -0.86053  -0.82340  -0.79985  -0.78520  -0.77367
 Alpha  occ. eigenvalues --   -0.71969  -0.71092  -0.70373  -0.65373  -0.64909
 Alpha  occ. eigenvalues --   -0.64670  -0.62095  -0.61250  -0.59727  -0.57935
 Alpha  occ. eigenvalues --   -0.55663  -0.55174  -0.53082  -0.53002  -0.52905
 Alpha  occ. eigenvalues --   -0.52568  -0.50307  -0.48726  -0.48722  -0.48252
 Alpha  occ. eigenvalues --   -0.46971  -0.46066  -0.45962  -0.44740  -0.44118
 Alpha  occ. eigenvalues --   -0.37247  -0.36252
 Alpha virt. eigenvalues --    0.05142   0.11396   0.16603   0.20641   0.22684
 Alpha virt. eigenvalues --    0.23988   0.25719   0.26087   0.27401   0.27934
 Alpha virt. eigenvalues --    0.29002   0.29793   0.31388   0.31623   0.32423

 Mulliken charges:
               1
     1  C   -0.299710
     2  C   -0.299043
     3  C   -0.489184
     4  H    0.147835
     5  H    0.155056
     6  H    0.151144
     7  H    0.156461
     8  H    0.168049
     9  H    0.145501
    10  H    0.163423
    11  C   -0.298685
    12  C   -0.300090
    13  C   -0.475925
    14  H    0.148570
    15  H    0.151080
    16  H    0.151567
    17  H    0.154371
    18  H    0.155882
    19  H    0.154551
    20  H    0.161196
    21  C   -0.170409
    22  C   -0.219366
    23  C   -0.170135
    24  C    0.157818
    25  C   -0.177455
    26  C   -0.225390
    27  H    0.225082
    28  H    0.222964
    29  H    0.275152
    30  H    0.288775
    31  H    0.225069
    32  N    0.487947
    33  O   -0.461346
    34  O   -0.460754
 Sum of Mulliken charges =  -0.00000

 Dipole moment (field-independent basis, Debye):
    X=             -0.2949    Y=             -5.0639    Z=             -0.6679  Tot=              5.1163
 Quadrupole moment (field-independent basis, Debye-Ang):
   XX=            -92.3884   YY=            -97.6761   ZZ=            -93.9887
   XY=            -16.8298   XZ=             -5.1501   YZ=              0.9485

 Normal termination of Gaussian 16 at Thu May  6 06:02:52 2021.
