 Gaussian 16, Revision A.03,
 Gaussian 16:  EM64L-G16RevA.03 25-Dec-2016

 -------------
 #p 6-31g* mp2
 -------------

 ------------------------------------------------------
 Input file generated by CHIRIPA (05-May-2021 14:57:23)
 ------------------------------------------------------
 Symbolic Z-matrix:
 Charge =  0 Multiplicity = 1

                         Standard orientation:
 ---------------------------------------------------------------------
 Center     Atomic      Atomic             Coordinates (Angstroms)
 Number     Number       Type             X           Y           Z
 ---------------------------------------------------------------------
      1          6           0        1.664605    1.561052    0.068047
      2          6           0        1.630185    0.162768    0.056341
      3          6           0        2.812257   -0.575664   -0.053080
      4          6           0        4.016573    0.119780   -0.149373
      5          6           0        4.083579    1.512160   -0.140531
      6          6           0        2.889033    2.230106   -0.030253
      7          1           0        0.741498    2.126726    0.153381
      8          1           0        0.680722   -0.359497    0.132530
      9          1           0        2.814477   -1.658844   -0.064632
     10          1           0        5.045267    2.004664   -0.218084
     11          1           0        2.918789    3.315961   -0.021422
     12          7           0        5.274582   -0.651121   -0.265666
     13          8           0        6.322739   -0.014697   -0.349146
     14          8           0        5.188633   -1.877179   -0.271133
     15          6           0       -1.767931   -1.218628    1.250300
     16          6           0       -2.227793    0.051462    1.613510
     17          6           0       -3.357795    0.599832    0.999561
     18          6           0       -4.006584   -0.152885    0.021920
     19          6           0       -3.572858   -1.420947   -0.361729
     20          6           0       -2.440745   -1.949490    0.265576
     21          1           0       -0.889299   -1.636913    1.732418
     22          1           0       -1.707270    0.621330    2.377938
     23          1           0       -3.735374    1.580762    1.261531
     24          1           0       -4.112745   -1.965104   -1.127128
     25          1           0       -2.085872   -2.936103   -0.018511
     26          7           0       -5.203983    0.417155   -0.635111
     27          8           0       -5.757833   -0.266180   -1.493562
     28          8           0       -5.565983    1.536494   -0.279198
 ---------------------------------------------------------------------

 SCF Done:  E(RHF) =  -868.337131634     A.U. after   16 cycles
 E2 =    -0.2600994571D+01 EUMP2 =    -0.87093812620466D+03

 The electronic state is 1-A.
 Alpha  occ. eigenvalues --  -20.61550 -20.61542 -20.61187 -20.61177 -15.86608
 Alpha  occ. eigenvalues --  -15.86239 -11.32187 -11.31661 -11.28773 -11.28725
 Alpha  occ. eigenvalues --  -11.28567 -11.28264 -11.28208 -11.27970 -11.27876
 Alpha  occ. eigenvalues --  -11.27816 -11.27228 -11.27207  -1.60619  -1.60259
 Alpha  occ. eigenvalues --   -1.40166  -1.39811  -1.20388  -1.19833  -1.09767
 Alpha  occ. eigenvalues --   -1.09212  -1.05798  -1.05250  -0.96554  -0.96043
 Alpha  occ. eigenvalues --   -0.87190  -0.86641  -0.83367  -0.82874  -0.78357
 Alpha  occ. eigenvalues --   -0.77926  -0.72820  -0.72456  -0.71946  -0.71583
 Alpha  occ. eigenvalues --   -0.71519  -0.70940  -0.66031  -0.65796  -0.65482
 Alpha  occ. eigenvalues --   -0.65247  -0.63113  -0.62613  -0.56347  -0.55721
 Alpha  occ. eigenvalues --   -0.54229  -0.53871  -0.53572  -0.53221  -0.49596
 Alpha  occ. eigenvalues --   -0.49563  -0.49219  -0.49208  -0.45524  -0.45205
 Alpha  occ. eigenvalues --   -0.38400  -0.37815  -0.37405  -0.36855
 Alpha virt. eigenvalues --    0.04097   0.04615   0.10145   0.10809   0.15409
 Alpha virt. eigenvalues --    0.16088   0.19827   0.21677   0.25942   0.26369
 Alpha virt. eigenvalues --    0.27901   0.28342   0.29821   0.31358   0.31796

 Mulliken charges:
               1
     1  C   -0.175034
     2  C   -0.226930
     3  C   -0.173783
     4  C    0.159541
     5  C   -0.170695
     6  C   -0.218010
     7  H    0.226153
     8  H    0.228148
     9  H    0.273135
    10  H    0.277096
    11  H    0.225238
    12  N    0.488079
    13  O   -0.458746
    14  O   -0.460927
    15  C   -0.183449
    16  C   -0.222725
    17  C   -0.171690
    18  C    0.160281
    19  C   -0.169316
    20  C   -0.219087
    21  H    0.228890
    22  H    0.226116
    23  H    0.277738
    24  H    0.279638
    25  H    0.228043
    26  N    0.487844
    27  O   -0.456952
    28  O   -0.458597
 Sum of Mulliken charges =  -0.00000

 Dipole moment (field-independent basis, Debye):
    X=             -0.4669    Y=              0.7256    Z=              2.6659  Tot=              2.8020
 Quadrupole moment (field-independent basis, Debye-Ang):
   XX=           -172.6287   YY=            -96.5221   ZZ=           -104.6173
   XY=             21.2247   XZ=             -6.6725   YZ=              1.7441

 Normal termination of Gaussian 16 at Thu May  6 00:15:46 2021.
