 Gaussian 16, Revision A.03,
 Gaussian 16:  EM64L-G16RevA.03 25-Dec-2016

 -------------
 #p 6-31g* mp2
 -------------

 ------------------------------------------------------
 Input file generated by CHIRIPA (05-May-2021 14:53:17)
 ------------------------------------------------------
 Symbolic Z-matrix:
 Charge =  0 Multiplicity = 1

                         Standard orientation:
 ---------------------------------------------------------------------
 Center     Atomic      Atomic             Coordinates (Angstroms)
 Number     Number       Type             X           Y           Z
 ---------------------------------------------------------------------
      1          6           0       -3.881245    0.268665    0.447062
      2          6           0       -3.282979    1.598340   -0.013402
      3          6           0       -1.912327    1.875536    0.604877
      4          1           0       -3.965311    0.271463    1.542448
      5          1           0       -3.190001   -0.545478    0.188703
      6          1           0       -3.975780    2.409588    0.244511
      7          1           0       -3.200505    1.592451   -1.107833
      8          1           0       -1.202172    1.086550    0.336952
      9          1           0       -1.981852    1.908330    1.696981
     10          1           0       -1.503114    2.831012    0.262137
     11          6           0       -5.251424   -0.022571   -0.162462
     12          6           0       -5.849689   -1.352246    0.298002
     13          6           0       -7.220341   -1.629442   -0.320276
     14          1           0       -5.942667    0.791571    0.095897
     15          1           0       -5.167357   -0.025369   -1.257848
     16          1           0       -5.932163   -1.346358    1.392433
     17          1           0       -5.156888   -2.163495    0.040089
     18          1           0       -7.150816   -1.662236   -1.412381
     19          1           0       -7.930496   -0.840457   -0.052352
     20          1           0       -7.629554   -2.584918    0.022463
     21          6           0        1.774847    1.629631   -0.528609
     22          6           0        1.480737    0.268605   -0.661388
     23          6           0        2.466148   -0.696355   -0.432556
     24          6           0        3.740751   -0.262970   -0.070816
     25          6           0        4.064728    1.085593    0.069556
     26          6           0        3.063632    2.033069   -0.164203
     27          1           0        1.003264    2.372444   -0.708285
     28          1           0        0.480723   -0.047618   -0.944268
     29          1           0        2.265766   -1.756597   -0.528219
     30          1           0        5.070798    1.370190    0.352837
     31          1           0        3.294904    3.089369   -0.060337
     32          7           0        4.792264   -1.275276    0.174047
     33          8           0        5.907419   -0.867604    0.491649
     34          8           0        4.481374   -2.457225    0.043730
 ---------------------------------------------------------------------

 SCF Done:  E(RHF) =  -669.534821680     A.U. after   15 cycles
 E2 =    -0.2091810269D+01 EUMP2 =    -0.67162663194824D+03

 The electronic state is 1-A.
 Alpha  occ. eigenvalues --  -20.60729 -20.60724 -15.85784 -11.31139 -11.27722
 Alpha  occ. eigenvalues --  -11.27718 -11.27414 -11.26714 -11.26703 -11.22529
 Alpha  occ. eigenvalues --  -11.22234 -11.22155 -11.22086 -11.21971 -11.21466
 Alpha  occ. eigenvalues --   -1.59806  -1.39359  -1.19317  -1.09148  -1.08706
 Alpha  occ. eigenvalues --   -1.04727  -1.04268  -0.96741  -0.95539  -0.87764
 Alpha  occ. eigenvalues --   -0.86121  -0.82379  -0.80342  -0.78916  -0.77434
 Alpha  occ. eigenvalues --   -0.72003  -0.71129  -0.70416  -0.65805  -0.64969
 Alpha  occ. eigenvalues --   -0.64758  -0.62146  -0.61599  -0.60145  -0.58320
 Alpha  occ. eigenvalues --   -0.56031  -0.55221  -0.53431  -0.53224  -0.52978
 Alpha  occ. eigenvalues --   -0.52790  -0.50651  -0.48776  -0.48757  -0.48623
 Alpha  occ. eigenvalues --   -0.47358  -0.46464  -0.46369  -0.44767  -0.44513
 Alpha  occ. eigenvalues --   -0.37261  -0.36324
 Alpha virt. eigenvalues --    0.05107   0.11205   0.16582   0.19818   0.22552
 Alpha virt. eigenvalues --    0.23956   0.25133   0.26210   0.26591   0.27547
 Alpha virt. eigenvalues --    0.29170   0.29785   0.31207   0.31504   0.32410

 Mulliken charges:
               1
     1  C   -0.298184
     2  C   -0.300459
     3  C   -0.482009
     4  H    0.152644
     5  H    0.146662
     6  H    0.155766
     7  H    0.150449
     8  H    0.152229
     9  H    0.162716
    10  H    0.154997
    11  C   -0.298811
    12  C   -0.300176
    13  C   -0.476111
    14  H    0.151063
    15  H    0.149738
    16  H    0.153243
    17  H    0.152229
    18  H    0.155515
    19  H    0.155861
    20  H    0.162070
    21  C   -0.169155
    22  C   -0.221128
    23  C   -0.171426
    24  C    0.158074
    25  C   -0.170556
    26  C   -0.219789
    27  H    0.230009
    28  H    0.223483
    29  H    0.275353
    30  H    0.275460
    31  H    0.223326
    32  N    0.488125
    33  O   -0.460568
    34  O   -0.460641
 Sum of Mulliken charges =  -0.00000

 Dipole moment (field-independent basis, Debye):
    X=             -3.9015    Y=              3.5750    Z=             -0.7999  Tot=              5.3519
 Quadrupole moment (field-independent basis, Debye-Ang):
   XX=           -120.7100   YY=            -94.1594   ZZ=            -94.7245
   XY=             16.6935   XZ=             -3.0978   YZ=              1.1723

 Normal termination of Gaussian 16 at Wed May  5 18:46:51 2021.
