 Gaussian 16, Revision A.03,
 Gaussian 16:  EM64L-G16RevA.03 25-Dec-2016

 -------------
 #p 6-31g* mp2
 -------------

 ------------------------------------------------------
 Input file generated by CHIRIPA (05-May-2021 14:57:27)
 ------------------------------------------------------
 Symbolic Z-matrix:
 Charge =  0 Multiplicity = 1

                         Standard orientation:
 ---------------------------------------------------------------------
 Center     Atomic      Atomic             Coordinates (Angstroms)
 Number     Number       Type             X           Y           Z
 ---------------------------------------------------------------------
      1          6           0        1.546453   -0.599165    0.306664
      2          6           0        2.222295   -1.114044   -0.804488
      3          6           0        3.590411   -0.881450   -0.973915
      4          6           0        4.254487   -0.126359   -0.008445
      5          6           0        3.609076    0.400104    1.109397
      6          6           0        2.240777    0.154936    1.258383
      7          1           0        0.483596   -0.784733    0.430340
      8          1           0        1.685635   -1.700036   -1.545200
      9          1           0        4.138285   -1.268161   -1.824625
     10          1           0        4.171037    0.980584    1.830965
     11          1           0        1.718494    0.556044    2.122314
     12          7           0        5.702948    0.126533   -0.176990
     13          8           0        6.265211    0.794864    0.687782
     14          8           0        6.248561   -0.348370   -1.170675
     15          6           0       -4.954752   -2.158525    0.247732
     16          6           0       -3.617700   -1.902169    0.568817
     17          6           0       -3.086753   -0.616911    0.424756
     18          6           0       -3.924986    0.392963   -0.045151
     19          6           0       -5.261167    0.169048   -0.373434
     20          6           0       -5.770780   -1.123922   -0.221541
     21          1           0       -5.358918   -3.159940    0.362684
     22          1           0       -2.981631   -2.703719    0.933479
     23          1           0       -2.055221   -0.390654    0.665938
     24          1           0       -5.870670    0.988468   -0.734648
     25          1           0       -6.809525   -1.320099   -0.471675
     26          7           0       -3.374189    1.757691   -0.201808
     27          8           0       -4.133410    2.630171   -0.617739
     28          8           0       -2.193682    1.929042    0.094302
 ---------------------------------------------------------------------

 SCF Done:  E(RHF) =  -868.337070106     A.U. after   16 cycles
 E2 =    -0.2599502712D+01 EUMP2 =    -0.87093657281800D+03

 The electronic state is 1-A.
 Alpha  occ. eigenvalues --  -20.61564 -20.61535 -20.60611 -20.60604 -15.86607
 Alpha  occ. eigenvalues --  -15.85663 -11.32039 -11.31035 -11.28725 -11.28530
 Alpha  occ. eigenvalues --  -11.28287 -11.27657 -11.27612 -11.27574 -11.27547
 Alpha  occ. eigenvalues --  -11.27446 -11.26672 -11.26604  -1.60622  -1.59685
 Alpha  occ. eigenvalues --   -1.40178  -1.39238  -1.20196  -1.19210  -1.09563
 Alpha  occ. eigenvalues --   -1.08621  -1.05619  -1.04610  -0.96401  -0.95457
 Alpha  occ. eigenvalues --   -0.87006  -0.86017  -0.83238  -0.82285  -0.78297
 Alpha  occ. eigenvalues --   -0.77312  -0.72824  -0.71945  -0.71884  -0.71321
 Alpha  occ. eigenvalues --   -0.71005  -0.70377  -0.65847  -0.65615  -0.64874
 Alpha  occ. eigenvalues --   -0.64621  -0.62989  -0.61957  -0.56090  -0.55199
 Alpha  occ. eigenvalues --   -0.53921  -0.53690  -0.52934  -0.52713  -0.49593
 Alpha  occ. eigenvalues --   -0.49569  -0.48643  -0.48637  -0.45569  -0.44642
 Alpha  occ. eigenvalues --   -0.38142  -0.37221  -0.37198  -0.36196
 Alpha virt. eigenvalues --    0.04254   0.05216   0.10426   0.11457   0.15762
 Alpha virt. eigenvalues --    0.16686   0.18353   0.21890   0.24783   0.27045
 Alpha virt. eigenvalues --    0.27491   0.29237   0.30473   0.30883   0.32664

 Mulliken charges:
               1
     1  C   -0.167069
     2  C   -0.219760
     3  C   -0.170634
     4  C    0.158834
     5  C   -0.170614
     6  C   -0.217686
     7  H    0.220332
     8  H    0.221818
     9  H    0.275151
    10  H    0.276258
    11  H    0.225899
    12  N    0.487999
    13  O   -0.460031
    14  O   -0.460906
    15  C   -0.170398
    16  C   -0.220033
    17  C   -0.178672
    18  C    0.160180
    19  C   -0.169454
    20  C   -0.217986
    21  H    0.228381
    22  H    0.222427
    23  H    0.273512
    24  H    0.278253
    25  H    0.226669
    26  N    0.487313
    27  O   -0.455971
    28  O   -0.463812
 Sum of Mulliken charges =  -0.00000

 Dipole moment (field-independent basis, Debye):
    X=             -7.2850    Y=             -5.6268    Z=              1.1218  Tot=              9.2731
 Quadrupole moment (field-independent basis, Debye-Ang):
   XX=           -128.1935   YY=           -107.5040   ZZ=           -101.6931
   XY=             13.7782   XZ=              2.4605   YZ=              2.3640

 Normal termination of Gaussian 16 at Fri May  7 11:15:54 2021.
