 Gaussian 16, Revision A.03,
 Gaussian 16:  EM64L-G16RevA.03 25-Dec-2016

 -------------
 #p 6-31g* mp2
 -------------

 ------------------------------------------------------
 Input file generated by CHIRIPA (05-May-2021 14:51:08)
 ------------------------------------------------------
 Symbolic Z-matrix:
 Charge =  0 Multiplicity = 1

                         Standard orientation:
 ---------------------------------------------------------------------
 Center     Atomic      Atomic             Coordinates (Angstroms)
 Number     Number       Type             X           Y           Z
 ---------------------------------------------------------------------
      1          6           0       -3.101140   -0.021129    1.066856
      2          6           0       -1.643350    0.427840    0.960740
      3          6           0       -1.016956    0.729113    2.322599
      4          1           0       -3.682780    0.760320    1.574772
      5          1           0       -3.156733   -0.915379    1.702955
      6          1           0       -1.590357    1.320167    0.323904
      7          1           0       -1.065151   -0.354686    0.452847
      8          1           0       -1.040445   -0.158989    2.962383
      9          1           0       -1.568635    1.525380    2.832707
     10          1           0        0.025226    1.048284    2.223367
     11          6           0       -3.741170   -0.326011   -0.286339
     12          6           0       -5.198960   -0.774980   -0.180224
     13          6           0       -5.825354   -1.076253   -1.542082
     14          1           0       -3.685577    0.568239   -0.922438
     15          1           0       -3.159530   -1.107459   -0.794255
     16          1           0       -5.777159    0.007546    0.327669
     17          1           0       -5.251952   -1.667307    0.456612
     18          1           0       -5.273674   -1.872519   -2.052190
     19          1           0       -5.801865   -0.188150   -2.181866
     20          1           0       -6.867536   -1.395424   -1.442850
     21          6           0        3.259550    0.909239   -0.517172
     22          6           0        1.765801    1.178868   -0.701567
     23          6           0        1.458384    2.655097   -0.954616
     24          1           0        3.633689    1.512164    0.321545
     25          1           0        3.799547    1.249069   -1.411773
     26          1           0        1.228624    0.837365    0.192543
     27          1           0        1.395134    0.575086   -1.539821
     28          1           0        1.968429    3.005501   -1.857761
     29          1           0        1.800974    3.269271   -0.115555
     30          1           0        0.384943    2.825269   -1.083555
     31          6           0        3.582761   -0.562099   -0.263346
     32          6           0        5.076509   -0.831728   -0.078949
     33          6           0        5.383925   -2.307958    0.174100
     34          1           0        3.042762   -0.901929    0.631256
     35          1           0        3.208621   -1.165024   -1.102062
     36          1           0        5.447177   -0.227946    0.759304
     37          1           0        5.613686   -0.490225   -0.973060
     38          1           0        5.041335   -2.922131   -0.664962
     39          1           0        4.873880   -2.658362    1.077245
     40          1           0        6.457367   -2.478130    0.303039
 ---------------------------------------------------------------------

 SCF Done:  E(RHF) =  -470.732624072     A.U. after   11 cycles
 E2 =    -0.1583712264D+01 EUMP2 =    -0.47231633633569D+03

 The electronic state is 1-A.
 Alpha  occ. eigenvalues --  -11.21605 -11.21592 -11.21590 -11.21496 -11.21408
 Alpha  occ. eigenvalues --  -11.21382 -11.21349 -11.21317 -11.21107 -11.21074
 Alpha  occ. eigenvalues --  -11.21066 -11.21047  -1.08458  -1.08386  -1.03601
 Alpha  occ. eigenvalues --   -1.03451  -0.96025  -0.95935  -0.87018  -0.86970
 Alpha  occ. eigenvalues --   -0.79686  -0.79505  -0.78338  -0.78122  -0.65076
 Alpha  occ. eigenvalues --   -0.65049  -0.60993  -0.60940  -0.59553  -0.59152
 Alpha  occ. eigenvalues --   -0.57769  -0.57367  -0.55285  -0.55235  -0.52717
 Alpha  occ. eigenvalues --   -0.52639  -0.52459  -0.52359  -0.49934  -0.49891
 Alpha  occ. eigenvalues --   -0.47953  -0.47861  -0.46653  -0.46550  -0.45902
 Alpha  occ. eigenvalues --   -0.45731  -0.45694  -0.45539  -0.43800  -0.43754
 Alpha virt. eigenvalues --    0.21016   0.23090   0.23507   0.24988   0.25903
 Alpha virt. eigenvalues --    0.26448   0.26648   0.27548   0.28084   0.29143
 Alpha virt. eigenvalues --    0.30234   0.31110   0.31295   0.31853   0.32615

 Mulliken charges:
               1
     1  C   -0.298083
     2  C   -0.302882
     3  C   -0.480095
     4  H    0.149503
     5  H    0.149476
     6  H    0.154538
     7  H    0.153860
     8  H    0.155354
     9  H    0.155852
    10  H    0.162248
    11  C   -0.298255
    12  C   -0.299666
    13  C   -0.475707
    14  H    0.149323
    15  H    0.149787
    16  H    0.151948
    17  H    0.151949
    18  H    0.155181
    19  H    0.155175
    20  H    0.160273
    21  C   -0.297687
    22  C   -0.308767
    23  C   -0.477062
    24  H    0.149014
    25  H    0.149249
    26  H    0.163732
    27  H    0.151529
    28  H    0.155128
    29  H    0.154630
    30  H    0.161057
    31  C   -0.298312
    32  C   -0.299559
    33  C   -0.475712
    34  H    0.149116
    35  H    0.149479
    36  H    0.151947
    37  H    0.151976
    38  H    0.155081
    39  H    0.155141
    40  H    0.160242
 Sum of Mulliken charges =   0.00000

 Dipole moment (field-independent basis, Debye):
    X=             -0.0247    Y=             -0.0070    Z=              0.0058  Tot=              0.0263
 Quadrupole moment (field-independent basis, Debye-Ang):
   XX=            -85.3176   YY=            -84.9665   ZZ=            -84.6469
   XY=             -0.1059   XZ=             -0.6584   YZ=              0.0674

 Normal termination of Gaussian 16 at Thu May  6 00:30:54 2021.
