 Gaussian 16, Revision A.03,
 Gaussian 16:  EM64L-G16RevA.03 25-Dec-2016

 -------------
 #p 6-31g* mp2
 -------------

 ------------------------------------------------------
 Input file generated by CHIRIPA (05-May-2021 14:53:13)
 ------------------------------------------------------
 Symbolic Z-matrix:
 Charge =  0 Multiplicity = 1

                         Standard orientation:
 ---------------------------------------------------------------------
 Center     Atomic      Atomic             Coordinates (Angstroms)
 Number     Number       Type             X           Y           Z
 ---------------------------------------------------------------------
      1          6           0        3.933313   -0.230458    0.197258
      2          6           0        4.334756   -1.525436   -0.509749
      3          6           0        5.296513   -2.377662    0.318821
      4          1           0        4.837269    0.350823    0.425121
      5          1           0        3.468484   -0.476536    1.162025
      6          1           0        4.797437   -1.277038   -1.473513
      7          1           0        3.429726   -2.103612   -0.736127
      8          1           0        4.840252   -2.654262    1.274812
      9          1           0        6.215734   -1.822991    0.533236
     10          1           0        5.570402   -3.298537   -0.205424
     11          6           0        2.972103    0.632269   -0.618528
     12          6           0        2.570660    1.927247    0.088479
     13          6           0        1.608904    2.779473   -0.740091
     14          1           0        3.436932    0.878347   -1.583295
     15          1           0        2.068148    0.050988   -0.846391
     16          1           0        3.475691    2.505424    0.314857
     17          1           0        2.107980    1.678849    1.052243
     18          1           0        0.689682    2.224802   -0.954506
     19          1           0        2.065165    3.056073   -1.696082
     20          1           0        1.335015    3.700348   -0.215846
     21          6           0       -1.628719    2.056598    0.733730
     22          6           0       -1.073530    0.866704    1.215847
     23          6           0       -1.657246   -0.365500    0.906820
     24          6           0       -2.800747   -0.370956    0.109533
     25          6           0       -3.377507    0.797447   -0.385919
     26          6           0       -2.776912    2.018239   -0.064207
     27          1           0       -1.168719    3.009371    0.978717
     28          1           0       -0.181873    0.893463    1.835747
     29          1           0       -1.248271   -1.301781    1.266729
     30          1           0       -4.266815    0.738844   -1.001642
     31          1           0       -3.210263    2.940744   -0.440023
     32          7           0       -3.427636   -1.669395   -0.224334
     33          8           0       -4.434674   -1.647245   -0.928622
     34          8           0       -2.900083   -2.684673    0.224590
 ---------------------------------------------------------------------

 SCF Done:  E(RHF) =  -669.534545339     A.U. after   15 cycles
 E2 =    -0.2093210576D+01 EUMP2 =    -0.67162775591539D+03

 The electronic state is 1-A.
 Alpha  occ. eigenvalues --  -20.60796 -20.60791 -15.85852 -11.31222 -11.27814
 Alpha  occ. eigenvalues --  -11.27810 -11.27518 -11.26800 -11.26789 -11.22429
 Alpha  occ. eigenvalues --  -11.21958 -11.21927 -11.21853 -11.21796 -11.21324
 Alpha  occ. eigenvalues --   -1.59872  -1.39426  -1.19414  -1.08999  -1.08790
 Alpha  occ. eigenvalues --   -1.04819  -1.04075  -0.96528  -0.95622  -0.87540
 Alpha  occ. eigenvalues --   -0.86210  -0.82462  -0.80159  -0.78768  -0.77509
 Alpha  occ. eigenvalues --   -0.72070  -0.71197  -0.70517  -0.65700  -0.65057
 Alpha  occ. eigenvalues --   -0.64777  -0.62202  -0.61430  -0.59918  -0.58123
 Alpha  occ. eigenvalues --   -0.55879  -0.55282  -0.53274  -0.53145  -0.52928
 Alpha  occ. eigenvalues --   -0.52836  -0.50419  -0.48834  -0.48823  -0.48451
 Alpha  occ. eigenvalues --   -0.47184  -0.46309  -0.46221  -0.44830  -0.44333
 Alpha  occ. eigenvalues --   -0.37305  -0.36421
 Alpha virt. eigenvalues --    0.05016   0.11146   0.16450   0.19551   0.22810
 Alpha virt. eigenvalues --    0.24120   0.24951   0.26443   0.26656   0.28445
 Alpha virt. eigenvalues --    0.28966   0.29728   0.31130   0.31636   0.32153

 Mulliken charges:
               1
     1  C   -0.297896
     2  C   -0.300564
     3  C   -0.475958
     4  H    0.150642
     5  H    0.145485
     6  H    0.153274
     7  H    0.154355
     8  H    0.155056
     9  H    0.155161
    10  H    0.162641
    11  C   -0.300330
    12  C   -0.299075
    13  C   -0.484131
    14  H    0.152661
    15  H    0.152577
    16  H    0.155135
    17  H    0.140938
    18  H    0.165162
    19  H    0.159436
    20  H    0.151322
    21  C   -0.169909
    22  C   -0.220459
    23  C   -0.172142
    24  C    0.158211
    25  C   -0.170490
    26  C   -0.220027
    27  H    0.229374
    28  H    0.226716
    29  H    0.275629
    30  H    0.275907
    31  H    0.224037
    32  N    0.488126
    33  O   -0.460312
    34  O   -0.460551
 Sum of Mulliken charges =  -0.00000

 Dipole moment (field-independent basis, Debye):
    X=              2.2531    Y=              4.5272    Z=              1.0771  Tot=              5.1703
 Quadrupole moment (field-independent basis, Debye-Ang):
   XX=           -104.5112   YY=            -97.9317   ZZ=            -93.7437
   XY=            -15.1093   XZ=             -1.8589   YZ=             -1.3039

 Normal termination of Gaussian 16 at Thu May  6 07:20:45 2021.
