 Gaussian 16, Revision A.03,
 Gaussian 16:  EM64L-G16RevA.03 25-Dec-2016

 -------------
 #p 6-31g* mp2
 -------------

 ------------------------------------------------------
 Input file generated by CHIRIPA (05-May-2021 14:53:16)
 ------------------------------------------------------
 Symbolic Z-matrix:
 Charge =  0 Multiplicity = 1

                         Standard orientation:
 ---------------------------------------------------------------------
 Center     Atomic      Atomic             Coordinates (Angstroms)
 Number     Number       Type             X           Y           Z
 ---------------------------------------------------------------------
      1          6           0        4.126696   -0.093419    0.252657
      2          6           0        5.360476    0.611663   -0.311816
      3          6           0        6.474525    0.772656    0.722965
      4          1           0        3.749636    0.474622    1.114109
      5          1           0        4.419902   -1.081404    0.633852
      6          1           0        5.064774    1.597466   -0.693089
      7          1           0        5.734529    0.041980   -1.172143
      8          1           0        6.797754   -0.204484    1.096223
      9          1           0        6.124193    1.359840    1.578000
     10          1           0        7.346866    1.279080    0.298211
     11          6           0        3.004290   -0.261781   -0.769883
     12          6           0        1.770509   -0.966863   -0.205410
     13          6           0        0.656461   -1.127856   -1.240191
     14          1           0        2.711084    0.726205   -1.151078
     15          1           0        3.381349   -0.829822   -1.631335
     16          1           0        1.396456   -0.397180    0.654917
     17          1           0        2.066211   -1.952666    0.175863
     18          1           0        1.006792   -1.715040   -2.095225
     19          1           0        0.333232   -0.150716   -1.613449
     20          1           0       -0.215880   -1.634280   -0.815437
     21          6           0       -2.506253   -2.334476    0.615653
     22          6           0       -2.990347   -1.880978   -0.615814
     23          6           0       -3.149126   -0.512906   -0.856057
     24          6           0       -2.812542    0.377852    0.162054
     25          6           0       -2.327850   -0.042952    1.399507
     26          6           0       -2.177129   -1.415636    1.617617
     27          1           0       -2.386040   -3.399019    0.793683
     28          1           0       -3.246751   -2.592277   -1.395787
     29          1           0       -3.521798   -0.134446   -1.800145
     30          1           0       -2.080704    0.690182    2.157695
     31          1           0       -1.800956   -1.764959    2.574964
     32          7           0       -2.976368    1.828609   -0.080564
     33          8           0       -2.672703    2.593042    0.832710
     34          8           0       -3.405338    2.173811   -1.179408
 ---------------------------------------------------------------------

 SCF Done:  E(RHF) =  -669.534208669     A.U. after   15 cycles
 E2 =    -0.2093906475D+01 EUMP2 =    -0.67162811514407D+03

 The electronic state is 1-A.
 Alpha  occ. eigenvalues --  -20.60844 -20.60839 -15.85897 -11.31294 -11.27873
 Alpha  occ. eigenvalues --  -11.27826 -11.27567 -11.26882 -11.26829 -11.21656
 Alpha  occ. eigenvalues --  -11.21586 -11.21410 -11.21345 -11.21066 -11.20899
 Alpha  occ. eigenvalues --   -1.59919  -1.39471  -1.19472  -1.08867  -1.08432
 Alpha  occ. eigenvalues --   -1.04864  -1.03524  -0.95967  -0.95686  -0.86992
 Alpha  occ. eigenvalues --   -0.86260  -0.82509  -0.79605  -0.78256  -0.77553
 Alpha  occ. eigenvalues --   -0.72114  -0.71242  -0.70565  -0.65112  -0.65066
 Alpha  occ. eigenvalues --   -0.64859  -0.62203  -0.60933  -0.59460  -0.57668
 Alpha  occ. eigenvalues --   -0.55362  -0.55286  -0.53736  -0.52948  -0.52461
 Alpha  occ. eigenvalues --   -0.51886  -0.49899  -0.48876  -0.48868  -0.47907
 Alpha  occ. eigenvalues --   -0.46643  -0.45796  -0.45724  -0.44869  -0.43778
 Alpha  occ. eigenvalues --   -0.37381  -0.36426
 Alpha virt. eigenvalues --    0.04951   0.11155   0.16414   0.21317   0.22854
 Alpha virt. eigenvalues --    0.24344   0.26585   0.27124   0.27575   0.28036
 Alpha virt. eigenvalues --    0.28256   0.30887   0.31349   0.31877   0.32415

 Mulliken charges:
               1
     1  C   -0.298141
     2  C   -0.299809
     3  C   -0.475733
     4  H    0.149680
     5  H    0.147533
     6  H    0.153733
     7  H    0.151553
     8  H    0.154134
     9  H    0.155517
    10  H    0.160661
    11  C   -0.298597
    12  C   -0.297724
    13  C   -0.484800
    14  H    0.152617
    15  H    0.148913
    16  H    0.149924
    17  H    0.146870
    18  H    0.150613
    19  H    0.156013
    20  H    0.168905
    21  C   -0.175938
    22  C   -0.218935
    23  C   -0.167247
    24  C    0.160939
    25  C   -0.171287
    26  C   -0.214624
    27  H    0.226545
    28  H    0.224548
    29  H    0.276198
    30  H    0.276033
    31  H    0.224510
    32  N    0.487654
    33  O   -0.460337
    34  O   -0.459922
 Sum of Mulliken charges =  -0.00000

 Dipole moment (field-independent basis, Debye):
    X=              0.4180    Y=             -5.0786    Z=              0.8758  Tot=              5.1705
 Quadrupole moment (field-independent basis, Debye-Ang):
   XX=            -98.8137   YY=            -98.2992   ZZ=            -90.6980
   XY=             14.8804   XZ=             -1.1825   YZ=              0.5533

 Normal termination of Gaussian 16 at Wed May  5 17:10:55 2021.
