 Gaussian 16, Revision A.03,
 Gaussian 16:  EM64L-G16RevA.03 25-Dec-2016

 -------------
 #p 6-31g* mp2
 -------------

 ------------------------------------------------------
 Input file generated by CHIRIPA (05-May-2021 14:53:17)
 ------------------------------------------------------
 Symbolic Z-matrix:
 Charge =  0 Multiplicity = 1

                         Standard orientation:
 ---------------------------------------------------------------------
 Center     Atomic      Atomic             Coordinates (Angstroms)
 Number     Number       Type             X           Y           Z
 ---------------------------------------------------------------------
      1          6           0       -3.534164   -0.940760    0.362767
      2          6           0       -2.030464   -0.924670    0.639557
      3          6           0       -1.468750   -2.315816    0.934486
      4          1           0       -4.055278   -1.372230    1.228341
      5          1           0       -3.736298   -1.606669   -0.487588
      6          1           0       -1.831078   -0.257912    1.488260
      7          1           0       -1.512885   -0.493011   -0.226698
      8          1           0       -1.638615   -2.987521    0.086808
      9          1           0       -1.958616   -2.751087    1.811510
     10          1           0       -0.392345   -2.281099    1.129443
     11          6           0       -4.110403    0.442616    0.066209
     12          6           0       -5.614103    0.426525   -0.210581
     13          6           0       -6.175818    1.817671   -0.505510
     14          1           0       -3.908270    1.108524    0.916563
     15          1           0       -3.589289    0.874086   -0.799365
     16          1           0       -6.131682   -0.005133    0.655674
     17          1           0       -5.813489   -0.240233   -1.059284
     18          1           0       -5.685952    2.252942   -1.382535
     19          1           0       -6.005952    2.489377    0.342168
     20          1           0       -7.252222    1.782954   -0.700467
     21          6           0        2.402256   -2.194924   -0.729005
     22          6           0        3.676929   -1.880688   -0.246320
     23          6           0        4.011487   -0.560151    0.068003
     24          6           0        3.042608    0.425597   -0.113291
     25          6           0        1.764084    0.144175   -0.592318
     26          6           0        1.451578   -1.183273   -0.900162
     27          1           0        2.150929   -3.223434   -0.970663
     28          1           0        4.417244   -2.664298   -0.112401
     29          1           0        4.990764   -0.288944    0.443345
     30          1           0        1.047244    0.946937   -0.715322
     31          1           0        0.460861   -1.424386   -1.274848
     32          7           0        3.385118    1.827249    0.216039
     33          8           0        2.513686    2.677440    0.047460
     34          8           0        4.518523    2.049133    0.636512
 ---------------------------------------------------------------------

 SCF Done:  E(RHF) =  -669.534590891     A.U. after   15 cycles
 E2 =    -0.2092905316D+01 EUMP2 =    -0.67162749620779D+03

 The electronic state is 1-A.
 Alpha  occ. eigenvalues --  -20.60753 -20.60748 -15.85805 -11.31178 -11.27736
 Alpha  occ. eigenvalues --  -11.27719 -11.27470 -11.26764 -11.26706 -11.22371
 Alpha  occ. eigenvalues --  -11.21939 -11.21904 -11.21794 -11.21761 -11.21268
 Alpha  occ. eigenvalues --   -1.59828  -1.39381  -1.19350  -1.08945  -1.08738
 Alpha  occ. eigenvalues --   -1.04767  -1.04031  -0.96477  -0.95574  -0.87498
 Alpha  occ. eigenvalues --   -0.86140  -0.82414  -0.80125  -0.78724  -0.77453
 Alpha  occ. eigenvalues --   -0.72024  -0.71151  -0.70447  -0.65655  -0.64996
 Alpha  occ. eigenvalues --   -0.64748  -0.62246  -0.61320  -0.59834  -0.58076
 Alpha  occ. eigenvalues --   -0.55781  -0.55224  -0.53367  -0.53035  -0.52858
 Alpha  occ. eigenvalues --   -0.52643  -0.50431  -0.48781  -0.48779  -0.48425
 Alpha  occ. eigenvalues --   -0.47177  -0.46264  -0.46168  -0.44785  -0.44280
 Alpha  occ. eigenvalues --   -0.37310  -0.36313
 Alpha virt. eigenvalues --    0.05061   0.11246   0.16505   0.19947   0.22806
 Alpha virt. eigenvalues --    0.24055   0.25351   0.26401   0.27169   0.28575
 Alpha virt. eigenvalues --    0.28765   0.30070   0.31075   0.31381   0.32308

 Mulliken charges:
               1
     1  C   -0.297906
     2  C   -0.301595
     3  C   -0.484159
     4  H    0.152471
     5  H    0.148051
     6  H    0.159402
     7  H    0.140896
     8  H    0.148463
     9  H    0.160445
    10  H    0.166281
    11  C   -0.298895
    12  C   -0.300041
    13  C   -0.476110
    14  H    0.152805
    15  H    0.148637
    16  H    0.152732
    17  H    0.151380
    18  H    0.155842
    19  H    0.156928
    20  H    0.161107
    21  C   -0.173268
    22  C   -0.218411
    23  C   -0.171264
    24  C    0.158351
    25  C   -0.172534
    26  C   -0.217424
    27  H    0.226242
    28  H    0.223455
    29  H    0.275527
    30  H    0.275882
    31  H    0.229385
    32  N    0.488144
    33  O   -0.460281
    34  O   -0.460537
 Sum of Mulliken charges =  -0.00000

 Dipole moment (field-independent basis, Debye):
    X=             -1.3052    Y=             -4.9045    Z=             -1.0745  Tot=              5.1877
 Quadrupole moment (field-independent basis, Debye-Ang):
   XX=            -97.7805   YY=           -100.0841   ZZ=            -93.8580
   XY=            -16.9478   XZ=             -2.5332   YZ=             -0.0662

 Normal termination of Gaussian 16 at Wed May  5 15:45:54 2021.
