 Gaussian 16, Revision A.03,
 Gaussian 16:  EM64L-G16RevA.03 25-Dec-2016

 -------------
 #p 6-31g* mp2
 -------------

 ------------------------------------------------------
 Input file generated by CHIRIPA (05-May-2021 14:51:09)
 ------------------------------------------------------
 Symbolic Z-matrix:
 Charge =  0 Multiplicity = 1

                         Standard orientation:
 ---------------------------------------------------------------------
 Center     Atomic      Atomic             Coordinates (Angstroms)
 Number     Number       Type             X           Y           Z
 ---------------------------------------------------------------------
      1          6           0       -3.413082   -0.643732   -0.086601
      2          6           0       -4.518294   -1.692438   -0.215849
      3          6           0       -3.994904   -3.122647   -0.080349
      4          1           0       -2.648249   -0.829955   -0.852954
      5          1           0       -2.916264   -0.762729    0.886233
      6          1           0       -5.013791   -1.570607   -1.187578
      7          1           0       -5.280681   -1.503582    0.550777
      8          1           0       -3.518125   -3.267655    0.894461
      9          1           0       -3.249719   -3.335061   -0.853771
     10          1           0       -4.801602   -3.856108   -0.175921
     11          6           0       -3.920694    0.790947   -0.219851
     12          6           0       -2.815482    1.839654   -0.090603
     13          6           0       -3.338873    3.269862   -0.226104
     14          1           0       -4.417512    0.909944   -1.192686
     15          1           0       -4.685528    0.977170    0.546501
     16          1           0       -2.053096    1.650797   -0.857230
     17          1           0       -2.319985    1.717822    0.881125
     18          1           0       -4.084057    3.482276    0.547318
     19          1           0       -3.815652    3.414870   -1.200914
     20          1           0       -2.532175    4.003323   -0.130531
     21          6           0        4.345834    0.258837    0.043937
     22          6           0        5.446406   -0.725912   -0.352293
     23          6           0        6.798798   -0.045800   -0.567411
     24          1           0        4.251688    1.026895   -0.735916
     25          1           0        4.644723    0.781610    0.963049
     26          1           0        5.144915   -1.247668   -1.269622
     27          1           0        5.537813   -1.491825    0.428500
     28          1           0        7.125439    0.459962    0.346980
     29          1           0        6.730309    0.705506   -1.360791
     30          1           0        7.570998   -0.768120   -0.849933
     31          6           0        2.987942   -0.406052    0.262516
     32          6           0        1.887371    0.578696    0.658745
     33          6           0        0.534979   -0.101416    0.873864
     34          1           0        2.689054   -0.928826   -0.656596
     35          1           0        3.082089   -1.174111    1.042368
     36          1           0        1.795964    1.344609   -0.122048
     37          1           0        2.188862    1.100452    1.576074
     38          1           0        0.603468   -0.852722    1.667243
     39          1           0        0.208337   -0.607177   -0.040527
     40          1           0       -0.237222    0.620905    1.156386
 ---------------------------------------------------------------------

 SCF Done:  E(RHF) =  -470.732757265     A.U. after   11 cycles
 E2 =    -0.1583242653D+01 EUMP2 =    -0.47231599991731D+03

 The electronic state is 1-A.
 Alpha  occ. eigenvalues --  -11.21585 -11.21582 -11.21564 -11.21539 -11.21372
 Alpha  occ. eigenvalues --  -11.21371 -11.21311 -11.21298 -11.21066 -11.21057
 Alpha  occ. eigenvalues --  -11.21038 -11.20919  -1.08418  -1.08378  -1.03523
 Alpha  occ. eigenvalues --   -1.03470  -0.95959  -0.95926  -0.86984  -0.86940
 Alpha  occ. eigenvalues --   -0.79624  -0.79522  -0.78255  -0.78149  -0.65054
 Alpha  occ. eigenvalues --   -0.65010  -0.60919  -0.60879  -0.59481  -0.59170
 Alpha  occ. eigenvalues --   -0.57630  -0.57478  -0.55253  -0.55207  -0.52799
 Alpha  occ. eigenvalues --   -0.52526  -0.52462  -0.52262  -0.49905  -0.49871
 Alpha  occ. eigenvalues --   -0.48043  -0.47702  -0.46611  -0.46603  -0.45807
 Alpha  occ. eigenvalues --   -0.45715  -0.45693  -0.45600  -0.43782  -0.43620
 Alpha virt. eigenvalues --    0.21865   0.23079   0.23829   0.24478   0.25491
 Alpha virt. eigenvalues --    0.26139   0.26904   0.27544   0.27974   0.29658
 Alpha virt. eigenvalues --    0.30159   0.31206   0.31491   0.31905   0.32097

 Mulliken charges:
               1
     1  C   -0.299716
     2  C   -0.299788
     3  C   -0.475508
     4  H    0.150320
     5  H    0.152394
     6  H    0.151580
     7  H    0.151704
     8  H    0.155439
     9  H    0.154943
    10  H    0.160014
    11  C   -0.298293
    12  C   -0.302876
    13  C   -0.475255
    14  H    0.149223
    15  H    0.149315
    16  H    0.153306
    17  H    0.154233
    18  H    0.155053
    19  H    0.155107
    20  H    0.160076
    21  C   -0.298146
    22  C   -0.299581
    23  C   -0.475670
    24  H    0.149472
    25  H    0.149426
    26  H    0.151826
    27  H    0.151912
    28  H    0.155146
    29  H    0.155111
    30  H    0.160177
    31  C   -0.298358
    32  C   -0.300056
    33  C   -0.480632
    34  H    0.149204
    35  H    0.149561
    36  H    0.151506
    37  H    0.151288
    38  H    0.153468
    39  H    0.155842
    40  H    0.167233
 Sum of Mulliken charges =  -0.00000

 Dipole moment (field-independent basis, Debye):
    X=             -0.0310    Y=              0.0051    Z=              0.0043  Tot=              0.0318
 Quadrupole moment (field-independent basis, Debye-Ang):
   XX=            -86.0203   YY=            -86.1427   ZZ=            -82.7970
   XY=             -0.1559   XZ=              0.2085   YZ=              0.0461

 Normal termination of Gaussian 16 at Wed May  5 22:59:13 2021.
