 Gaussian 16, Revision A.03,
 Gaussian 16:  EM64L-G16RevA.03 25-Dec-2016

 -------------
 #p 6-31g* mp2
 -------------

 ------------------------------------------------------
 Input file generated by CHIRIPA (05-May-2021 14:55:22)
 ------------------------------------------------------
 Symbolic Z-matrix:
 Charge =  0 Multiplicity = 1

                         Standard orientation:
 ---------------------------------------------------------------------
 Center     Atomic      Atomic             Coordinates (Angstroms)
 Number     Number       Type             X           Y           Z
 ---------------------------------------------------------------------
      1          6           0        4.903796    0.181481   -0.879597
      2          6           0        4.369759    1.003694    0.118046
      3          6           0        3.148197    0.687657    0.720087
      4          6           0        2.484482   -0.463363    0.298275
      5          6           0        2.990642   -1.302565   -0.693104
      6          6           0        4.213750   -0.966999   -1.281280
      7          1           0        5.853336    0.434572   -1.341891
      8          1           0        4.903457    1.896245    0.431996
      9          1           0        2.711896    1.306530    1.494720
     10          1           0        2.435434   -2.185715   -0.985009
     11          1           0        4.626094   -1.607391   -2.055822
     12          7           0        1.190451   -0.808275    0.928290
     13          8           0        0.625296   -1.827887    0.538896
     14          8           0        0.765846   -0.052473    1.799560
     15          6           0       -3.520563   -0.240436   -0.238895
     16          6           0       -4.972287   -0.720517   -0.236634
     17          6           0       -5.090829   -2.244767   -0.216572
     18          1           0       -3.003191   -0.661394   -1.111860
     19          1           0       -3.009068   -0.637262    0.648966
     20          1           0       -5.481265   -0.321766   -1.123514
     21          1           0       -5.486313   -0.298211    0.636321
     22          1           0       -4.608102   -2.657002    0.675412
     23          1           0       -4.603025   -2.680691   -1.094421
     24          1           0       -6.137063   -2.566096   -0.215273
     25          6           0       -3.385688    1.281121   -0.258874
     26          6           0       -1.933964    1.761202   -0.261136
     27          6           0       -1.815422    3.285453   -0.281197
     28          1           0       -3.897183    1.677947   -1.146735
     29          1           0       -3.903059    1.702080    0.614090
     30          1           0       -1.419938    1.338897   -1.134091
     31          1           0       -1.424986    1.362452    0.625744
     32          1           0       -2.303226    3.721376    0.596651
     33          1           0       -2.298149    3.697687   -1.173183
     34          1           0       -0.769187    3.606781   -0.282496
 ---------------------------------------------------------------------

 SCF Done:  E(RHF) =  -669.536466661     A.U. after   15 cycles
 E2 =    -0.2091448511D+01 EUMP2 =    -0.67162791517190D+03

 The electronic state is 1-A.
 Alpha  occ. eigenvalues --  -20.60964 -20.60958 -15.85978 -11.31289 -11.27850
 Alpha  occ. eigenvalues --  -11.27847 -11.27588 -11.26856 -11.26847 -11.20670
 Alpha  occ. eigenvalues --  -11.20496 -11.20386 -11.20347 -11.20185 -11.20180
 Alpha  occ. eigenvalues --   -1.60009  -1.39568  -1.19455  -1.08862  -1.07400
 Alpha  occ. eigenvalues --   -1.04851  -1.02592  -0.95706  -0.95062  -0.86252
 Alpha  occ. eigenvalues --   -0.86081  -0.82543  -0.78646  -0.77597  -0.77183
 Alpha  occ. eigenvalues --   -0.72205  -0.71310  -0.70566  -0.65113  -0.64855
 Alpha  occ. eigenvalues --   -0.64027  -0.62199  -0.59989  -0.58437  -0.56667
 Alpha  occ. eigenvalues --   -0.55357  -0.54352  -0.53182  -0.52943  -0.51798
 Alpha  occ. eigenvalues --   -0.51484  -0.49037  -0.48963  -0.48948  -0.46988
 Alpha  occ. eigenvalues --   -0.45734  -0.45006  -0.44755  -0.44430  -0.42825
 Alpha  occ. eigenvalues --   -0.37431  -0.36451
 Alpha virt. eigenvalues --    0.04895   0.11203   0.16371   0.21327   0.23883
 Alpha virt. eigenvalues --    0.25162   0.27249   0.27711   0.28086   0.28689
 Alpha virt. eigenvalues --    0.28890   0.30909   0.32207   0.32337   0.32732

 Mulliken charges:
               1
     1  C   -0.170547
     2  C   -0.218581
     3  C   -0.170640
     4  C    0.158926
     5  C   -0.170829
     6  C   -0.218595
     7  H    0.225994
     8  H    0.223851
     9  H    0.275787
    10  H    0.275816
    11  H    0.223792
    12  N    0.488999
    13  O   -0.458599
    14  O   -0.460318
    15  C   -0.300304
    16  C   -0.299211
    17  C   -0.474988
    18  H    0.148191
    19  H    0.164348
    20  H    0.147591
    21  H    0.149995
    22  H    0.158883
    23  H    0.154012
    24  H    0.155958
    25  C   -0.297125
    26  C   -0.310813
    27  C   -0.473649
    28  H    0.143877
    29  H    0.147835
    30  H    0.144716
    31  H    0.176188
    32  H    0.154478
    33  H    0.151075
    34  H    0.153887
 Sum of Mulliken charges =  -0.00000

 Dipole moment (field-independent basis, Debye):
    X=              4.8040    Y=              1.0459    Z=             -2.0606  Tot=              5.3309
 Quadrupole moment (field-independent basis, Debye-Ang):
   XX=            -73.6406   YY=            -94.6001   ZZ=            -93.9945
   XY=              1.2684   XZ=             -4.6112   YZ=              4.3678

 Normal termination of Gaussian 16 at Thu May  6 17:34:57 2021.
