 Gaussian 16, Revision A.03,
 Gaussian 16:  EM64L-G16RevA.03 25-Dec-2016

 -------------
 #p 6-31g* mp2
 -------------

 ------------------------------------------------------
 Input file generated by CHIRIPA (05-May-2021 14:57:23)
 ------------------------------------------------------
 Symbolic Z-matrix:
 Charge =  0 Multiplicity = 1

                         Standard orientation:
 ---------------------------------------------------------------------
 Center     Atomic      Atomic             Coordinates (Angstroms)
 Number     Number       Type             X           Y           Z
 ---------------------------------------------------------------------
      1          6           0        0.863521    2.835015   -0.042114
      2          6           0        1.493069    2.246601   -1.143912
      3          6           0        2.147259    1.017770   -1.015237
      4          6           0        2.152377    0.402313    0.235554
      5          6           0        1.534261    0.963205    1.352077
      6          6           0        0.886087    2.192572    1.200174
      7          1           0        0.357667    3.789809   -0.151094
      8          1           0        1.477151    2.743253   -2.109897
      9          1           0        2.642680    0.539862   -1.851646
     10          1           0        1.567052    0.444118    2.302283
     11          1           0        0.398014    2.647197    2.057581
     12          7           0        2.841755   -0.898879    0.384072
     13          8           0        2.831977   -1.420835    1.496773
     14          8           0        3.378813   -1.372160   -0.615033
     15          6           0       -3.584345    1.325943    0.239447
     16          6           0       -2.487819    1.487093   -0.613889
     17          6           0       -1.624817    0.417605   -0.870736
     18          6           0       -1.889338   -0.804579   -0.254631
     19          6           0       -2.973490   -0.996536    0.600388
     20          6           0       -3.823258    0.086827    0.842799
     21          1           0       -4.249605    2.162137    0.433366
     22          1           0       -2.299826    2.448262   -1.083845
     23          1           0       -0.768562    0.514656   -1.527109
     24          1           0       -3.135080   -1.966740    1.054273
     25          1           0       -4.674063   -0.041228    1.505958
     26          7           0       -0.982721   -1.944144   -0.518902
     27          8           0       -1.237555   -3.010705    0.036203
     28          8           0       -0.034447   -1.749194   -1.276139
 ---------------------------------------------------------------------

 SCF Done:  E(RHF) =  -868.334579340     A.U. after   16 cycles
 E2 =    -0.2607726606D+01 EUMP2 =    -0.87094230594526D+03

 The electronic state is 1-A.
 Alpha  occ. eigenvalues --  -20.60793 -20.60733 -20.60121 -20.60063 -15.85805
 Alpha  occ. eigenvalues --  -15.85165 -11.31242 -11.31029 -11.27873 -11.27792
 Alpha  occ. eigenvalues --  -11.27708 -11.27685 -11.27634 -11.27588 -11.26947
 Alpha  occ. eigenvalues --  -11.26905 -11.26840 -11.26815  -1.59830  -1.59131
 Alpha  occ. eigenvalues --   -1.39387  -1.38683  -1.19504  -1.19274  -1.08869
 Alpha  occ. eigenvalues --   -1.08603  -1.04902  -1.04772  -0.95674  -0.95344
 Alpha  occ. eigenvalues --   -0.86311  -0.86131  -0.82514  -0.82183  -0.77553
 Alpha  occ. eigenvalues --   -0.77102  -0.72069  -0.71406  -0.71285  -0.70630
 Alpha  occ. eigenvalues --   -0.70417  -0.70259  -0.65136  -0.64954  -0.64927
 Alpha  occ. eigenvalues --   -0.64770  -0.62309  -0.62083  -0.55482  -0.55300
 Alpha  occ. eigenvalues --   -0.53799  -0.53086  -0.52852  -0.52372  -0.48781
 Alpha  occ. eigenvalues --   -0.48771  -0.48194  -0.48108  -0.44810  -0.43948
 Alpha  occ. eigenvalues --   -0.37712  -0.37419  -0.36536  -0.35936
 Alpha virt. eigenvalues --    0.04807   0.05585   0.10937   0.11409   0.16301
 Alpha virt. eigenvalues --    0.16868   0.20462   0.21863   0.26385   0.27199
 Alpha virt. eigenvalues --    0.28341   0.28707   0.30530   0.31455   0.32611

 Mulliken charges:
               1
     1  C   -0.173520
     2  C   -0.235771
     3  C   -0.164921
     4  C    0.168385
     5  C   -0.174913
     6  C   -0.213467
     7  H    0.219334
     8  H    0.221696
     9  H    0.281095
    10  H    0.276989
    11  H    0.221468
    12  N    0.493040
    13  O   -0.462607
    14  O   -0.451601
    15  C   -0.172733
    16  C   -0.221475
    17  C   -0.162372
    18  C    0.154270
    19  C   -0.170521
    20  C   -0.220271
    21  H    0.223256
    22  H    0.214376
    23  H    0.278786
    24  H    0.277082
    25  H    0.223238
    26  N    0.487931
    27  O   -0.453856
    28  O   -0.462917
 Sum of Mulliken charges =  -0.00000

 Dipole moment (field-independent basis, Debye):
    X=             -5.3334    Y=              8.1311    Z=              0.4105  Tot=              9.7329
 Quadrupole moment (field-independent basis, Debye-Ang):
   XX=           -102.4308   YY=           -107.5593   ZZ=            -99.7117
   XY=              5.6058   XZ=             -6.2938   YZ=             -2.8153

 Normal termination of Gaussian 16 at Fri May  7 04:53:57 2021.
