 Gaussian 16, Revision A.03,
 Gaussian 16:  EM64L-G16RevA.03 25-Dec-2016

 -------------
 #p 6-31g* mp2
 -------------

 ------------------------------------------------------
 Input file generated by CHIRIPA (05-May-2021 14:53:18)
 ------------------------------------------------------
 Symbolic Z-matrix:
 Charge =  0 Multiplicity = 1

                         Standard orientation:
 ---------------------------------------------------------------------
 Center     Atomic      Atomic             Coordinates (Angstroms)
 Number     Number       Type             X           Y           Z
 ---------------------------------------------------------------------
      1          6           0        3.410400    1.213693    0.252126
      2          6           0        2.318734    2.058785   -0.405193
      3          6           0        2.374444    3.527660    0.015636
      4          1           0        3.314845    1.287629    1.344073
      5          1           0        4.393211    1.632634   -0.004711
      6          1           0        1.338325    1.637557   -0.148325
      7          1           0        2.416781    1.982675   -1.495702
      8          1           0        3.338663    3.969737   -0.255382
      9          1           0        2.254080    3.622658    1.099651
     10          1           0        1.585293    4.113461   -0.465962
     11          6           0        3.367761   -0.257060   -0.158722
     12          6           0        4.459427   -1.102153    0.498597
     13          6           0        4.403717   -2.571028    0.077768
     14          1           0        2.384950   -0.676002    0.098116
     15          1           0        3.463317   -0.330997   -1.250669
     16          1           0        4.361380   -1.026043    1.589107
     17          1           0        5.439836   -0.680925    0.241729
     18          1           0        4.524082   -2.666026   -1.006247
     19          1           0        3.439498   -3.013104    0.348786
     20          1           0        5.192869   -3.156829    0.559367
     21          6           0       -3.965510    1.764850    0.200203
     22          6           0       -4.592831    0.530473    0.398458
     23          6           0       -3.872501   -0.660809    0.269927
     24          6           0       -2.520320   -0.580430   -0.059369
     25          6           0       -1.866970    0.634024   -0.263146
     26          6           0       -2.606977    1.812601   -0.129385
     27          1           0       -4.532723    2.685332    0.302080
     28          1           0       -5.647759    0.490355    0.654505
     29          1           0       -4.333148   -1.629999    0.417893
     30          1           0       -0.814039    0.642046   -0.517492
     31          1           0       -2.117172    2.769811   -0.283931
     32          7           0       -1.747324   -1.834862   -0.198207
     33          8           0       -0.557169   -1.737058   -0.489073
     34          8           0       -2.346240   -2.892138   -0.013533
 ---------------------------------------------------------------------

 SCF Done:  E(RHF) =  -669.535883323     A.U. after   15 cycles
 E2 =    -0.2091846481D+01 EUMP2 =    -0.67162772980347D+03

 The electronic state is 1-A.
 Alpha  occ. eigenvalues --  -20.60860 -20.60853 -15.85901 -11.31219 -11.27790
 Alpha  occ. eigenvalues --  -11.27760 -11.27528 -11.26801 -11.26784 -11.21863
 Alpha  occ. eigenvalues --  -11.21409 -11.21226 -11.21023 -11.20743 -11.20299
 Alpha  occ. eigenvalues --   -1.59926  -1.39481  -1.19392  -1.08797  -1.08166
 Alpha  occ. eigenvalues --   -1.04789  -1.03305  -0.95722  -0.95638  -0.86744
 Alpha  occ. eigenvalues --   -0.86190  -0.82470  -0.79450  -0.77894  -0.77494
 Alpha  occ. eigenvalues --   -0.72120  -0.71243  -0.70510  -0.65047  -0.64891
 Alpha  occ. eigenvalues --   -0.64714  -0.62158  -0.60688  -0.59175  -0.57318
 Alpha  occ. eigenvalues --   -0.55300  -0.54988  -0.53122  -0.52903  -0.52481
 Alpha  occ. eigenvalues --   -0.52121  -0.49658  -0.48877  -0.48874  -0.47721
 Alpha  occ. eigenvalues --   -0.46485  -0.45428  -0.45294  -0.44854  -0.43521
 Alpha  occ. eigenvalues --   -0.37375  -0.36389
 Alpha virt. eigenvalues --    0.04984   0.11248   0.16480   0.20031   0.23213
 Alpha virt. eigenvalues --    0.24341   0.25205   0.27209   0.27304   0.28376
 Alpha virt. eigenvalues --    0.29621   0.31001   0.31500   0.31953   0.32277

 Mulliken charges:
               1
     1  C   -0.297335
     2  C   -0.304385
     3  C   -0.474948
     4  H    0.148969
     5  H    0.149062
     6  H    0.145680
     7  H    0.154216
     8  H    0.158579
     9  H    0.155766
    10  H    0.153285
    11  C   -0.305972
    12  C   -0.299402
    13  C   -0.476925
    14  H    0.168162
    15  H    0.149243
    16  H    0.150071
    17  H    0.148221
    18  H    0.154701
    19  H    0.165313
    20  H    0.156849
    21  C   -0.170601
    22  C   -0.218902
    23  C   -0.170231
    24  C    0.158892
    25  C   -0.181303
    26  C   -0.221825
    27  H    0.225806
    28  H    0.223586
    29  H    0.275605
    30  H    0.289077
    31  H    0.224139
    32  N    0.489223
    33  O   -0.463012
    34  O   -0.459604
 Sum of Mulliken charges =  -0.00000

 Dipole moment (field-independent basis, Debye):
    X=             -2.7561    Y=              4.2806    Z=              0.4849  Tot=              5.1142
 Quadrupole moment (field-independent basis, Debye-Ang):
   XX=            -77.6257   YY=           -100.2063   ZZ=            -94.9147
   XY=             -7.1150   XZ=             -2.7097   YZ=             -1.5729

 Normal termination of Gaussian 16 at Wed May  5 22:03:57 2021.
