 Gaussian 16, Revision A.03,
 Gaussian 16:  EM64L-G16RevA.03 25-Dec-2016

 -------------
 #p 6-31g* mp2
 -------------

 ------------------------------------------------------
 Input file generated by CHIRIPA (05-May-2021 14:53:12)
 ------------------------------------------------------
 Symbolic Z-matrix:
 Charge =  0 Multiplicity = 1

                         Standard orientation:
 ---------------------------------------------------------------------
 Center     Atomic      Atomic             Coordinates (Angstroms)
 Number     Number       Type             X           Y           Z
 ---------------------------------------------------------------------
      1          6           0        3.193406   -0.024278   -0.299966
      2          6           0        4.428632   -0.849218    0.062907
      3          6           0        4.464842   -2.202958   -0.646932
      4          1           0        2.290615   -0.596871   -0.046883
      5          1           0        3.170848    0.130261   -1.387626
      6          1           0        4.449594   -1.000979    1.149712
      7          1           0        5.328588   -0.274516   -0.190893
      8          1           0        4.468490   -2.068264   -1.733415
      9          1           0        3.584501   -2.798854   -0.385193
     10          1           0        5.356124   -2.776119   -0.373136
     11          6           0        3.142948    1.331731    0.401760
     12          6           0        1.907722    2.156670    0.038886
     13          6           0        1.871512    3.510410    0.748725
     14          1           0        3.165506    1.177192    1.489419
     15          1           0        4.045739    1.904324    0.148676
     16          1           0        1.007766    1.581969    0.292686
     17          1           0        1.886760    2.308432   -1.047919
     18          1           0        2.751853    4.106307    0.486986
     19          1           0        1.867864    3.375717    1.835208
     20          1           0        0.980230    4.083572    0.474930
     21          6           0       -0.513526   -2.033645    0.406007
     22          6           0       -1.620421   -2.049408    1.261023
     23          6           0       -2.712898   -1.209923    1.023727
     24          6           0       -2.664780   -0.363493   -0.082858
     25          6           0       -1.576409   -0.324675   -0.953050
     26          6           0       -0.495084   -1.172846   -0.696358
     27          1           0        0.330805   -2.689150    0.597878
     28          1           0       -1.637494   -2.716879    2.117899
     29          1           0       -3.582577   -1.201733    1.669489
     30          1           0       -1.588379    0.351613   -1.799164
     31          1           0        0.363208   -1.158467   -1.362069
     32          7           0       -3.815433    0.529829   -0.344340
     33          8           0       -3.748567    1.266316   -1.326049
     34          8           0       -4.762392    0.476614    0.437371
 ---------------------------------------------------------------------

 SCF Done:  E(RHF) =  -669.535008298     A.U. after   15 cycles
 E2 =    -0.2093333230D+01 EUMP2 =    -0.67162834152883D+03

 The electronic state is 1-A.
 Alpha  occ. eigenvalues --  -20.60792 -20.60787 -15.85845 -11.31233 -11.27789
 Alpha  occ. eigenvalues --  -11.27777 -11.27536 -11.26821 -11.26762 -11.22394
 Alpha  occ. eigenvalues --  -11.22213 -11.21999 -11.21978 -11.21914 -11.21290
 Alpha  occ. eigenvalues --   -1.59867  -1.39419  -1.19405  -1.09107  -1.08791
 Alpha  occ. eigenvalues --   -1.04803  -1.04127  -0.96595  -0.95628  -0.87607
 Alpha  occ. eigenvalues --   -0.86206  -0.82454  -0.80219  -0.78942  -0.77481
 Alpha  occ. eigenvalues --   -0.72063  -0.71190  -0.70510  -0.65781  -0.65048
 Alpha  occ. eigenvalues --   -0.64771  -0.62149  -0.61518  -0.59974  -0.58195
 Alpha  occ. eigenvalues --   -0.55903  -0.55303  -0.53309  -0.53112  -0.53071
 Alpha  occ. eigenvalues --   -0.52822  -0.50542  -0.48833  -0.48817  -0.48517
 Alpha  occ. eigenvalues --   -0.47262  -0.46422  -0.46343  -0.44820  -0.44390
 Alpha  occ. eigenvalues --   -0.37361  -0.36347
 Alpha virt. eigenvalues --    0.05002   0.11117   0.16454   0.19687   0.22757
 Alpha virt. eigenvalues --    0.23595   0.25276   0.25918   0.27147   0.28178
 Alpha virt. eigenvalues --    0.29094   0.30029   0.31149   0.31546   0.31883

 Mulliken charges:
               1
     1  C   -0.305118
     2  C   -0.299642
     3  C   -0.475372
     4  H    0.146616
     5  H    0.147461
     6  H    0.153040
     7  H    0.155951
     8  H    0.156718
     9  H    0.145729
    10  H    0.164610
    11  C   -0.297052
    12  C   -0.305378
    13  C   -0.476254
    14  H    0.150655
    15  H    0.151754
    16  H    0.156774
    17  H    0.149545
    18  H    0.155379
    19  H    0.155706
    20  H    0.164709
    21  C   -0.173624
    22  C   -0.218551
    23  C   -0.171182
    24  C    0.158356
    25  C   -0.172720
    26  C   -0.217252
    27  H    0.226143
    28  H    0.223664
    29  H    0.275749
    30  H    0.276386
    31  H    0.229505
    32  N    0.488104
    33  O   -0.460107
    34  O   -0.460301
 Sum of Mulliken charges =  -0.00000

 Dipole moment (field-independent basis, Debye):
    X=              4.0955    Y=             -3.0671    Z=              0.9470  Tot=              5.2036
 Quadrupole moment (field-independent basis, Debye-Ang):
   XX=           -115.2200   YY=            -93.1575   ZZ=            -91.4825
   XY=              8.3883   XZ=             -5.2338   YZ=             -2.5236

 Normal termination of Gaussian 16 at Wed May  5 20:07:08 2021.
