 Gaussian 16, Revision A.03,
 Gaussian 16:  EM64L-G16RevA.03 25-Dec-2016

 -------------
 #p 6-31g* mp2
 -------------

 ------------------------------------------------------
 Input file generated by CHIRIPA (05-May-2021 14:53:18)
 ------------------------------------------------------
 Symbolic Z-matrix:
 Charge =  0 Multiplicity = 1

                         Standard orientation:
 ---------------------------------------------------------------------
 Center     Atomic      Atomic             Coordinates (Angstroms)
 Number     Number       Type             X           Y           Z
 ---------------------------------------------------------------------
      1          6           0       -3.337984   -0.829472   -0.431613
      2          6           0       -2.014083   -1.233258    0.218178
      3          6           0       -1.061807   -1.922707   -0.759382
      4          1           0       -3.822074   -1.723192   -0.848585
      5          1           0       -3.133495   -0.160614   -1.279085
      6          1           0       -2.221091   -1.900051    1.065026
      7          1           0       -1.533180   -0.338500    0.633820
      8          1           0       -0.826147   -1.260930   -1.599094
      9          1           0       -1.517967   -2.831353   -1.165438
     10          1           0       -0.121710   -2.202809   -0.273975
     11          6           0       -4.300553   -0.139057    0.533019
     12          6           0       -5.624454    0.264729   -0.116772
     13          6           0       -6.576730    0.954178    0.860788
     14          1           0       -4.505042   -0.807915    1.380491
     15          1           0       -3.816463    0.754663    0.949991
     16          1           0       -6.105357   -0.630029   -0.532414
     17          1           0       -5.417446    0.931522   -0.963620
     18          1           0       -6.120570    1.862824    1.266844
     19          1           0       -6.812390    0.292401    1.700500
     20          1           0       -7.516828    1.234280    0.375381
     21          6           0        4.503513   -1.502710    0.680172
     22          6           0        4.763978   -0.193473    1.097997
     23          6           0        3.928689    0.856586    0.705294
     24          6           0        2.836884    0.560184   -0.109198
     25          6           0        2.550988   -0.733744   -0.541985
     26          6           0        3.399794   -1.768199   -0.137044
     27          1           0        5.157636   -2.312360    0.989987
     28          1           0        5.620414    0.015659    1.732684
     29          1           0        4.107048    1.879416    1.014202
     30          1           0        1.689594   -0.911138   -1.174400
     31          1           0        3.195073   -2.783998   -0.463057
     32          7           0        1.945445    1.663574   -0.531412
     33          8           0        0.990028    1.376205   -1.249210
     34          8           0        2.219032    2.794890   -0.136552
 ---------------------------------------------------------------------

 SCF Done:  E(RHF) =  -669.535500418     A.U. after   15 cycles
 E2 =    -0.2092132034D+01 EUMP2 =    -0.67162763245228D+03

 The electronic state is 1-A.
 Alpha  occ. eigenvalues --  -20.60840 -20.60835 -15.85880 -11.31171 -11.27766
 Alpha  occ. eigenvalues --  -11.27669 -11.27503 -11.26765 -11.26744 -11.21316
 Alpha  occ. eigenvalues --  -11.21219 -11.21057 -11.21002 -11.20943 -11.20725
 Alpha  occ. eigenvalues --   -1.59906  -1.39461  -1.19357  -1.08766  -1.08067
 Alpha  occ. eigenvalues --   -1.04755  -1.03242  -0.95760  -0.95580  -0.86780
 Alpha  occ. eigenvalues --   -0.86138  -0.82444  -0.79324  -0.77870  -0.77489
 Alpha  occ. eigenvalues --   -0.72105  -0.71223  -0.70477  -0.65015  -0.64807
 Alpha  occ. eigenvalues --   -0.64637  -0.62166  -0.60591  -0.59101  -0.57333
 Alpha  occ. eigenvalues --   -0.55300  -0.54956  -0.53125  -0.52924  -0.52323
 Alpha  occ. eigenvalues --   -0.52144  -0.49632  -0.48855  -0.48843  -0.47630
 Alpha  occ. eigenvalues --   -0.46294  -0.45427  -0.45309  -0.44866  -0.43501
 Alpha  occ. eigenvalues --   -0.37344  -0.36334
 Alpha virt. eigenvalues --    0.04997   0.11273   0.16452   0.21130   0.23303
 Alpha virt. eigenvalues --    0.24486   0.26649   0.27073   0.27661   0.28046
 Alpha virt. eigenvalues --    0.29265   0.30027   0.31613   0.31985   0.32426

 Mulliken charges:
               1
     1  C   -0.299940
     2  C   -0.297487
     3  C   -0.486221
     4  H    0.146536
     5  H    0.157114
     6  H    0.148428
     7  H    0.159861
     8  H    0.168255
     9  H    0.153478
    10  H    0.149138
    11  C   -0.298943
    12  C   -0.299816
    13  C   -0.475725
    14  H    0.146978
    15  H    0.153405
    16  H    0.150187
    17  H    0.154273
    18  H    0.156454
    19  H    0.153691
    20  H    0.159462
    21  C   -0.170065
    22  C   -0.219037
    23  C   -0.170367
    24  C    0.154644
    25  C   -0.171730
    26  C   -0.222813
    27  H    0.225617
    28  H    0.223360
    29  H    0.275396
    30  H    0.285969
    31  H    0.224242
    32  N    0.488454
    33  O   -0.462921
    34  O   -0.459879
 Sum of Mulliken charges =  -0.00000

 Dipole moment (field-independent basis, Debye):
    X=              3.1370    Y=             -3.7481    Z=              1.4414  Tot=              5.0957
 Quadrupole moment (field-independent basis, Debye-Ang):
   XX=            -76.4444   YY=            -97.1965   ZZ=            -94.6961
   XY=             -6.8331   XZ=              6.1817   YZ=              2.6554

 Normal termination of Gaussian 16 at Thu May  6 04:25:54 2021.
