 Gaussian 16, Revision A.03,
 Gaussian 16:  EM64L-G16RevA.03 25-Dec-2016

 -------------
 #p 6-31g* mp2
 -------------

 ------------------------------------------------------
 Input file generated by CHIRIPA (05-May-2021 14:51:09)
 ------------------------------------------------------
 Symbolic Z-matrix:
 Charge =  0 Multiplicity = 1

                         Standard orientation:
 ---------------------------------------------------------------------
 Center     Atomic      Atomic             Coordinates (Angstroms)
 Number     Number       Type             X           Y           Z
 ---------------------------------------------------------------------
      1          6           0        2.794090    0.009600    0.026815
      2          6           0        3.188707   -0.631212    1.357838
      3          6           0        3.760002   -2.039440    1.189582
      4          1           0        2.055446   -0.629645   -0.475892
      5          1           0        3.674349    0.046055   -0.629851
      6          1           0        2.308291   -0.665187    2.012307
      7          1           0        3.926355    0.009730    1.857524
      8          1           0        4.653916   -2.019580    0.557818
      9          1           0        3.026659   -2.698331    0.713482
     10          1           0        4.035446   -2.478749    2.153427
     11          6           0        2.221293    1.417647    0.178588
     12          6           0        1.826676    2.058460   -1.152435
     13          6           0        1.255381    3.466687   -0.984178
     14          1           0        1.341034    1.381193    0.835254
     15          1           0        2.959937    2.056893    0.681295
     16          1           0        1.089028    1.417518   -1.652120
     17          1           0        2.707092    2.092435   -1.806904
     18          1           0        1.988724    4.125579   -0.508078
     19          1           0        0.361467    3.446827   -0.352415
     20          1           0        0.979937    3.905997   -1.948024
     21          6           0       -2.667740    0.019856    0.038094
     22          6           0       -3.907529    0.213045    0.911928
     23          6           0       -4.214801    1.685772    1.184787
     24          1           0       -1.804708    0.491339    0.527812
     25          1           0       -2.813347    0.547621   -0.914617
     26          1           0       -3.760193   -0.316081    1.862158
     27          1           0       -4.767672   -0.259119    0.420165
     28          1           0       -4.388081    2.223333    0.246916
     29          1           0       -3.374878    2.166048    1.697101
     30          1           0       -5.104876    1.800808    1.811200
     31          6           0       -2.347643   -1.447104   -0.243497
     32          6           0       -1.107854   -1.640293   -1.117332
     33          6           0       -0.800582   -3.113020   -1.390190
     34          1           0       -2.202036   -1.974869    0.709214
     35          1           0       -3.210675   -1.918587   -0.733215
     36          1           0       -0.247711   -1.168128   -0.625569
     37          1           0       -1.255190   -1.111167   -2.067561
     38          1           0       -1.640504   -3.593295   -1.902505
     39          1           0       -0.627302   -3.650581   -0.452319
     40          1           0        0.089493   -3.228056   -2.016603
 ---------------------------------------------------------------------

 SCF Done:  E(RHF) =  -470.733407008     A.U. after   11 cycles
 E2 =    -0.1583701724D+01 EUMP2 =    -0.47231710873140D+03

 The electronic state is 1-A.
 Alpha  occ. eigenvalues --  -11.21680 -11.21657 -11.21619 -11.21565 -11.21482
 Alpha  occ. eigenvalues --  -11.21423 -11.21404 -11.21341 -11.21152 -11.21113
 Alpha  occ. eigenvalues --  -11.21079 -11.21041  -1.08515  -1.08423  -1.03601
 Alpha  occ. eigenvalues --   -1.03520  -0.96047  -0.95973  -0.87062  -0.86988
 Alpha  occ. eigenvalues --   -0.79674  -0.79582  -0.78363  -0.78203  -0.65306
 Alpha  occ. eigenvalues --   -0.64920  -0.61040  -0.60877  -0.59416  -0.59340
 Alpha  occ. eigenvalues --   -0.57675  -0.57568  -0.55343  -0.55257  -0.52739
 Alpha  occ. eigenvalues --   -0.52664  -0.52468  -0.52399  -0.50040  -0.49870
 Alpha  occ. eigenvalues --   -0.48014  -0.47902  -0.46815  -0.46590  -0.46093
 Alpha  occ. eigenvalues --   -0.45803  -0.45711  -0.45358  -0.43852  -0.43778
 Alpha virt. eigenvalues --    0.19482   0.22727   0.23614   0.24660   0.25659
 Alpha virt. eigenvalues --    0.26448   0.27006   0.27494   0.28523   0.29765
 Alpha virt. eigenvalues --    0.31059   0.31590   0.31833   0.31901   0.32121

 Mulliken charges:
               1
     1  C   -0.305471
     2  C   -0.299428
     3  C   -0.475971
     4  H    0.156229
     5  H    0.149980
     6  H    0.151051
     7  H    0.152163
     8  H    0.155337
     9  H    0.155494
    10  H    0.160205
    11  C   -0.298874
    12  C   -0.301270
    13  C   -0.475817
    14  H    0.149122
    15  H    0.149854
    16  H    0.154354
    17  H    0.151681
    18  H    0.154878
    19  H    0.155549
    20  H    0.160151
    21  C   -0.299580
    22  C   -0.299712
    23  C   -0.475768
    24  H    0.149640
    25  H    0.149978
    26  H    0.152059
    27  H    0.152279
    28  H    0.155458
    29  H    0.155010
    30  H    0.160549
    31  C   -0.297682
    32  C   -0.308428
    33  C   -0.476247
    34  H    0.149585
    35  H    0.150135
    36  H    0.159287
    37  H    0.152340
    38  H    0.155920
    39  H    0.155214
    40  H    0.160744
 Sum of Mulliken charges =  -0.00000

 Dipole moment (field-independent basis, Debye):
    X=             -0.0260    Y=             -0.0172    Z=             -0.0186  Tot=              0.0363
 Quadrupole moment (field-independent basis, Debye-Ang):
   XX=            -83.7763   YY=            -86.7125   ZZ=            -84.1498
   XY=              1.1535   XZ=              0.4877   YZ=             -0.2925

 Normal termination of Gaussian 16 at Thu May  6 03:45:48 2021.
