 Gaussian 16, Revision A.03,
 Gaussian 16:  EM64L-G16RevA.03 25-Dec-2016

 -------------
 #p 6-31g* mp2
 -------------

 ------------------------------------------------------
 Input file generated by CHIRIPA (05-May-2021 14:53:15)
 ------------------------------------------------------
 Symbolic Z-matrix:
 Charge =  0 Multiplicity = 1

                         Standard orientation:
 ---------------------------------------------------------------------
 Center     Atomic      Atomic             Coordinates (Angstroms)
 Number     Number       Type             X           Y           Z
 ---------------------------------------------------------------------
      1          6           0       -3.933953   -0.517736    0.433841
      2          6           0       -4.430159   -1.685062   -0.420041
      3          6           0       -4.924473   -2.863422    0.419552
      4          1           0       -3.124352   -0.868644    1.088330
      5          1           0       -4.746673   -0.183684    1.093607
      6          1           0       -3.617170   -2.015913   -1.078981
      7          1           0       -5.238543   -1.331289   -1.072709
      8          1           0       -5.752526   -2.555278    1.066063
      9          1           0       -4.121940   -3.243792    1.059756
     10          1           0       -5.274546   -3.686712   -0.210926
     11          6           0       -3.436530    0.667854   -0.391189
     12          6           0       -2.940323    1.835180    0.462693
     13          6           0       -2.446009    3.013540   -0.376900
     14          1           0       -2.623810    0.333802   -1.050955
     15          1           0       -4.246130    1.018762   -1.045677
     16          1           0       -2.131940    1.481407    1.115361
     17          1           0       -3.753313    2.166031    1.121633
     18          1           0       -3.248542    3.393910   -1.017103
     19          1           0       -1.617957    2.705396   -1.023411
     20          1           0       -2.095936    3.836830    0.253578
     21          6           0        4.305627   -2.139237   -0.061897
     22          6           0        2.939794   -2.220515   -0.352441
     23          6           0        2.139762   -1.074212   -0.330379
     24          6           0        2.741183    0.142504   -0.012288
     25          6           0        4.099101    0.255872    0.281816
     26          6           0        4.879909   -0.903481    0.253747
     27          1           0        4.919645   -3.034781   -0.081368
     28          1           0        2.491094   -3.178877   -0.597908
     29          1           0        1.079826   -1.108557   -0.551227
     30          1           0        4.517881    1.225342    0.522994
     31          1           0        5.940364   -0.837364    0.479816
     32          7           0        1.904400    1.362952    0.014247
     33          8           0        2.458320    2.422953    0.297455
     34          8           0        0.710455    1.236427   -0.248665
 ---------------------------------------------------------------------

 SCF Done:  E(RHF) =  -669.536164541     A.U. after   15 cycles
 E2 =    -0.2091495992D+01 EUMP2 =    -0.67162766053331D+03

 The electronic state is 1-A.
 Alpha  occ. eigenvalues --  -20.61027 -20.61020 -15.86057 -11.31352 -11.27915
 Alpha  occ. eigenvalues --  -11.27906 -11.27642 -11.26912 -11.26902 -11.21207
 Alpha  occ. eigenvalues --  -11.20821 -11.20737 -11.20385 -11.20204 -11.19324
 Alpha  occ. eigenvalues --   -1.60082  -1.39641  -1.19517  -1.08925  -1.07595
 Alpha  occ. eigenvalues --   -1.04910  -1.02586  -0.95774  -0.95042  -0.86312
 Alpha  occ. eigenvalues --   -0.86069  -0.82608  -0.78751  -0.77665  -0.77315
 Alpha  occ. eigenvalues --   -0.72293  -0.71394  -0.70626  -0.65180  -0.64913
 Alpha  occ. eigenvalues --   -0.64219  -0.62258  -0.59948  -0.58529  -0.56636
 Alpha  occ. eigenvalues --   -0.55415  -0.54323  -0.53242  -0.53000  -0.51749
 Alpha  occ. eigenvalues --   -0.51479  -0.49261  -0.49027  -0.48744  -0.47028
 Alpha  occ. eigenvalues --   -0.45812  -0.45113  -0.44859  -0.44631  -0.42865
 Alpha  occ. eigenvalues --   -0.37493  -0.36510
 Alpha virt. eigenvalues --    0.04849   0.11146   0.16342   0.21132   0.23413
 Alpha virt. eigenvalues --    0.25202   0.26792   0.27408   0.28175   0.28639
 Alpha virt. eigenvalues --    0.28993   0.30942   0.32118   0.32408   0.32675

 Mulliken charges:
               1
     1  C   -0.297516
     2  C   -0.298220
     3  C   -0.474886
     4  H    0.147040
     5  H    0.148262
     6  H    0.147559
     7  H    0.151947
     8  H    0.155593
     9  H    0.152362
    10  H    0.157837
    11  C   -0.298433
    12  C   -0.297195
    13  C   -0.477254
    14  H    0.151787
    15  H    0.145713
    16  H    0.159757
    17  H    0.143591
    18  H    0.143128
    19  H    0.175583
    20  H    0.158705
    21  C   -0.170497
    22  C   -0.218501
    23  C   -0.170826
    24  C    0.157639
    25  C   -0.170441
    26  C   -0.218570
    27  H    0.226258
    28  H    0.224101
    29  H    0.275204
    30  H    0.276032
    31  H    0.224047
    32  N    0.492028
    33  O   -0.457945
    34  O   -0.463889
 Sum of Mulliken charges =  -0.00000

 Dipole moment (field-independent basis, Debye):
    X=              3.3332    Y=             -4.2331    Z=             -0.1027  Tot=              5.3889
 Quadrupole moment (field-independent basis, Debye-Ang):
   XX=            -75.8727   YY=            -95.9830   ZZ=            -95.6307
   XY=             -9.7222   XZ=              1.0789   YZ=              1.2951

 Normal termination of Gaussian 16 at Thu May  6 04:16:54 2021.
