 Gaussian 16, Revision A.03,
 Gaussian 16:  EM64L-G16RevA.03 25-Dec-2016

 -------------
 #p 6-31g* mp2
 -------------

 ------------------------------------------------------
 Input file generated by CHIRIPA (05-May-2021 14:57:20)
 ------------------------------------------------------
 Symbolic Z-matrix:
 Charge =  0 Multiplicity = 1

                         Standard orientation:
 ---------------------------------------------------------------------
 Center     Atomic      Atomic             Coordinates (Angstroms)
 Number     Number       Type             X           Y           Z
 ---------------------------------------------------------------------
      1          6           0        2.438257    1.523477   -0.019442
      2          6           0        3.712286    2.100249    0.007099
      3          6           0        4.856023    1.296369   -0.006751
      4          6           0        4.688181   -0.086909   -0.047514
      5          6           0        3.432374   -0.691474   -0.074703
      6          6           0        2.302606    0.131910   -0.060186
      7          1           0        1.555200    2.155526   -0.008424
      8          1           0        3.820658    3.180665    0.038757
      9          1           0        5.854282    1.716491    0.013138
     10          1           0        3.356202   -1.771581   -0.106097
     11          1           0        1.314430   -0.318785   -0.080867
     12          7           0        5.891610   -0.948264   -0.062529
     13          8           0        5.716843   -2.164321   -0.098580
     14          8           0        6.986836   -0.391028   -0.037963
     15          6           0       -2.044101    0.335153    0.526721
     16          6           0       -2.932035    0.078399    1.576564
     17          6           0       -4.289259   -0.139280    1.321399
     18          6           0       -4.726286   -0.092777   -0.001528
     19          6           0       -3.866327    0.160654   -1.069016
     20          6           0       -2.513253    0.375390   -0.790397
     21          1           0       -0.991389    0.503108    0.734050
     22          1           0       -2.570498    0.046558    2.600439
     23          1           0       -4.998473   -0.340149    2.115178
     24          1           0       -4.256353    0.186145   -2.079287
     25          1           0       -1.825957    0.574568   -1.607707
     26          7           0       -6.160920   -0.321666   -0.284075
     27          8           0       -6.520930   -0.275420   -1.458337
     28          8           0       -6.898214   -0.542981    0.674077
 ---------------------------------------------------------------------

 SCF Done:  E(RHF) =  -868.336366236     A.U. after   16 cycles
 E2 =    -0.2599862027D+01 EUMP2 =    -0.87093622826316D+03

 The electronic state is 1-A.
 Alpha  occ. eigenvalues --  -20.61374 -20.61367 -20.61322 -20.61317 -15.86434
 Alpha  occ. eigenvalues --  -15.86380 -11.31966 -11.31917 -11.28594 -11.28533
 Alpha  occ. eigenvalues --  -11.28492 -11.28466 -11.28433 -11.28412 -11.27741
 Alpha  occ. eigenvalues --  -11.27630 -11.27589 -11.27568  -1.60445  -1.60393
 Alpha  occ. eigenvalues --   -1.39994  -1.39942  -1.20177  -1.20113  -1.09567
 Alpha  occ. eigenvalues --   -1.09507  -1.05606  -1.05529  -0.96365  -0.96306
 Alpha  occ. eigenvalues --   -0.87023  -0.86936  -0.83185  -0.83125  -0.78190
 Alpha  occ. eigenvalues --   -0.78114  -0.72652  -0.72597  -0.71771  -0.71717
 Alpha  occ. eigenvalues --   -0.71431  -0.71217  -0.65847  -0.65787  -0.65687
 Alpha  occ. eigenvalues --   -0.65491  -0.62954  -0.62857  -0.56170  -0.56147
 Alpha  occ. eigenvalues --   -0.53922  -0.53869  -0.53690  -0.53630  -0.49424
 Alpha  occ. eigenvalues --   -0.49392  -0.49369  -0.49339  -0.45361  -0.45308
 Alpha  occ. eigenvalues --   -0.38196  -0.38155  -0.37200  -0.37115
 Alpha virt. eigenvalues --    0.04358   0.04386   0.10392   0.10511   0.15753
 Alpha virt. eigenvalues --    0.15806   0.17385   0.22050   0.24855   0.26599
 Alpha virt. eigenvalues --    0.26954   0.29336   0.30036   0.30593   0.31707

 Mulliken charges:
               1
     1  C   -0.172426
     2  C   -0.217930
     3  C   -0.169688
     4  C    0.159302
     5  C   -0.169399
     6  C   -0.223294
     7  H    0.221252
     8  H    0.226213
     9  H    0.278448
    10  H    0.278250
    11  H    0.217937
    12  N    0.487869
    13  O   -0.458598
    14  O   -0.458111
    15  C   -0.177019
    16  C   -0.217860
    17  C   -0.169988
    18  C    0.159693
    19  C   -0.169877
    20  C   -0.219034
    21  H    0.219146
    22  H    0.226155
    23  H    0.278263
    24  H    0.278047
    25  H    0.221469
    26  N    0.487853
    27  O   -0.458492
    28  O   -0.458184
 Sum of Mulliken charges =  -0.00000

 Dipole moment (field-independent basis, Debye):
    X=              0.8214    Y=              3.8112    Z=              1.0564  Tot=              4.0393
 Quadrupole moment (field-independent basis, Debye-Ang):
   XX=           -188.9227   YY=           -103.0255   ZZ=           -100.7744
   XY=             13.3876   XZ=             -5.2515   YZ=             -0.8329

 Normal termination of Gaussian 16 at Thu May  6 04:51:17 2021.
