 Gaussian 16, Revision A.03,
 Gaussian 16:  EM64L-G16RevA.03 25-Dec-2016

 -------------
 #p 6-31g* mp2
 -------------

 ------------------------------------------------------
 Input file generated by CHIRIPA (05-May-2021 14:51:14)
 ------------------------------------------------------
 Symbolic Z-matrix:
 Charge =  0 Multiplicity = 1

                         Standard orientation:
 ---------------------------------------------------------------------
 Center     Atomic      Atomic             Coordinates (Angstroms)
 Number     Number       Type             X           Y           Z
 ---------------------------------------------------------------------
      1          6           0        2.120739   -0.279549   -0.882940
      2          6           0        2.542342   -1.726108   -1.143136
      3          6           0        1.675196   -2.413963   -2.197985
      4          1           0        1.069698   -0.262437   -0.563621
      5          1           0        2.170560    0.284580   -1.824572
      6          1           0        2.493069   -2.287002   -0.201018
      7          1           0        3.592558   -1.739795   -1.461687
      8          1           0        1.732252   -1.879528   -3.151780
      9          1           0        0.626516   -2.429844   -1.883947
     10          1           0        1.994008   -3.447015   -2.368342
     11          6           0        2.978229    0.421475    0.169204
     12          6           0        2.556626    1.868035    0.429399
     13          6           0        3.423772    2.555889    1.484249
     14          1           0        2.928408   -0.142654    1.110836
     15          1           0        4.029270    0.404363   -0.150115
     16          1           0        1.506410    1.881721    0.747951
     17          1           0        2.605899    2.428929   -0.512719
     18          1           0        4.472452    2.571771    1.170211
     19          1           0        3.366716    2.021454    2.438043
     20          1           0        3.104960    3.588942    1.654605
     21          6           0       -2.180498   -0.718040    0.525903
     22          6           0       -2.091032   -0.990447    2.027827
     23          6           0       -1.350067   -2.288489    2.350088
     24          1           0       -2.685845   -1.561674    0.036159
     25          1           0       -1.165587   -0.675710    0.106906
     26          1           0       -3.105767   -1.030876    2.444113
     27          1           0       -1.586009   -0.145979    2.514080
     28          1           0       -0.326989   -2.254659    1.961800
     29          1           0       -1.855382   -3.144583    1.891436
     30          1           0       -1.297772   -2.463626    3.429187
     31          6           0       -2.918470    0.576113    0.187833
     32          6           0       -3.007936    0.848521   -1.314090
     33          6           0       -3.748901    2.146563   -1.636352
     34          1           0       -3.933381    0.533783    0.606830
     35          1           0       -2.413123    1.419748    0.677579
     36          1           0       -3.512958    0.004052   -1.800344
     37          1           0       -1.993201    0.888949   -1.730376
     38          1           0       -3.243586    3.002657   -1.177699
     39          1           0       -4.771978    2.112732   -1.248064
     40          1           0       -3.801196    2.321699   -2.715450
 ---------------------------------------------------------------------

 SCF Done:  E(RHF) =  -470.733450883     A.U. after   11 cycles
 E2 =    -0.1583622385D+01 EUMP2 =    -0.47231707326872D+03

 The electronic state is 1-A.
 Alpha  occ. eigenvalues --  -11.21664 -11.21664 -11.21635 -11.21606 -11.21456
 Alpha  occ. eigenvalues --  -11.21449 -11.21397 -11.21387 -11.21140 -11.21115
 Alpha  occ. eigenvalues --  -11.21072 -11.21068  -1.08502  -1.08455  -1.03572
 Alpha  occ. eigenvalues --   -1.03559  -0.96023  -0.96008  -0.87039  -0.87024
 Alpha  occ. eigenvalues --   -0.79642  -0.79616  -0.78398  -0.78197  -0.65311
 Alpha  occ. eigenvalues --   -0.64928  -0.61009  -0.60915  -0.59392  -0.59374
 Alpha  occ. eigenvalues --   -0.57643  -0.57611  -0.55368  -0.55247  -0.52710
 Alpha  occ. eigenvalues --   -0.52703  -0.52468  -0.52416  -0.50014  -0.49917
 Alpha  occ. eigenvalues --   -0.47996  -0.47913  -0.46764  -0.46634  -0.46256
 Alpha  occ. eigenvalues --   -0.45799  -0.45790  -0.45202  -0.43827  -0.43820
 Alpha virt. eigenvalues --    0.19280   0.23149   0.23755   0.24663   0.25260
 Alpha virt. eigenvalues --    0.26453   0.26911   0.27880   0.28295   0.30358
 Alpha virt. eigenvalues --    0.30955   0.31672   0.31688   0.31843   0.32023

 Mulliken charges:
               1
     1  C   -0.308580
     2  C   -0.299349
     3  C   -0.477167
     4  H    0.157967
     5  H    0.149807
     6  H    0.151906
     7  H    0.152247
     8  H    0.155092
     9  H    0.156905
    10  H    0.160438
    11  C   -0.297715
    12  C   -0.299653
    13  C   -0.475764
    14  H    0.149430
    15  H    0.150122
    16  H    0.150907
    17  H    0.152164
    18  H    0.155451
    19  H    0.155355
    20  H    0.160354
    21  C   -0.309381
    22  C   -0.299104
    23  C   -0.476225
    24  H    0.150066
    25  H    0.158718
    26  H    0.152483
    27  H    0.151585
    28  H    0.154513
    29  H    0.155658
    30  H    0.160631
    31  C   -0.297632
    32  C   -0.300468
    33  C   -0.475742
    34  H    0.149808
    35  H    0.149400
    36  H    0.152002
    37  H    0.152951
    38  H    0.155305
    39  H    0.155117
    40  H    0.160399
 Sum of Mulliken charges =  -0.00000

 Dipole moment (field-independent basis, Debye):
    X=             -0.0030    Y=             -0.0016    Z=             -0.0080  Tot=              0.0087
 Quadrupole moment (field-independent basis, Debye-Ang):
   XX=            -84.0519   YY=            -85.6241   ZZ=            -84.9292
   XY=              0.8227   XZ=             -1.0481   YZ=             -0.3318

 Normal termination of Gaussian 16 at Thu May  6 04:00:24 2021.
