 Gaussian 16, Revision A.03,
 Gaussian 16:  EM64L-G16RevA.03 25-Dec-2016

 -------------
 #p 6-31g* mp2
 -------------

 ------------------------------------------------------
 Input file generated by CHIRIPA (05-May-2021 14:57:26)
 ------------------------------------------------------
 Symbolic Z-matrix:
 Charge =  0 Multiplicity = 1

                         Standard orientation:
 ---------------------------------------------------------------------
 Center     Atomic      Atomic             Coordinates (Angstroms)
 Number     Number       Type             X           Y           Z
 ---------------------------------------------------------------------
      1          6           0        0.686917    1.113323   -1.314997
      2          6           0        0.643310   -0.256707   -1.036362
      3          6           0        1.763137   -0.911126   -0.514566
      4          6           0        2.915253   -0.161395   -0.282571
      5          6           0        2.989844    1.204735   -0.549812
      6          6           0        1.857980    1.838393   -1.071262
      7          1           0       -0.187666    1.613628   -1.720206
      8          1           0       -0.264798   -0.822333   -1.224646
      9          1           0        1.756858   -1.970756   -0.289706
     10          1           0        3.909362    1.741947   -0.351552
     11          1           0        1.894726    2.902481   -1.286694
     12          7           0        4.107135   -0.843210    0.269648
     13          8           0        5.110102   -0.160211    0.465114
     14          8           0        4.015796   -2.047704    0.496555
     15          6           0       -1.346975    1.847771    1.490937
     16          6           0       -2.171615    2.167882    0.407415
     17          6           0       -2.936131    1.179339   -0.219359
     18          6           0       -2.851441   -0.124873    0.265562
     19          6           0       -2.039256   -0.475201    1.343020
     20          6           0       -1.283540    0.529575    1.954464
     21          1           0       -0.756497    2.622000    1.971875
     22          1           0       -2.222867    3.190764    0.045298
     23          1           0       -3.582856    1.399456   -1.060021
     24          1           0       -2.009108   -1.503768    1.681487
     25          1           0       -0.643985    0.278070    2.795749
     26          7           0       -3.656143   -1.179991   -0.389862
     27          8           0       -3.563851   -2.321485    0.056358
     28          8           0       -4.363924   -0.845521   -1.337391
 ---------------------------------------------------------------------

 SCF Done:  E(RHF) =  -868.335031102     A.U. after   16 cycles
 E2 =    -0.2605817876D+01 EUMP2 =    -0.87094084897783D+03

 The electronic state is 1-A.
 Alpha  occ. eigenvalues --  -20.61714 -20.61703 -20.61008 -20.60999 -15.86768
 Alpha  occ. eigenvalues --  -15.86061 -11.32194 -11.31398 -11.28795 -11.28684
 Alpha  occ. eigenvalues --  -11.28383 -11.28014 -11.27934 -11.27780 -11.27629
 Alpha  occ. eigenvalues --  -11.27611 -11.27013 -11.26851  -1.60799  -1.60087
 Alpha  occ. eigenvalues --   -1.40343  -1.39640  -1.20387  -1.19571  -1.09732
 Alpha  occ. eigenvalues --   -1.08963  -1.05766  -1.04977  -0.96549  -0.95808
 Alpha  occ. eigenvalues --   -0.87137  -0.86380  -0.83369  -0.82642  -0.78430
 Alpha  occ. eigenvalues --   -0.77704  -0.72960  -0.72281  -0.72159  -0.71419
 Alpha  occ. eigenvalues --   -0.71395  -0.70697  -0.65981  -0.65717  -0.65218
 Alpha  occ. eigenvalues --   -0.65009  -0.63080  -0.62348  -0.56179  -0.55574
 Alpha  occ. eigenvalues --   -0.54583  -0.53806  -0.53120  -0.52690  -0.49732
 Alpha  occ. eigenvalues --   -0.49725  -0.49034  -0.49033  -0.45722  -0.45052
 Alpha  occ. eigenvalues --   -0.38657  -0.37649  -0.37087  -0.36289
 Alpha virt. eigenvalues --    0.03952   0.04909   0.10226   0.11050   0.15464
 Alpha virt. eigenvalues --    0.16397   0.20343   0.21355   0.26078   0.26757
 Alpha virt. eigenvalues --    0.27536   0.28478   0.29907   0.31180   0.31697

 Mulliken charges:
               1
     1  C   -0.164520
     2  C   -0.215052
     3  C   -0.175387
     4  C    0.156620
     5  C   -0.172640
     6  C   -0.224450
     7  H    0.223351
     8  H    0.226136
     9  H    0.276743
    10  H    0.274600
    11  H    0.219652
    12  N    0.487834
    13  O   -0.461185
    14  O   -0.459871
    15  C   -0.163898
    16  C   -0.225508
    17  C   -0.179847
    18  C    0.153671
    19  C   -0.174191
    20  C   -0.211089
    21  H    0.229310
    22  H    0.223714
    23  H    0.276959
    24  H    0.278803
    25  H    0.229968
    26  N    0.486538
    27  O   -0.457452
    28  O   -0.458808
 Sum of Mulliken charges =  -0.00000

 Dipole moment (field-independent basis, Debye):
    X=             -1.5329    Y=              6.0676    Z=              0.5864  Tot=              6.2856
 Quadrupole moment (field-independent basis, Debye-Ang):
   XX=           -145.2601   YY=           -101.0226   ZZ=           -101.3478
   XY=             -2.2625   XZ=             -9.2418   YZ=             -1.9963

 Normal termination of Gaussian 16 at Wed May  5 19:35:49 2021.
