 Gaussian 16, Revision A.03,
 Gaussian 16:  EM64L-G16RevA.03 25-Dec-2016

 -------------
 #p 6-31g* mp2
 -------------

 ------------------------------------------------------
 Input file generated by CHIRIPA (05-May-2021 14:51:10)
 ------------------------------------------------------
 Symbolic Z-matrix:
 Charge =  0 Multiplicity = 1

                         Standard orientation:
 ---------------------------------------------------------------------
 Center     Atomic      Atomic             Coordinates (Angstroms)
 Number     Number       Type             X           Y           Z
 ---------------------------------------------------------------------
      1          6           0       -3.726350    0.904537    0.300586
      2          6           0       -3.427479    2.142901   -0.545059
      3          6           0       -3.986244    3.426905    0.068872
      4          1           0       -4.813358    0.808929    0.427930
      5          1           0       -3.305057    1.045035    1.305657
      6          1           0       -3.848011    1.999530   -1.548659
      7          1           0       -2.341065    2.235464   -0.670566
      8          1           0       -3.557945    3.597210    1.061926
      9          1           0       -5.073453    3.359935    0.178843
     10          1           0       -3.761170    4.299734   -0.551911
     11          6           0       -3.174125   -0.386952   -0.300109
     12          6           0       -3.472996   -1.625316    0.545536
     13          6           0       -2.914231   -2.909320   -0.068394
     14          1           0       -3.595418   -0.527450   -1.305180
     15          1           0       -2.087117   -0.291344   -0.427453
     16          1           0       -4.559410   -1.717879    0.671043
     17          1           0       -3.052464   -1.481944    1.549136
     18          1           0       -1.827022   -2.842350   -0.178366
     19          1           0       -3.342531   -3.079625   -1.061448
     20          1           0       -3.139305   -3.782148    0.552389
     21          6           0        2.744103   -0.498066    0.165756
     22          6           0        2.445952   -1.908136   -0.344925
     23          6           0        1.029450   -2.372726   -0.005111
     24          1           0        2.599051   -0.470939    1.254411
     25          1           0        2.014526    0.202035   -0.264325
     26          1           0        3.176725   -2.605154    0.084903
     27          1           0        2.591916   -1.931958   -1.432465
     28          1           0        0.287057   -1.700426   -0.447227
     29          1           0        0.875189   -2.377446    1.078763
     30          1           0        0.837692   -3.383137   -0.379486
     31          6           0        4.156372   -0.019518   -0.166233
     32          6           0        4.454523    1.390551    0.344447
     33          6           0        5.871026    1.855140    0.004634
     34          1           0        4.885949   -0.719620    0.263848
     35          1           0        4.301423   -0.046646   -1.254888
     36          1           0        4.308559    1.414374    1.431987
     37          1           0        3.723751    2.087570   -0.085380
     38          1           0        6.025286    1.859862   -1.079240
     39          1           0        6.613418    1.182840    0.446749
     40          1           0        6.062783    2.865553    0.379008
 ---------------------------------------------------------------------

 SCF Done:  E(RHF) =  -470.732881228     A.U. after   11 cycles
 E2 =    -0.1583072975D+01 EUMP2 =    -0.47231595420308D+03

 The electronic state is 1-A.
 Alpha  occ. eigenvalues --  -11.21660 -11.21636 -11.21590 -11.21511 -11.21458
 Alpha  occ. eigenvalues --  -11.21395 -11.21372 -11.21312 -11.21162 -11.21097
 Alpha  occ. eigenvalues --  -11.21061 -11.20860  -1.08484  -1.08384  -1.03596
 Alpha  occ. eigenvalues --   -1.03458  -0.96065  -0.95895  -0.87105  -0.86897
 Alpha  occ. eigenvalues --   -0.79710  -0.79487  -0.78307  -0.78189  -0.65131
 Alpha  occ. eigenvalues --   -0.65003  -0.61040  -0.60825  -0.59413  -0.59288
 Alpha  occ. eigenvalues --   -0.57649  -0.57528  -0.55371  -0.55186  -0.52806
 Alpha  occ. eigenvalues --   -0.52605  -0.52481  -0.52265  -0.50034  -0.49807
 Alpha  occ. eigenvalues --   -0.48050  -0.47784  -0.46766  -0.46491  -0.45910
 Alpha  occ. eigenvalues --   -0.45782  -0.45705  -0.45500  -0.43818  -0.43728
 Alpha virt. eigenvalues --    0.21396   0.23021   0.23676   0.24697   0.25707
 Alpha virt. eigenvalues --    0.26672   0.27258   0.27300   0.28013   0.29105
 Alpha virt. eigenvalues --    0.30570   0.30762   0.31534   0.31856   0.32078

 Mulliken charges:
               1
     1  C   -0.298111
     2  C   -0.299551
     3  C   -0.475680
     4  H    0.149753
     5  H    0.149635
     6  H    0.151833
     7  H    0.151461
     8  H    0.155238
     9  H    0.155213
    10  H    0.160104
    11  C   -0.301649
    12  C   -0.298540
    13  C   -0.486095
    14  H    0.149363
    15  H    0.151567
    16  H    0.151384
    17  H    0.151548
    18  H    0.169418
    19  H    0.153720
    20  H    0.159120
    21  C   -0.298506
    22  C   -0.300214
    23  C   -0.481332
    24  H    0.149625
    25  H    0.149125
    26  H    0.152298
    27  H    0.152444
    28  H    0.158432
    29  H    0.156001
    30  H    0.161828
    31  C   -0.298356
    32  C   -0.299672
    33  C   -0.475742
    34  H    0.149720
    35  H    0.149853
    36  H    0.151939
    37  H    0.151926
    38  H    0.155277
    39  H    0.155253
    40  H    0.160371
 Sum of Mulliken charges =  -0.00000

 Dipole moment (field-independent basis, Debye):
    X=              0.0627    Y=             -0.0121    Z=              0.0004  Tot=              0.0638
 Quadrupole moment (field-independent basis, Debye-Ang):
   XX=            -85.1445   YY=            -85.8861   ZZ=            -83.8703
   XY=             -0.2643   XZ=              1.0218   YZ=             -0.5098

 Normal termination of Gaussian 16 at Wed May  5 15:10:22 2021.
