 Gaussian 16, Revision A.03,
 Gaussian 16:  EM64L-G16RevA.03 25-Dec-2016

 -------------
 #p 6-31g* mp2
 -------------

 ------------------------------------------------------
 Input file generated by CHIRIPA (05-May-2021 14:53:16)
 ------------------------------------------------------
 Symbolic Z-matrix:
 Charge =  0 Multiplicity = 1

                         Standard orientation:
 ---------------------------------------------------------------------
 Center     Atomic      Atomic             Coordinates (Angstroms)
 Number     Number       Type             X           Y           Z
 ---------------------------------------------------------------------
      1          6           0       -4.177831    0.227552   -0.400120
      2          6           0       -4.446655   -1.275290   -0.315362
      3          6           0       -5.590117   -1.723571   -1.226039
      4          1           0       -5.094187    0.772975   -0.136017
      5          1           0       -3.944855    0.493193   -1.440578
      6          1           0       -4.677698   -1.538244    0.724874
      7          1           0       -3.529498   -1.817197   -0.579512
      8          1           0       -5.364353   -1.489638   -2.271460
      9          1           0       -6.519077   -1.209100   -0.959663
     10          1           0       -5.765233   -2.801240   -1.149719
     11          6           0       -3.037457    0.690966    0.504602
     12          6           0       -2.768632    2.193808    0.419844
     13          6           0       -1.625170    2.642089    1.330521
     14          1           0       -3.270433    0.425326    1.545060
     15          1           0       -2.121101    0.145544    0.240499
     16          1           0       -3.685789    2.735716    0.683994
     17          1           0       -2.537589    2.456763   -0.620392
     18          1           0       -0.696211    2.127619    1.064146
     19          1           0       -1.850935    2.408156    2.375943
     20          1           0       -1.450054    3.719758    1.254201
     21          6           0        1.705505   -2.392695    0.954418
     22          6           0        3.062242   -2.432135    0.616436
     23          6           0        3.689304   -1.311164    0.064380
     24          6           0        2.926069   -0.162167   -0.137029
     25          6           0        1.572623   -0.091755    0.189339
     26          6           0        0.966330   -1.224689    0.740169
     27          1           0        1.226455   -3.268139    1.382793
     28          1           0        3.638772   -3.337863    0.781710
     29          1           0        4.738147   -1.314242   -0.206429
     30          1           0        1.024004    0.825460    0.012839
     31          1           0       -0.087487   -1.191181    1.001691
     32          7           0        3.578918    1.030888   -0.720817
     33          8           0        2.884477    2.031050   -0.888340
     34          8           0        4.772702    0.943252   -0.999813
 ---------------------------------------------------------------------

 SCF Done:  E(RHF) =  -669.535294650     A.U. after   15 cycles
 E2 =    -0.2092096890D+01 EUMP2 =    -0.67162739154040D+03

 The electronic state is 1-A.
 Alpha  occ. eigenvalues --  -20.60743 -20.60737 -15.85794 -11.31157 -11.27727
 Alpha  occ. eigenvalues --  -11.27714 -11.27462 -11.26745 -11.26706 -11.22210
 Alpha  occ. eigenvalues --  -11.22200 -11.22110 -11.21959 -11.21595 -11.21538
 Alpha  occ. eigenvalues --   -1.59817  -1.39371  -1.19328  -1.09064  -1.08722
 Alpha  occ. eigenvalues --   -1.04735  -1.04088  -0.96541  -0.95560  -0.87553
 Alpha  occ. eigenvalues --   -0.86129  -0.82397  -0.80153  -0.78916  -0.77435
 Alpha  occ. eigenvalues --   -0.72014  -0.71140  -0.70451  -0.65709  -0.64978
 Alpha  occ. eigenvalues --   -0.64746  -0.62168  -0.61407  -0.59894  -0.58155
 Alpha  occ. eigenvalues --   -0.55861  -0.55229  -0.53192  -0.53120  -0.53039
 Alpha  occ. eigenvalues --   -0.52687  -0.50466  -0.48776  -0.48770  -0.48461
 Alpha  occ. eigenvalues --   -0.47184  -0.46436  -0.46342  -0.44777  -0.44359
 Alpha  occ. eigenvalues --   -0.37308  -0.36331
 Alpha virt. eigenvalues --    0.05076   0.11303   0.16550   0.18965   0.22775
 Alpha virt. eigenvalues --    0.23540   0.24813   0.26089   0.26673   0.28427
 Alpha virt. eigenvalues --    0.29213   0.30492   0.31293   0.31479   0.31711

 Mulliken charges:
               1
     1  C   -0.298189
     2  C   -0.300074
     3  C   -0.475995
     4  H    0.152869
     5  H    0.152859
     6  H    0.151310
     7  H    0.148283
     8  H    0.157180
     9  H    0.156914
    10  H    0.160759
    11  C   -0.302969
    12  C   -0.301316
    13  C   -0.478602
    14  H    0.149821
    15  H    0.141863
    16  H    0.155482
    17  H    0.156729
    18  H    0.149411
    19  H    0.155727
    20  H    0.168894
    21  C   -0.171131
    22  C   -0.218616
    23  C   -0.170547
    24  C    0.160226
    25  C   -0.181022
    26  C   -0.225722
    27  H    0.225928
    28  H    0.223350
    29  H    0.275530
    30  H    0.284418
    31  H    0.230022
    32  N    0.487402
    33  O   -0.460272
    34  O   -0.460524
 Sum of Mulliken charges =  -0.00000

 Dipole moment (field-independent basis, Debye):
    X=             -2.4803    Y=             -4.0872    Z=              2.0325  Tot=              5.1951
 Quadrupole moment (field-independent basis, Debye-Ang):
   XX=           -104.0736   YY=            -92.3155   ZZ=            -95.9069
   XY=            -15.3584   XZ=              5.2677   YZ=              0.2408

 Normal termination of Gaussian 16 at Wed May  5 18:44:02 2021.
