 Gaussian 16, Revision A.03,
 Gaussian 16:  EM64L-G16RevA.03 25-Dec-2016

 -------------
 #p 6-31g* mp2
 -------------

 ------------------------------------------------------
 Input file generated by CHIRIPA (05-May-2021 14:55:21)
 ------------------------------------------------------
 Symbolic Z-matrix:
 Charge =  0 Multiplicity = 1

                         Standard orientation:
 ---------------------------------------------------------------------
 Center     Atomic      Atomic             Coordinates (Angstroms)
 Number     Number       Type             X           Y           Z
 ---------------------------------------------------------------------
      1          6           0       -1.849918    2.147535   -0.499084
      2          6           0       -1.184336    0.924957   -0.636290
      3          6           0       -1.855029   -0.278917   -0.400901
      4          6           0       -3.197128   -0.223023   -0.028161
      5          6           0       -3.887776    0.979168    0.116861
      6          6           0       -3.197139    2.170697   -0.123608
      7          1           0       -1.321162    3.077938   -0.683913
      8          1           0       -0.138083    0.903934   -0.927763
      9          1           0       -1.364033   -1.239419   -0.499779
     10          1           0       -4.930898    0.968144    0.408738
     11          1           0       -3.716583    3.118697   -0.016283
     12          7           0       -3.917717   -1.490977    0.223724
     13          8           0       -5.099969   -1.414734    0.550992
     14          8           0       -3.286619   -2.537032    0.089113
     15          6           0        3.885679   -0.656169   -0.265734
     16          6           0        4.762055   -1.742717    0.358255
     17          6           0        4.641892   -3.085633   -0.362808
     18          1           0        2.838285   -0.987507   -0.254619
     19          1           0        4.163213   -0.532530   -1.321709
     20          1           0        4.483891   -1.863301    1.413101
     21          1           0        5.807462   -1.408673    0.345827
     22          1           0        4.939024   -2.987511   -1.411945
     23          1           0        3.607934   -3.444723   -0.338606
     24          1           0        5.276666   -3.847866    0.099709
     25          6           0        3.994938    0.692135    0.444101
     26          6           0        3.118562    1.778684   -0.179887
     27          6           0        3.238726    3.121600    0.541176
     28          1           0        3.717405    0.568496    1.500077
     29          1           0        5.042333    1.023474    0.432986
     30          1           0        2.073156    1.444639   -0.167459
     31          1           0        3.396725    1.899268   -1.234734
     32          1           0        4.272683    3.480690    0.516973
     33          1           0        2.941593    3.023478    1.590312
     34          1           0        2.603952    3.883833    0.078658
 ---------------------------------------------------------------------

 SCF Done:  E(RHF) =  -669.535579069     A.U. after   15 cycles
 E2 =    -0.2091106672D+01 EUMP2 =    -0.67162668574123D+03

 The electronic state is 1-A.
 Alpha  occ. eigenvalues --  -20.60758 -20.60753 -15.85811 -11.31175 -11.27747
 Alpha  occ. eigenvalues --  -11.27742 -11.27484 -11.26758 -11.26726 -11.22588
 Alpha  occ. eigenvalues --  -11.22100 -11.22049 -11.21990 -11.21934 -11.21385
 Alpha  occ. eigenvalues --   -1.59833  -1.39387  -1.19348  -1.09115  -1.08741
 Alpha  occ. eigenvalues --   -1.04752  -1.04185  -0.96608  -0.95577  -0.87626
 Alpha  occ. eigenvalues --   -0.86151  -0.82411  -0.80284  -0.78918  -0.77456
 Alpha  occ. eigenvalues --   -0.72029  -0.71156  -0.70454  -0.65771  -0.64999
 Alpha  occ. eigenvalues --   -0.64751  -0.62136  -0.61543  -0.60007  -0.58225
 Alpha  occ. eigenvalues --   -0.55876  -0.55251  -0.53319  -0.53081  -0.53045
 Alpha  occ. eigenvalues --   -0.52844  -0.50542  -0.48806  -0.48785  -0.48558
 Alpha  occ. eigenvalues --   -0.47304  -0.46450  -0.46350  -0.44793  -0.44440
 Alpha  occ. eigenvalues --   -0.37326  -0.36352
 Alpha virt. eigenvalues --    0.05078   0.11236   0.16547   0.19628   0.22682
 Alpha virt. eigenvalues --    0.23763   0.24710   0.26405   0.27018   0.28420
 Alpha virt. eigenvalues --    0.29083   0.30117   0.31136   0.31324   0.32096

 Mulliken charges:
               1
     1  C   -0.172391
     2  C   -0.225058
     3  C   -0.172325
     4  C    0.158796
     5  C   -0.171036
     6  C   -0.218584
     7  H    0.225849
     8  H    0.232950
     9  H    0.275522
    10  H    0.275575
    11  H    0.223394
    12  N    0.488035
    13  O   -0.460475
    14  O   -0.460527
    15  C   -0.298040
    16  C   -0.300337
    17  C   -0.476387
    18  H    0.144715
    19  H    0.150241
    20  H    0.153876
    21  H    0.153170
    22  H    0.155389
    23  H    0.156537
    24  H    0.162634
    25  C   -0.298140
    26  C   -0.305954
    27  C   -0.475186
    28  H    0.152340
    29  H    0.152838
    30  H    0.145413
    31  H    0.153414
    32  H    0.159508
    33  H    0.158223
    34  H    0.156018
 Sum of Mulliken charges =  -0.00000

 Dipole moment (field-independent basis, Debye):
    X=              2.7297    Y=              4.4491    Z=             -0.8351  Tot=              5.2861
 Quadrupole moment (field-independent basis, Debye-Ang):
   XX=           -106.2295   YY=            -96.6807   ZZ=            -95.1009
   XY=            -17.2902   XZ=              1.4693   YZ=              0.1511

 Normal termination of Gaussian 16 at Thu May  6 17:30:05 2021.
