 Gaussian 16, Revision A.03,
 Gaussian 16:  EM64L-G16RevA.03 25-Dec-2016

 -------------
 #p 6-31g* mp2
 -------------

 ------------------------------------------------------
 Input file generated by CHIRIPA (05-May-2021 14:57:23)
 ------------------------------------------------------
 Symbolic Z-matrix:
 Charge =  0 Multiplicity = 1

                         Standard orientation:
 ---------------------------------------------------------------------
 Center     Atomic      Atomic             Coordinates (Angstroms)
 Number     Number       Type             X           Y           Z
 ---------------------------------------------------------------------
      1          6           0        2.486883    1.891564   -0.772339
      2          6           0        2.121511    0.930556    0.176074
      3          6           0        3.016971   -0.076801    0.547464
      4          6           0        4.275268   -0.093254   -0.052293
      5          6           0        4.668781    0.850064   -1.000232
      6          6           0        3.757113    1.848327   -1.356436
      7          1           0        1.784973    2.670571   -1.054945
      8          1           0        1.135706    0.961672    0.631338
      9          1           0        2.760127   -0.833273    1.279036
     10          1           0        5.658559    0.793098   -1.436708
     11          1           0        4.043593    2.593349   -2.093265
     12          7           0        5.231831   -1.154884    0.332842
     13          8           0        6.334416   -1.147472   -0.210195
     14          8           0        4.860888   -1.974299    1.170456
     15          6           0       -2.065079    0.861519    1.239746
     16          6           0       -1.949237   -0.230258    0.373071
     17          6           0       -3.079726   -0.761116   -0.255206
     18          6           0       -4.316047   -0.172904    0.007105
     19          6           0       -4.463898    0.915509    0.865469
     20          6           0       -3.319828    1.429916    1.482751
     21          1           0       -1.181612    1.267512    1.723537
     22          1           0       -0.976061   -0.673709    0.182483
     23          1           0       -3.018665   -1.605760   -0.930681
     24          1           0       -5.447474    1.336216    1.035769
     25          1           0       -3.412792    2.277864    2.155347
     26          7           0       -5.520034   -0.726191   -0.652204
     27          8           0       -6.597866   -0.189953   -0.404485
     28          8           0       -5.363089   -1.685618   -1.404204
 ---------------------------------------------------------------------

 SCF Done:  E(RHF) =  -868.336356375     A.U. after   16 cycles
 E2 =    -0.2600169836D+01 EUMP2 =    -0.87093652621155D+03

 The electronic state is 1-A.
 Alpha  occ. eigenvalues --  -20.61370 -20.61361 -20.61256 -20.61251 -15.86431
 Alpha  occ. eigenvalues --  -15.86315 -11.31939 -11.31839 -11.28619 -11.28506
 Alpha  occ. eigenvalues --  -11.28417 -11.28401 -11.28328 -11.28320 -11.27731
 Alpha  occ. eigenvalues --  -11.27541 -11.27510 -11.27491  -1.60442  -1.60328
 Alpha  occ. eigenvalues --   -1.39991  -1.39877  -1.20148  -1.20039  -1.09514
 Alpha  occ. eigenvalues --   -1.09434  -1.05596  -1.05452  -0.96314  -0.96239
 Alpha  occ. eigenvalues --   -0.87013  -0.86843  -0.83162  -0.83052  -0.78202
 Alpha  occ. eigenvalues --   -0.78034  -0.72645  -0.72532  -0.71768  -0.71652
 Alpha  occ. eigenvalues --   -0.71261  -0.71215  -0.65854  -0.65805  -0.65661
 Alpha  occ. eigenvalues --   -0.65319  -0.62997  -0.62719  -0.56130  -0.56001
 Alpha  occ. eigenvalues --   -0.53901  -0.53814  -0.53698  -0.53501  -0.49416
 Alpha  occ. eigenvalues --   -0.49390  -0.49304  -0.49274  -0.45365  -0.45246
 Alpha  occ. eigenvalues --   -0.38130  -0.38065  -0.37203  -0.37038
 Alpha virt. eigenvalues --    0.04378   0.04468   0.10348   0.10630   0.15757
 Alpha virt. eigenvalues --    0.15878   0.17892   0.22016   0.24749   0.26437
 Alpha virt. eigenvalues --    0.27680   0.28744   0.29804   0.31008   0.31793

 Mulliken charges:
               1
     1  C   -0.171297
     2  C   -0.224295
     3  C   -0.172709
     4  C    0.159371
     5  C   -0.169062
     6  C   -0.218340
     7  H    0.228015
     8  H    0.217295
     9  H    0.275579
    10  H    0.278529
    11  H    0.226729
    12  N    0.488085
    13  O   -0.457866
    14  O   -0.459651
    15  C   -0.176504
    16  C   -0.220149
    17  C   -0.169967
    18  C    0.159291
    19  C   -0.170249
    20  C   -0.217507
    21  H    0.219786
    22  H    0.221947
    23  H    0.278740
    24  H    0.277871
    25  H    0.225361
    26  N    0.487879
    27  O   -0.458648
    28  O   -0.458234
 Sum of Mulliken charges =  -0.00000

 Dipole moment (field-independent basis, Debye):
    X=              0.8878    Y=              5.6810    Z=              0.8246  Tot=              5.8088
 Quadrupole moment (field-independent basis, Debye-Ang):
   XX=           -164.9520   YY=           -103.9261   ZZ=           -102.6317
   XY=              6.6254   XZ=            -19.9554   YZ=             -0.1480

 Normal termination of Gaussian 16 at Thu May  6 14:37:57 2021.
