 Gaussian 16, Revision A.03,
 Gaussian 16:  EM64L-G16RevA.03 25-Dec-2016

 -------------
 #p 6-31g* mp2
 -------------

 ------------------------------------------------------
 Input file generated by CHIRIPA (05-May-2021 14:51:12)
 ------------------------------------------------------
 Symbolic Z-matrix:
 Charge =  0 Multiplicity = 1

                         Standard orientation:
 ---------------------------------------------------------------------
 Center     Atomic      Atomic             Coordinates (Angstroms)
 Number     Number       Type             X           Y           Z
 ---------------------------------------------------------------------
      1          6           0       -3.164155    0.592113   -0.044476
      2          6           0       -3.649399    2.033675   -0.200752
      3          6           0       -2.513399    3.052979   -0.109546
      4          1           0       -2.652036    0.487050    0.921775
      5          1           0       -2.415485    0.378509   -0.819886
      6          1           0       -4.397945    2.244061    0.573865
      7          1           0       -4.160590    2.135271   -1.166660
      8          1           0       -1.769088    2.871296   -0.891591
      9          1           0       -2.007792    2.980704    0.858823
     10          1           0       -2.882627    4.076919   -0.223899
     11          6           0       -4.288288   -0.438494   -0.133357
     12          6           0       -3.803044   -1.880056    0.022920
     13          6           0       -4.939044   -2.899360   -0.068286
     14          1           0       -5.036959   -0.224890    0.642054
     15          1           0       -4.800407   -0.333431   -1.099608
     16          1           0       -3.291853   -1.981652    0.988828
     17          1           0       -3.054498   -2.090443   -0.751697
     18          1           0       -5.444651   -2.827085   -1.036655
     19          1           0       -5.683355   -2.717677    0.713759
     20          1           0       -4.569816   -3.923301    0.046066
     21          6           0        3.141317    0.413023    0.126105
     22          6           0        1.801370   -0.263556    0.417253
     23          6           0        0.640907    0.729434    0.488615
     24          1           0        3.344128    1.160844    0.904936
     25          1           0        3.068393    0.962012   -0.822941
     26          1           0        1.877227   -0.812243    1.364779
     27          1           0        1.601816   -1.009988   -0.362256
     28          1           0        0.536603    1.268772   -0.458398
     29          1           0        0.813577    1.467640    1.278449
     30          1           0       -0.307319    0.224429    0.697651
     31          6           0        4.311126   -0.566642    0.051728
     32          6           0        5.651073    0.109937   -0.239421
     33          6           0        6.811535   -0.883053   -0.310783
     34          1           0        4.384050   -1.115630    1.000773
     35          1           0        4.108316   -1.314463   -0.727103
     36          1           0        5.850626    0.856369    0.540087
     37          1           0        5.575217    0.658624   -1.186947
     38          1           0        6.638867   -1.621259   -1.100616
     39          1           0        6.915841   -1.422391    0.636230
     40          1           0        7.759762   -0.378048   -0.519819
 ---------------------------------------------------------------------

 SCF Done:  E(RHF) =  -470.732275296     A.U. after   11 cycles
 E2 =    -0.1583546827D+01 EUMP2 =    -0.47231582212301D+03

 The electronic state is 1-A.
 Alpha  occ. eigenvalues --  -11.21613 -11.21572 -11.21563 -11.21513 -11.21376
 Alpha  occ. eigenvalues --  -11.21356 -11.21307 -11.21294 -11.21078 -11.21049
 Alpha  occ. eigenvalues --  -11.20983 -11.20878  -1.08427  -1.08367  -1.03529
 Alpha  occ. eigenvalues --   -1.03445  -0.95955  -0.95915  -0.86977  -0.86935
 Alpha  occ. eigenvalues --   -0.79681  -0.79453  -0.78269  -0.78143  -0.65067
 Alpha  occ. eigenvalues --   -0.64993  -0.60949  -0.60827  -0.59462  -0.59177
 Alpha  occ. eigenvalues --   -0.57735  -0.57373  -0.55258  -0.55187  -0.52804
 Alpha  occ. eigenvalues --   -0.52615  -0.52493  -0.52097  -0.49928  -0.49840
 Alpha  occ. eigenvalues --   -0.47912  -0.47806  -0.46683  -0.46506  -0.45800
 Alpha  occ. eigenvalues --   -0.45733  -0.45705  -0.45599  -0.43770  -0.43578
 Alpha virt. eigenvalues --    0.21967   0.23098   0.23658   0.24513   0.25780
 Alpha virt. eigenvalues --    0.26487   0.26799   0.27204   0.27953   0.29539
 Alpha virt. eigenvalues --    0.29938   0.31325   0.31634   0.32140   0.32319

 Mulliken charges:
               1
     1  C   -0.301969
     2  C   -0.299577
     3  C   -0.476455
     4  H    0.151707
     5  H    0.152264
     6  H    0.151437
     7  H    0.151445
     8  H    0.156452
     9  H    0.157196
    10  H    0.159225
    11  C   -0.297420
    12  C   -0.300103
    13  C   -0.475550
    14  H    0.149292
    15  H    0.149464
    16  H    0.151442
    17  H    0.151836
    18  H    0.155247
    19  H    0.155247
    20  H    0.160268
    21  C   -0.298370
    22  C   -0.300247
    23  C   -0.480468
    24  H    0.149486
    25  H    0.149156
    26  H    0.151179
    27  H    0.151194
    28  H    0.154713
    29  H    0.153432
    30  H    0.168938
    31  C   -0.298097
    32  C   -0.299552
    33  C   -0.475654
    34  H    0.149371
    35  H    0.149419
    36  H    0.151885
    37  H    0.151816
    38  H    0.155088
    39  H    0.155120
    40  H    0.160142
 Sum of Mulliken charges =  -0.00000

 Dipole moment (field-independent basis, Debye):
    X=             -0.0440    Y=              0.0083    Z=              0.0016  Tot=              0.0448
 Quadrupole moment (field-independent basis, Debye-Ang):
   XX=            -86.3494   YY=            -85.9191   ZZ=            -82.7201
   XY=             -0.0347   XZ=              0.0547   YZ=              0.1114

 Normal termination of Gaussian 16 at Wed May  5 23:08:18 2021.
