 Gaussian 16, Revision A.03,
 Gaussian 16:  EM64L-G16RevA.03 25-Dec-2016

 -------------
 #p 6-31g* mp2
 -------------

 ------------------------------------------------------
 Input file generated by CHIRIPA (05-May-2021 14:57:26)
 ------------------------------------------------------
 Symbolic Z-matrix:
 Charge =  0 Multiplicity = 1

                         Standard orientation:
 ---------------------------------------------------------------------
 Center     Atomic      Atomic             Coordinates (Angstroms)
 Number     Number       Type             X           Y           Z
 ---------------------------------------------------------------------
      1          6           0       -0.754737   -0.674388    0.781563
      2          6           0       -1.024521    0.320021   -0.164422
      3          6           0       -2.340928    0.605479   -0.538767
      4          6           0       -3.367919   -0.126177    0.055591
      5          6           0       -3.131289   -1.122924    1.000996
      6          6           0       -1.807126   -1.391423    1.360233
      7          1           0        0.270892   -0.889552    1.066494
      8          1           0       -0.209213    0.878475   -0.615473
      9          1           0       -2.578165    1.370029   -1.268560
     10          1           0       -3.965012   -1.662801    1.433265
     11          1           0       -1.600583   -2.164248    2.095165
     12          7           0       -4.765645    0.167048   -0.332714
     13          8           0       -5.652709   -0.491741    0.205573
     14          8           0       -4.947653    1.050113   -1.168002
     15          6           0        2.596113    2.511584    0.661963
     16          6           0        2.288239    2.121827   -0.645640
     17          6           0        2.583705    0.829449   -1.089494
     18          6           0        3.189901   -0.051436   -0.195145
     19          6           0        3.508967    0.307044    1.113663
     20          6           0        3.204423    1.604547    1.535901
     21          1           0        2.363062    3.517525    0.998363
     22          1           0        1.815807    2.824133   -1.326535
     23          1           0        2.356233    0.501378   -2.096491
     24          1           0        3.979792   -0.415288    1.769391
     25          1           0        3.444661    1.904477    2.551957
     26          7           0        3.507504   -1.422332   -0.653591
     27          8           0        4.041664   -2.179618    0.153767
     28          8           0        3.216266   -1.713597   -1.811600
 ---------------------------------------------------------------------

 SCF Done:  E(RHF) =  -868.336699420     A.U. after   16 cycles
 E2 =    -0.2602844731D+01 EUMP2 =    -0.87093954415137D+03

 The electronic state is 1-A.
 Alpha  occ. eigenvalues --  -20.61869 -20.61853 -20.60765 -20.60756 -15.86928
 Alpha  occ. eigenvalues --  -15.85813 -11.32510 -11.31138 -11.29066 -11.29056
 Alpha  occ. eigenvalues --  -11.28749 -11.28071 -11.28026 -11.27709 -11.27684
 Alpha  occ. eigenvalues --  -11.27376 -11.26678 -11.26582  -1.60945  -1.59839
 Alpha  occ. eigenvalues --   -1.40487  -1.39395  -1.20703  -1.19293  -1.10013
 Alpha  occ. eigenvalues --   -1.08689  -1.06117  -1.04693  -0.96813  -0.95537
 Alpha  occ. eigenvalues --   -0.87455  -0.86097  -0.83635  -0.82377  -0.78669
 Alpha  occ. eigenvalues --   -0.77445  -0.73120  -0.72311  -0.72033  -0.71687
 Alpha  occ. eigenvalues --   -0.71162  -0.70397  -0.66301  -0.66032  -0.64942
 Alpha  occ. eigenvalues --   -0.64758  -0.63401  -0.62093  -0.56492  -0.55203
 Alpha  occ. eigenvalues --   -0.54477  -0.54127  -0.53023  -0.52683  -0.49903
 Alpha  occ. eigenvalues --   -0.49873  -0.48795  -0.48787  -0.45839  -0.44810
 Alpha  occ. eigenvalues --   -0.38669  -0.37688  -0.37230  -0.36295
 Alpha virt. eigenvalues --    0.03821   0.05098   0.09758   0.11437   0.15202
 Alpha virt. eigenvalues --    0.16609   0.20138   0.21681   0.25791   0.27209
 Alpha virt. eigenvalues --    0.27693   0.28116   0.29893   0.31407   0.31688

 Mulliken charges:
               1
     1  C   -0.175055
     2  C   -0.221693
     3  C   -0.174132
     4  C    0.159040
     5  C   -0.171344
     6  C   -0.218465
     7  H    0.226398
     8  H    0.226154
     9  H    0.272349
    10  H    0.275486
    11  H    0.224610
    12  N    0.488084
    13  O   -0.460148
    14  O   -0.461956
    15  C   -0.167850
    16  C   -0.228535
    17  C   -0.179932
    18  C    0.157879
    19  C   -0.176681
    20  C   -0.217611
    21  H    0.232117
    22  H    0.228766
    23  H    0.280949
    24  H    0.279256
    25  H    0.229017
    26  N    0.487112
    27  O   -0.458183
    28  O   -0.455632
 Sum of Mulliken charges =  -0.00000

 Dipole moment (field-independent basis, Debye):
    X=              4.1866    Y=              3.8489    Z=              3.0558  Tot=              6.4560
 Quadrupole moment (field-independent basis, Debye-Ang):
   XX=           -144.5960   YY=           -102.7801   ZZ=            -99.6007
   XY=             19.7333   XZ=              1.9019   YZ=             -4.7417

 Normal termination of Gaussian 16 at Thu May  6 09:55:24 2021.
