 Gaussian 16, Revision A.03,
 Gaussian 16:  EM64L-G16RevA.03 25-Dec-2016

 -------------
 #p 6-31g* mp2
 -------------

 ------------------------------------------------------
 Input file generated by CHIRIPA (05-May-2021 14:51:11)
 ------------------------------------------------------
 Symbolic Z-matrix:
 Charge =  0 Multiplicity = 1

                         Standard orientation:
 ---------------------------------------------------------------------
 Center     Atomic      Atomic             Coordinates (Angstroms)
 Number     Number       Type             X           Y           Z
 ---------------------------------------------------------------------
      1          6           0        3.135780   -0.126456    0.429334
      2          6           0        2.833707   -1.586793    0.767199
      3          6           0        1.374259   -1.812197    1.163430
      4          1           0        2.888166    0.502429    1.295438
      5          1           0        2.478404    0.196676   -0.389712
      6          1           0        3.492416   -1.907486    1.584435
      7          1           0        3.082249   -2.212296   -0.099743
      8          1           0        0.704215   -1.519110    0.348726
      9          1           0        1.116713   -1.212569    2.042473
     10          1           0        1.180383   -2.862876    1.400803
     11          6           0        4.590806    0.114799    0.031312
     12          6           0        4.892880    1.575136   -0.306553
     13          6           0        6.352328    1.800541   -0.702784
     14          1           0        5.248183   -0.208333    0.850358
     15          1           0        4.838420   -0.514085   -0.834792
     16          1           0        4.644337    2.200640    0.560389
     17          1           0        4.234171    1.895830   -1.123789
     18          1           0        6.609874    1.200912   -1.581827
     19          1           0        7.022371    1.507454    0.111920
     20          1           0        6.546203    2.851220   -0.940157
     21          6           0       -4.377384    0.362334    0.207908
     22          6           0       -4.618769    1.815833   -0.200819
     23          6           0       -5.649747    2.515659    0.685254
     24          1           0       -5.328756   -0.185678    0.168941
     25          1           0       -4.042792    0.333686    1.254151
     26          1           0       -4.951479    1.841832   -1.246401
     27          1           0       -3.666678    2.360402   -0.161058
     28          1           0       -5.321070    2.519309    1.729552
     29          1           0       -6.613172    1.997793    0.638042
     30          1           0       -5.806919    3.553524    0.375424
     31          6           0       -3.349202   -0.350677   -0.668554
     32          6           0       -3.107817   -1.804177   -0.259828
     33          6           0       -2.076840   -2.504003   -1.145899
     34          1           0       -3.683794   -0.322029   -1.714796
     35          1           0       -2.397831    0.197334   -0.629587
     36          1           0       -4.059909   -2.348745   -0.299588
     37          1           0       -2.775107   -1.830176    0.785756
     38          1           0       -1.113415   -1.986137   -1.098687
     39          1           0       -2.405517   -2.507653   -2.190198
     40          1           0       -1.919668   -3.541868   -0.836070
 ---------------------------------------------------------------------

 SCF Done:  E(RHF) =  -470.733217227     A.U. after   11 cycles
 E2 =    -0.1582394197D+01 EUMP2 =    -0.47231561142326D+03

 The electronic state is 1-A.
 Alpha  occ. eigenvalues --  -11.21616 -11.21614 -11.21584 -11.21560 -11.21425
 Alpha  occ. eigenvalues --  -11.21381 -11.21365 -11.21322 -11.21080 -11.21077
 Alpha  occ. eigenvalues --  -11.21057 -11.21024  -1.08448  -1.08403  -1.03553
 Alpha  occ. eigenvalues --   -1.03494  -0.96018  -0.95932  -0.87045  -0.86939
 Alpha  occ. eigenvalues --   -0.79630  -0.79543  -0.78263  -0.78215  -0.65107
 Alpha  occ. eigenvalues --   -0.65012  -0.61073  -0.60794  -0.59371  -0.59310
 Alpha  occ. eigenvalues --   -0.57634  -0.57541  -0.55498  -0.55058  -0.52697
 Alpha  occ. eigenvalues --   -0.52631  -0.52479  -0.52324  -0.50140  -0.49695
 Alpha  occ. eigenvalues --   -0.47987  -0.47819  -0.46743  -0.46473  -0.45826
 Alpha  occ. eigenvalues --   -0.45760  -0.45714  -0.45636  -0.43801  -0.43755
 Alpha virt. eigenvalues --    0.21391   0.23025   0.23608   0.24861   0.26132
 Alpha virt. eigenvalues --    0.26751   0.27308   0.27633   0.27713   0.29010
 Alpha virt. eigenvalues --    0.30148   0.31543   0.31634   0.31989   0.32078

 Mulliken charges:
               1
     1  C   -0.298335
     2  C   -0.299492
     3  C   -0.480693
     4  H    0.149542
     5  H    0.149115
     6  H    0.151996
     7  H    0.152266
     8  H    0.159987
     9  H    0.154689
    10  H    0.160808
    11  C   -0.298312
    12  C   -0.299688
    13  C   -0.475723
    14  H    0.149605
    15  H    0.149812
    16  H    0.151886
    17  H    0.151955
    18  H    0.155253
    19  H    0.155201
    20  H    0.160289
    21  C   -0.298295
    22  C   -0.299666
    23  C   -0.475692
    24  H    0.149589
    25  H    0.149735
    26  H    0.151819
    27  H    0.151982
    28  H    0.155192
    29  H    0.155141
    30  H    0.160177
    31  C   -0.298343
    32  C   -0.300075
    33  C   -0.479018
    34  H    0.149324
    35  H    0.149285
    36  H    0.151783
    37  H    0.153209
    38  H    0.158662
    39  H    0.154646
    40  H    0.160381
 Sum of Mulliken charges =  -0.00000

 Dipole moment (field-independent basis, Debye):
    X=              0.0110    Y=             -0.0103    Z=              0.0077  Tot=              0.0169
 Quadrupole moment (field-independent basis, Debye-Ang):
   XX=            -85.7569   YY=            -85.1818   ZZ=            -83.8360
   XY=              0.4065   XZ=              1.3876   YZ=              0.0995

 Normal termination of Gaussian 16 at Wed May  5 19:49:59 2021.
