 Gaussian 16, Revision A.03,
 Gaussian 16:  EM64L-G16RevA.03 25-Dec-2016

 -------------
 #p 6-31g* mp2
 -------------

 ------------------------------------------------------
 Input file generated by CHIRIPA (05-May-2021 14:53:12)
 ------------------------------------------------------
 Symbolic Z-matrix:
 Charge =  0 Multiplicity = 1

                         Standard orientation:
 ---------------------------------------------------------------------
 Center     Atomic      Atomic             Coordinates (Angstroms)
 Number     Number       Type             X           Y           Z
 ---------------------------------------------------------------------
      1          6           0       -3.333230   -0.364808   -0.569055
      2          6           0       -4.366541   -1.491666   -0.547965
      3          6           0       -3.941017   -2.699637   -1.383148
      4          1           0       -3.162336   -0.052030   -1.608242
      5          1           0       -2.373725   -0.749577   -0.196632
      6          1           0       -5.324174   -1.104528   -0.919016
      7          1           0       -4.535136   -1.801668    0.491309
      8          1           0       -2.998143   -3.112784   -1.010457
      9          1           0       -3.791664   -2.411683   -2.428795
     10          1           0       -4.694174   -3.493216   -1.354053
     11          6           0       -3.744350    0.849758    0.261329
     12          6           0       -2.711039    1.976616    0.240239
     13          6           0       -3.136563    3.184586    1.075422
     14          1           0       -4.703855    1.234526   -0.111093
     15          1           0       -3.915243    0.536979    1.300516
     16          1           0       -2.542443    2.286618   -0.799035
     17          1           0       -1.753405    1.589478    0.611290
     18          1           0       -3.285916    2.896632    2.121069
     19          1           0       -4.079437    3.597733    0.702731
     20          1           0       -2.383405    3.978165    1.046327
     21          6           0        1.311994   -1.603428    1.622285
     22          6           0        0.769339   -0.493434    0.966571
     23          6           0        1.564880    0.297150    0.131922
     24          6           0        2.905120   -0.052734   -0.025010
     25          6           0        3.474994   -1.152465    0.614617
     26          6           0        2.660711   -1.928827    1.444530
     27          1           0        0.686719   -2.212049    2.268820
     28          1           0       -0.277767   -0.238351    1.102753
     29          1           0        1.170552    1.161925   -0.387779
     30          1           0        4.522232   -1.381719    0.459207
     31          1           0        3.084846   -2.790291    1.952502
     32          7           0        3.757244    0.776695   -0.906108
     33          8           0        4.935100    0.447316   -1.027770
     34          8           0        3.231148    1.740474   -1.458367
 ---------------------------------------------------------------------

 SCF Done:  E(RHF) =  -669.535175321     A.U. after   15 cycles
 E2 =    -0.2092049120D+01 EUMP2 =    -0.67162722444061D+03

 The electronic state is 1-A.
 Alpha  occ. eigenvalues --  -20.60736 -20.60731 -15.85790 -11.31155 -11.27735
 Alpha  occ. eigenvalues --  -11.27715 -11.27481 -11.26747 -11.26707 -11.22502
 Alpha  occ. eigenvalues --  -11.22272 -11.22206 -11.22149 -11.21697 -11.21626
 Alpha  occ. eigenvalues --   -1.59812  -1.39365  -1.19332  -1.09220  -1.08728
 Alpha  occ. eigenvalues --   -1.04736  -1.04239  -0.96662  -0.95562  -0.87675
 Alpha  occ. eigenvalues --   -0.86139  -0.82402  -0.80320  -0.79052  -0.77432
 Alpha  occ. eigenvalues --   -0.72008  -0.71134  -0.70444  -0.65958  -0.64984
 Alpha  occ. eigenvalues --   -0.64690  -0.62119  -0.61609  -0.60025  -0.58278
 Alpha  occ. eigenvalues --   -0.55953  -0.55245  -0.53343  -0.53104  -0.53037
 Alpha  occ. eigenvalues --   -0.52839  -0.50611  -0.48775  -0.48763  -0.48619
 Alpha  occ. eigenvalues --   -0.47372  -0.46534  -0.46474  -0.44770  -0.44506
 Alpha  occ. eigenvalues --   -0.37316  -0.36330
 Alpha virt. eigenvalues --    0.05092   0.11247   0.16532   0.19104   0.22787
 Alpha virt. eigenvalues --    0.23565   0.24907   0.26222   0.27051   0.28067
 Alpha virt. eigenvalues --    0.29391   0.30457   0.31207   0.31321   0.32363

 Mulliken charges:
               1
     1  C   -0.302159
     2  C   -0.299881
     3  C   -0.475928
     4  H    0.154644
     5  H    0.142644
     6  H    0.155048
     7  H    0.150645
     8  H    0.153588
     9  H    0.158097
    10  H    0.162147
    11  C   -0.299180
    12  C   -0.304765
    13  C   -0.475766
    14  H    0.154457
    15  H    0.148338
    16  H    0.157851
    17  H    0.142381
    18  H    0.155182
    19  H    0.158746
    20  H    0.164277
    21  C   -0.171924
    22  C   -0.225848
    23  C   -0.173387
    24  C    0.158669
    25  C   -0.170779
    26  C   -0.218553
    27  H    0.225541
    28  H    0.233496
    29  H    0.276412
    30  H    0.275564
    31  H    0.223275
    32  N    0.488154
    33  O   -0.460686
    34  O   -0.460300
 Sum of Mulliken charges =  -0.00000

 Dipole moment (field-independent basis, Debye):
    X=             -3.1945    Y=             -2.8548    Z=              3.0235  Tot=              5.2437
 Quadrupole moment (field-independent basis, Debye-Ang):
   XX=           -108.4254   YY=            -93.4776   ZZ=            -95.0329
   XY=            -11.3601   XZ=             10.7809   YZ=             -1.6633

 Normal termination of Gaussian 16 at Thu May  6 10:23:49 2021.
