 Gaussian 16, Revision A.03,
 Gaussian 16:  EM64L-G16RevA.03 25-Dec-2016

 -------------
 #p 6-31g* mp2
 -------------

 ------------------------------------------------------
 Input file generated by CHIRIPA (05-May-2021 14:51:07)
 ------------------------------------------------------
 Symbolic Z-matrix:
 Charge =  0 Multiplicity = 1

                         Standard orientation:
 ---------------------------------------------------------------------
 Center     Atomic      Atomic             Coordinates (Angstroms)
 Number     Number       Type             X           Y           Z
 ---------------------------------------------------------------------
      1          6           0        2.894294   -0.194153   -0.040328
      2          6           0        4.283634   -0.138706    0.595790
      3          6           0        4.862717    1.275993    0.628669
      4          1           0        2.949810    0.204703   -1.062472
      5          1           0        2.216810    0.467496    0.517013
      6          1           0        4.957952   -0.801326    0.038255
      7          1           0        4.224842   -0.537918    1.616471
      8          1           0        4.212954    1.944993    1.202121
      9          1           0        4.950229    1.680088   -0.385062
     10          1           0        5.856260    1.292539    1.087426
     11          6           0        2.302118   -1.601791   -0.080467
     12          6           0        0.912779   -1.657238   -0.716586
     13          6           0        0.333695   -3.071938   -0.749464
     14          1           0        2.979602   -2.263441   -0.637809
     15          1           0        2.246603   -2.000647    0.941676
     16          1           0        0.971570   -1.258026   -1.737267
     17          1           0        0.238461   -0.994618   -0.159051
     18          1           0        0.246184   -3.476033    0.264266
     19          1           0        0.983459   -3.740937   -1.322917
     20          1           0       -0.659848   -3.088483   -1.208222
     21          6           0       -3.166155    0.429050   -0.142034
     22          6           0       -3.589941   -0.526954    0.973514
     23          6           0       -4.727079   -1.458695    0.553313
     24          1           0       -4.034237    1.025432   -0.454614
     25          1           0       -2.856813   -0.156159   -1.019093
     26          1           0       -3.897079    0.059863    1.848687
     27          1           0       -2.720704   -1.120994    1.283606
     28          1           0       -4.427879   -2.068947   -0.304984
     29          1           0       -5.610937   -0.881379    0.263308
     30          1           0       -5.014189   -2.133498    1.365759
     31          6           0       -2.030258    1.366895    0.262830
     32          6           0       -1.606472    2.322898   -0.852718
     33          6           0       -0.469333    3.254640   -0.432517
     34          1           0       -2.339599    1.952103    1.139889
     35          1           0       -1.162175    0.770512    0.575410
     36          1           0       -2.475709    2.916940   -1.162811
     37          1           0       -1.299334    1.736081   -1.727891
     38          1           0        0.414525    2.677324   -0.142513
     39          1           0       -0.768534    3.864891    0.425778
     40          1           0       -0.182224    3.929443   -1.244964
 ---------------------------------------------------------------------

 SCF Done:  E(RHF) =  -470.733369895     A.U. after   11 cycles
 E2 =    -0.1583898151D+01 EUMP2 =    -0.47231726804578D+03

 The electronic state is 1-A.
 Alpha  occ. eigenvalues --  -11.21675 -11.21646 -11.21603 -11.21571 -11.21480
 Alpha  occ. eigenvalues --  -11.21420 -11.21394 -11.21334 -11.21153 -11.21091
 Alpha  occ. eigenvalues --  -11.21070 -11.21033  -1.08510  -1.08412  -1.03591
 Alpha  occ. eigenvalues --   -1.03512  -0.96040  -0.95962  -0.87059  -0.86974
 Alpha  occ. eigenvalues --   -0.79662  -0.79576  -0.78366  -0.78192  -0.65289
 Alpha  occ. eigenvalues --   -0.64920  -0.60988  -0.60909  -0.59407  -0.59332
 Alpha  occ. eigenvalues --   -0.57662  -0.57566  -0.55360  -0.55218  -0.52730
 Alpha  occ. eigenvalues --   -0.52656  -0.52483  -0.52372  -0.50039  -0.49855
 Alpha  occ. eigenvalues --   -0.47979  -0.47899  -0.46818  -0.46606  -0.46125
 Alpha  occ. eigenvalues --   -0.45827  -0.45725  -0.45247  -0.43847  -0.43769
 Alpha virt. eigenvalues --    0.19516   0.22152   0.23639   0.24845   0.25422
 Alpha virt. eigenvalues --    0.26359   0.27196   0.27380   0.28308   0.29485
 Alpha virt. eigenvalues --    0.30959   0.31406   0.31774   0.32008   0.32524

 Mulliken charges:
               1
     1  C   -0.301766
     2  C   -0.299651
     3  C   -0.475906
     4  H    0.150220
     5  H    0.151565
     6  H    0.152234
     7  H    0.152118
     8  H    0.155521
     9  H    0.155404
    10  H    0.160449
    11  C   -0.297714
    12  C   -0.308805
    13  C   -0.475392
    14  H    0.150040
    15  H    0.149751
    16  H    0.151983
    17  H    0.159861
    18  H    0.155340
    19  H    0.155713
    20  H    0.159965
    21  C   -0.298737
    22  C   -0.300310
    23  C   -0.475555
    24  H    0.149833
    25  H    0.150182
    26  H    0.151874
    27  H    0.152093
    28  H    0.155111
    29  H    0.155183
    30  H    0.160291
    31  C   -0.303701
    32  C   -0.299471
    33  C   -0.478747
    34  H    0.149611
    35  H    0.153881
    36  H    0.151800
    37  H    0.152724
    38  H    0.158043
    39  H    0.154723
    40  H    0.160239
 Sum of Mulliken charges =  -0.00000

 Dipole moment (field-independent basis, Debye):
    X=              0.0294    Y=             -0.0141    Z=             -0.0049  Tot=              0.0330
 Quadrupole moment (field-independent basis, Debye-Ang):
   XX=            -85.0249   YY=            -85.7877   ZZ=            -83.8517
   XY=             -1.6783   XZ=             -0.7910   YZ=              0.1528

 Normal termination of Gaussian 16 at Thu May  6 08:24:29 2021.
