 Gaussian 16, Revision A.03,
 Gaussian 16:  EM64L-G16RevA.03 25-Dec-2016

 -------------
 #p 6-31g* mp2
 -------------

 ------------------------------------------------------
 Input file generated by CHIRIPA (05-May-2021 14:51:09)
 ------------------------------------------------------
 Symbolic Z-matrix:
 Charge =  0 Multiplicity = 1

                         Standard orientation:
 ---------------------------------------------------------------------
 Center     Atomic      Atomic             Coordinates (Angstroms)
 Number     Number       Type             X           Y           Z
 ---------------------------------------------------------------------
      1          6           0       -4.297411    0.659382   -0.267700
      2          6           0       -2.778092    0.521198   -0.164929
      3          6           0       -2.043235    1.824073   -0.481626
      4          1           0       -4.561120    0.993940   -1.280357
      5          1           0       -4.634219    1.447797    0.419582
      6          1           0       -2.444406   -0.267673   -0.851189
      7          1           0       -2.517982    0.186746    0.847543
      8          1           0       -2.347668    2.616052    0.210250
      9          1           0       -2.273673    2.159051   -1.498134
     10          1           0       -0.958428    1.702666   -0.402163
     11          6           0       -5.046032   -0.634776    0.046069
     12          6           0       -6.565350   -0.496592   -0.056702
     13          6           0       -7.300207   -1.799467    0.259994
     14          1           0       -4.709223   -1.423191   -0.641213
     15          1           0       -4.782323   -0.969333    1.058725
     16          1           0       -6.825460   -0.162140   -1.069175
     17          1           0       -6.899037    0.292279    0.629557
     18          1           0       -7.069770   -2.134445    1.276503
     19          1           0       -6.995775   -2.591445   -0.431881
     20          1           0       -8.385014   -1.678059    0.180531
     21          6           0        5.291063   -0.366831    0.383134
     22          6           0        6.282389   -0.778017   -0.705986
     23          6           0        7.516203   -1.486124   -0.145558
     24          1           0        5.798145    0.291015    1.102197
     25          1           0        4.979948   -1.260142    0.942239
     26          1           0        6.590482    0.115617   -1.263763
     27          1           0        5.772836   -1.434806   -1.422645
     28          1           0        7.227487   -2.393806    0.394216
     29          1           0        8.049778   -0.834574    0.554001
     30          1           0        8.211493   -1.771258   -0.941252
     31          6           0        4.052380    0.342225   -0.161503
     32          6           0        3.061054    0.753410    0.927618
     33          6           0        1.827240    1.461518    0.367189
     34          1           0        4.363495    1.235536   -0.720608
     35          1           0        3.545298   -0.315621   -0.880566
     36          1           0        3.570606    1.410201    1.644276
     37          1           0        2.752960   -0.140223    1.485395
     38          1           0        1.293664    0.809969   -0.332370
     39          1           0        2.115955    2.369200   -0.172585
     40          1           0        1.131949    1.746652    1.162883
 ---------------------------------------------------------------------

 SCF Done:  E(RHF) =  -470.732917425     A.U. after   11 cycles
 E2 =    -0.1582462883D+01 EUMP2 =    -0.47231538030878D+03

 The electronic state is 1-A.
 Alpha  occ. eigenvalues --  -11.21628 -11.21613 -11.21572 -11.21523 -11.21424
 Alpha  occ. eigenvalues --  -11.21364 -11.21356 -11.21293 -11.21119 -11.21080
 Alpha  occ. eigenvalues --  -11.21050 -11.20864  -1.08452  -1.08373  -1.03566
 Alpha  occ. eigenvalues --   -1.03455  -0.96047  -0.95877  -0.87101  -0.86863
 Alpha  occ. eigenvalues --   -0.79662  -0.79495  -0.78263  -0.78190  -0.65083
 Alpha  occ. eigenvalues --   -0.65006  -0.60972  -0.60862  -0.59507  -0.59180
 Alpha  occ. eigenvalues --   -0.57626  -0.57530  -0.55299  -0.55194  -0.53005
 Alpha  occ. eigenvalues --   -0.52496  -0.52413  -0.52150  -0.49934  -0.49849
 Alpha  occ. eigenvalues --   -0.47971  -0.47803  -0.46641  -0.46567  -0.45806
 Alpha  occ. eigenvalues --   -0.45734  -0.45721  -0.45660  -0.43923  -0.43560
 Alpha virt. eigenvalues --    0.22430   0.22977   0.23608   0.24821   0.26584
 Alpha virt. eigenvalues --    0.26692   0.26902   0.27528   0.27591   0.29012
 Alpha virt. eigenvalues --    0.30600   0.31237   0.31460   0.31620   0.31990

 Mulliken charges:
               1
     1  C   -0.298103
     2  C   -0.298761
     3  C   -0.486757
     4  H    0.149524
     5  H    0.149379
     6  H    0.150865
     7  H    0.151289
     8  H    0.153860
     9  H    0.153971
    10  H    0.174690
    11  C   -0.298152
    12  C   -0.299590
    13  C   -0.475661
    14  H    0.149283
    15  H    0.149437
    16  H    0.151889
    17  H    0.151873
    18  H    0.155093
    19  H    0.155087
    20  H    0.160151
    21  C   -0.298340
    22  C   -0.299649
    23  C   -0.475720
    24  H    0.149710
    25  H    0.149580
    26  H    0.151968
    27  H    0.151961
    28  H    0.155205
    29  H    0.155201
    30  H    0.160300
    31  C   -0.298651
    32  C   -0.299978
    33  C   -0.478814
    34  H    0.149626
    35  H    0.149812
    36  H    0.152084
    37  H    0.152200
    38  H    0.155900
    39  H    0.156221
    40  H    0.162016
 Sum of Mulliken charges =  -0.00000

 Dipole moment (field-independent basis, Debye):
    X=              0.0682    Y=              0.0090    Z=              0.0067  Tot=              0.0692
 Quadrupole moment (field-independent basis, Debye-Ang):
   XX=            -86.1102   YY=            -84.9373   ZZ=            -83.9050
   XY=              0.4041   XZ=             -0.1165   YZ=              0.6790

 Normal termination of Gaussian 16 at Wed May  5 19:45:45 2021.
