 Gaussian 16, Revision A.03,
 Gaussian 16:  EM64L-G16RevA.03 25-Dec-2016

 -------------
 #p 6-31g* mp2
 -------------

 ------------------------------------------------------
 Input file generated by CHIRIPA (05-May-2021 14:55:21)
 ------------------------------------------------------
 Symbolic Z-matrix:
 Charge =  0 Multiplicity = 1

                         Standard orientation:
 ---------------------------------------------------------------------
 Center     Atomic      Atomic             Coordinates (Angstroms)
 Number     Number       Type             X           Y           Z
 ---------------------------------------------------------------------
      1          6           0       -1.491933    0.959183    1.183639
      2          6           0       -2.299557    1.890035    0.521989
      3          6           0       -3.496082    1.490442   -0.080673
      4          6           0       -3.856053    0.145996   -0.002089
      5          6           0       -3.072839   -0.805228    0.649861
      6          6           0       -1.880467   -0.383111    1.245355
      7          1           0       -0.564057    1.278346    1.649017
      8          1           0       -2.000326    2.933133    0.472479
      9          1           0       -4.140237    2.190081   -0.599314
     10          1           0       -3.397572   -1.838136    0.682555
     11          1           0       -1.255239   -1.108223    1.758529
     12          7           0       -5.120563   -0.288958   -0.636306
     13          8           0       -5.415371   -1.479247   -0.553008
     14          8           0       -5.792933    0.568649   -1.204694
     15          6           0        3.995378   -0.484656   -0.426477
     16          6           0        2.963286   -0.875454    0.631845
     17          6           0        1.620819   -1.285164    0.025448
     18          1           0        3.596784    0.341852   -1.030591
     19          1           0        4.144613   -1.329752   -1.112726
     20          1           0        2.817066   -0.030355    1.316712
     21          1           0        3.364461   -1.701000    1.233632
     22          1           0        1.745812   -2.143313   -0.642802
     23          1           0        1.195307   -0.463175   -0.559251
     24          1           0        0.897899   -1.560534    0.799668
     25          6           0        5.342598   -0.072608    0.164237
     26          6           0        6.374690    0.318190   -0.894086
     27          6           0        7.717156    0.727900   -0.287689
     28          1           0        5.193363    0.772488    0.850485
     29          1           0        5.741192   -0.899116    0.768351
     30          1           0        5.973515    1.143736   -1.495873
     31          1           0        6.520910   -0.526910   -1.578952
     32          1           0        8.142670   -0.094090    0.297011
     33          1           0        7.592164    1.586048    0.380562
     34          1           0        8.440077    1.003269   -1.061909
 ---------------------------------------------------------------------

 SCF Done:  E(RHF) =  -669.534912501     A.U. after   15 cycles
 E2 =    -0.2091550488D+01 EUMP2 =    -0.67162646298912D+03

 The electronic state is 1-A.
 Alpha  occ. eigenvalues --  -20.60737 -20.60732 -15.85791 -11.31156 -11.27725
 Alpha  occ. eigenvalues --  -11.27710 -11.27464 -11.26748 -11.26721 -11.22416
 Alpha  occ. eigenvalues --  -11.22055 -11.22026 -11.21923 -11.21913 -11.21462
 Alpha  occ. eigenvalues --   -1.59813  -1.39366  -1.19329  -1.09049  -1.08725
 Alpha  occ. eigenvalues --   -1.04737  -1.04159  -0.96609  -0.95557  -0.87632
 Alpha  occ. eigenvalues --   -0.86129  -0.82392  -0.80227  -0.78837  -0.77442
 Alpha  occ. eigenvalues --   -0.72010  -0.71136  -0.70436  -0.65679  -0.64983
 Alpha  occ. eigenvalues --   -0.64785  -0.62129  -0.61551  -0.59980  -0.58211
 Alpha  occ. eigenvalues --   -0.55889  -0.55231  -0.53488  -0.53079  -0.52977
 Alpha  occ. eigenvalues --   -0.52672  -0.50524  -0.48774  -0.48764  -0.48529
 Alpha  occ. eigenvalues --   -0.47257  -0.46380  -0.46297  -0.44772  -0.44412
 Alpha  occ. eigenvalues --   -0.37284  -0.36317
 Alpha virt. eigenvalues --    0.05085   0.11259   0.16530   0.19994   0.22531
 Alpha virt. eigenvalues --    0.23963   0.25733   0.26056   0.26824   0.27582
 Alpha virt. eigenvalues --    0.28990   0.29504   0.30916   0.31529   0.31969

 Mulliken charges:
               1
     1  C   -0.170661
     2  C   -0.219253
     3  C   -0.171045
     4  C    0.158596
     5  C   -0.172231
     6  C   -0.215398
     7  H    0.226040
     8  H    0.223102
     9  H    0.275433
    10  H    0.275580
    11  H    0.224232
    12  N    0.488068
    13  O   -0.460412
    14  O   -0.460588
    15  C   -0.298824
    16  C   -0.299886
    17  C   -0.477015
    18  H    0.149895
    19  H    0.152244
    20  H    0.145870
    21  H    0.154041
    22  H    0.160402
    23  H    0.158868
    24  H    0.150352
    25  C   -0.298458
    26  C   -0.300078
    27  C   -0.475969
    28  H    0.148419
    29  H    0.150681
    30  H    0.152209
    31  H    0.153252
    32  H    0.155830
    33  H    0.154986
    34  H    0.161715
 Sum of Mulliken charges =  -0.00000

 Dipole moment (field-independent basis, Debye):
    X=              4.5968    Y=              1.5111    Z=              2.1617  Tot=              5.2997
 Quadrupole moment (field-independent basis, Debye-Ang):
   XX=           -130.1745   YY=            -89.0806   ZZ=            -95.2209
   XY=             -6.9448   XZ=             -8.8679   YZ=             -1.2781

 Normal termination of Gaussian 16 at Wed May  5 17:26:57 2021.
