 Gaussian 16, Revision A.03,
 Gaussian 16:  EM64L-G16RevA.03 25-Dec-2016

 -------------
 #p 6-31g* mp2
 -------------

 ------------------------------------------------------
 Input file generated by CHIRIPA (05-May-2021 14:57:22)
 ------------------------------------------------------
 Symbolic Z-matrix:
 Charge =  0 Multiplicity = 1

                         Standard orientation:
 ---------------------------------------------------------------------
 Center     Atomic      Atomic             Coordinates (Angstroms)
 Number     Number       Type             X           Y           Z
 ---------------------------------------------------------------------
      1          6           0        3.128106   -2.207852    0.640027
      2          6           0        3.507622   -1.237463    1.573212
      3          6           0        3.342832    0.121848    1.290966
      4          6           0        2.792838    0.476863    0.060209
      5          6           0        2.404965   -0.466333   -0.890173
      6          6           0        2.578957   -1.819874   -0.586525
      7          1           0        3.259693   -3.261557    0.867595
      8          1           0        3.934363   -1.535856    2.526574
      9          1           0        3.628035    0.893938    1.995206
     10          1           0        1.982358   -0.138145   -1.832040
     11          1           0        2.283318   -2.571305   -1.313156
     12          7           0        2.613511    1.912851   -0.249921
     13          8           0        2.126610    2.199670   -1.341387
     14          8           0        2.963251    2.724368    0.604338
     15          6           0       -1.186716   -1.861241   -1.142192
     16          6           0       -2.060190   -2.291650   -0.138044
     17          6           0       -2.970653   -1.402173    0.440261
     18          6           0       -2.980524   -0.083478   -0.011662
     19          6           0       -2.122988    0.375569   -1.010260
     20          6           0       -1.220843   -0.531350   -1.574333
     21          1           0       -0.482677   -2.558983   -1.585905
     22          1           0       -2.035918   -3.323878    0.199540
     23          1           0       -3.658098   -1.708715    1.219280
     24          1           0       -2.170700    1.410692   -1.325953
     25          1           0       -0.543668   -0.194295   -2.353995
     26          7           0       -3.939988    0.867404    0.593031
     27          8           0       -3.928831    2.023986    0.177303
     28          8           0       -4.685005    0.438117    1.471267
 ---------------------------------------------------------------------

 SCF Done:  E(RHF) =  -868.335901579     A.U. after   16 cycles
 E2 =    -0.2602087019D+01 EUMP2 =    -0.87093798859757D+03

 The electronic state is 1-A.
 Alpha  occ. eigenvalues --  -20.61346 -20.61305 -20.60713 -20.60691 -15.86387
 Alpha  occ. eigenvalues --  -15.85763 -11.31829 -11.31234 -11.28539 -11.28365
 Alpha  occ. eigenvalues --  -11.28190 -11.27864 -11.27772 -11.27731 -11.27561
 Alpha  occ. eigenvalues --  -11.27381 -11.26938 -11.26892  -1.60395  -1.59779
 Alpha  occ. eigenvalues --   -1.39952  -1.39328  -1.20026  -1.19446  -1.09399
 Alpha  occ. eigenvalues --   -1.08854  -1.05470  -1.04857  -0.96225  -0.95656
 Alpha  occ. eigenvalues --   -0.86871  -0.86277  -0.83077  -0.82472  -0.78124
 Alpha  occ. eigenvalues --   -0.77470  -0.72607  -0.71983  -0.71714  -0.71163
 Alpha  occ. eigenvalues --   -0.71103  -0.70632  -0.65696  -0.65525  -0.65111
 Alpha  occ. eigenvalues --   -0.64907  -0.62852  -0.62150  -0.55955  -0.55501
 Alpha  occ. eigenvalues --   -0.53856  -0.53581  -0.53088  -0.52926  -0.49371
 Alpha  occ. eigenvalues --   -0.49350  -0.48753  -0.48723  -0.45341  -0.44709
 Alpha  occ. eigenvalues --   -0.38004  -0.37830  -0.36796  -0.36294
 Alpha virt. eigenvalues --    0.04408   0.05069   0.10280   0.11429   0.15774
 Alpha virt. eigenvalues --    0.16628   0.18484   0.22279   0.24944   0.25328
 Alpha virt. eigenvalues --    0.28069   0.29157   0.30502   0.31475   0.33034

 Mulliken charges:
               1
     1  C   -0.170468
     2  C   -0.217998
     3  C   -0.168750
     4  C    0.159441
     5  C   -0.166204
     6  C   -0.219630
     7  H    0.226069
     8  H    0.226185
     9  H    0.278728
    10  H    0.268596
    11  H    0.215855
    12  N    0.488721
    13  O   -0.464816
    14  O   -0.455243
    15  C   -0.166342
    16  C   -0.219331
    17  C   -0.170484
    18  C    0.158365
    19  C   -0.169887
    20  C   -0.220840
    21  H    0.214921
    22  H    0.220682
    23  H    0.275589
    24  H    0.282974
    25  H    0.224119
    26  N    0.487896
    27  O   -0.456663
    28  O   -0.461486
 Sum of Mulliken charges =  -0.00000

 Dipole moment (field-independent basis, Debye):
    X=              4.0624    Y=             -8.1543    Z=             -0.8218  Tot=              9.1472
 Quadrupole moment (field-independent basis, Debye-Ang):
   XX=           -120.9000   YY=           -107.2171   ZZ=            -99.6452
   XY=             -2.3442   XZ=             10.8466   YZ=             -1.0902

 Normal termination of Gaussian 16 at Fri May  7 01:46:07 2021.
