 Gaussian 16, Revision A.03,
 Gaussian 16:  EM64L-G16RevA.03 25-Dec-2016

 -------------
 #p 6-31g* mp2
 -------------

 ------------------------------------------------------
 Input file generated by CHIRIPA (05-May-2021 14:57:24)
 ------------------------------------------------------
 Symbolic Z-matrix:
 Charge =  0 Multiplicity = 1

                         Standard orientation:
 ---------------------------------------------------------------------
 Center     Atomic      Atomic             Coordinates (Angstroms)
 Number     Number       Type             X           Y           Z
 ---------------------------------------------------------------------
      1          6           0        6.256199   -0.276961   -0.596178
      2          6           0        5.917015   -0.170464    0.756646
      3          6           0        4.583134   -0.010957    1.143773
      4          6           0        3.609628    0.038220    0.147200
      5          6           0        3.915887   -0.065011   -1.208838
      6          6           0        5.256315   -0.223988   -1.572881
      7          1           0        7.294932   -0.400663   -0.887942
      8          1           0        6.691438   -0.211270    1.517336
      9          1           0        4.292598    0.074026    2.183862
     10          1           0        3.121778   -0.020823   -1.944267
     11          1           0        5.516799   -0.306429   -2.624259
     12          7           0        2.194042    0.206802    0.544815
     13          8           0        1.355061    0.247163   -0.352469
     14          8           0        1.950291    0.295383    1.746221
     15          6           0       -3.517960    2.489416   -0.186842
     16          6           0       -2.409819    1.637003   -0.230894
     17          6           0       -2.578009    0.250298   -0.173344
     18          6           0       -3.874350   -0.252112   -0.071501
     19          6           0       -4.998357    0.571160   -0.025431
     20          6           0       -4.806419    1.954716   -0.084432
     21          1           0       -3.378082    3.565418   -0.232112
     22          1           0       -1.408017    2.049453   -0.310409
     23          1           0       -1.737719   -0.432559   -0.205524
     24          1           0       -5.984707    0.130458    0.054019
     25          1           0       -5.668859    2.614306   -0.050019
     26          7           0       -4.064976   -1.718487   -0.009808
     27          8           0       -5.217435   -2.136161    0.079760
     28          8           0       -3.058318   -2.422392   -0.052188
 ---------------------------------------------------------------------

 SCF Done:  E(RHF) =  -868.340807720     A.U. after   16 cycles
 E2 =    -0.2598518318D+01 EUMP2 =    -0.87093932603714D+03

 The electronic state is 1-A.
 Alpha  occ. eigenvalues --  -20.61605 -20.61586 -20.59731 -20.59711 -15.86599
 Alpha  occ. eigenvalues --  -15.84766 -11.31672 -11.29924 -11.28208 -11.28196
 Alpha  occ. eigenvalues --  -11.27899 -11.27156 -11.27146 -11.26584 -11.26272
 Alpha  occ. eigenvalues --  -11.26264 -11.25602 -11.25296  -1.60641  -1.58803
 Alpha  occ. eigenvalues --   -1.40202  -1.38360  -1.19816  -1.18096  -1.09268
 Alpha  occ. eigenvalues --   -1.07557  -1.05175  -1.03430  -0.96152  -0.94410
 Alpha  occ. eigenvalues --   -0.86587  -0.84866  -0.82996  -0.81219  -0.78071
 Alpha  occ. eigenvalues --   -0.76273  -0.72837  -0.71926  -0.70994  -0.70922
 Alpha  occ. eigenvalues --   -0.70123  -0.69228  -0.65475  -0.65176  -0.63741
 Alpha  occ. eigenvalues --   -0.63428  -0.62524  -0.60743  -0.55690  -0.54027
 Alpha  occ. eigenvalues --   -0.53519  -0.53263  -0.51834  -0.51499  -0.49607
 Alpha  occ. eigenvalues --   -0.49559  -0.47754  -0.47732  -0.45663  -0.43809
 Alpha  occ. eigenvalues --   -0.37779  -0.36763  -0.36138  -0.35035
 Alpha virt. eigenvalues --    0.04428   0.06203   0.10897   0.12593   0.15975
 Alpha virt. eigenvalues --    0.17719   0.21049   0.22738   0.26992   0.27866
 Alpha virt. eigenvalues --    0.28765   0.29565   0.30680   0.32131   0.32269

 Mulliken charges:
               1
     1  C   -0.169670
     2  C   -0.218605
     3  C   -0.170013
     4  C    0.157709
     5  C   -0.170174
     6  C   -0.218531
     7  H    0.227537
     8  H    0.225259
     9  H    0.276668
    10  H    0.275595
    11  H    0.225209
    12  N    0.490715
    13  O   -0.471479
    14  O   -0.455622
    15  C   -0.171996
    16  C   -0.222130
    17  C   -0.173438
    18  C    0.157382
    19  C   -0.172842
    20  C   -0.219597
    21  H    0.220823
    22  H    0.235045
    23  H    0.290499
    24  H    0.271089
    25  H    0.218104
    26  N    0.487951
    27  O   -0.465681
    28  O   -0.459807
 Sum of Mulliken charges =  -0.00000

 Dipole moment (field-independent basis, Debye):
    X=              6.3586    Y=              4.5241    Z=             -1.5687  Tot=              7.9599
 Quadrupole moment (field-independent basis, Debye-Ang):
   XX=            -70.1971   YY=           -109.3401   ZZ=           -101.2858
   XY=            -22.9315   XZ=             -2.4570   YZ=             -0.2430

 Normal termination of Gaussian 16 at Fri May  7 06:29:22 2021.
