 Gaussian 16, Revision A.03,
 Gaussian 16:  EM64L-G16RevA.03 25-Dec-2016

 -------------
 #p 6-31g* mp2
 -------------

 ------------------------------------------------------
 Input file generated by CHIRIPA (05-May-2021 14:57:26)
 ------------------------------------------------------
 Symbolic Z-matrix:
 Charge =  0 Multiplicity = 1

                         Standard orientation:
 ---------------------------------------------------------------------
 Center     Atomic      Atomic             Coordinates (Angstroms)
 Number     Number       Type             X           Y           Z
 ---------------------------------------------------------------------
      1          6           0       -6.525357   -0.367415    0.142224
      2          6           0       -5.980078    0.886321   -0.153308
      3          6           0       -4.597510    1.045879   -0.285963
      4          6           0       -3.786005   -0.074746   -0.115819
      5          6           0       -4.299130   -1.336892    0.179102
      6          6           0       -5.684625   -1.473071    0.307195
      7          1           0       -7.600505   -0.482282    0.243501
      8          1           0       -6.630584    1.746748   -0.281961
      9          1           0       -4.148770    2.004992   -0.514333
     10          1           0       -3.625201   -2.176061    0.301718
     11          1           0       -6.105307   -2.447942    0.536752
     12          7           0       -2.320793    0.081795   -0.253840
     13          8           0       -1.627361   -0.921136   -0.099189
     14          8           0       -1.893537    1.204460   -0.514059
     15          6           0        2.492187    2.068021    0.464299
     16          6           0        2.008711    0.764339    0.616566
     17          6           0        2.850388   -0.333319    0.413404
     18          6           0        4.175916   -0.089663    0.057183
     19          6           0        4.687268    1.197356   -0.102175
     20          6           0        3.827568    2.279995    0.106046
     21          1           0        1.831352    2.914875    0.624086
     22          1           0        0.972093    0.596716    0.894725
     23          1           0        2.502260   -1.353062    0.524534
     24          1           0        5.725438    1.332815   -0.380154
     25          1           0        4.205785    3.291353   -0.012914
     26          7           0        5.076502   -1.243754   -0.160573
     27          8           0        6.240227   -1.002383   -0.473817
     28          8           0        4.601603   -2.367850   -0.013885
 ---------------------------------------------------------------------

 SCF Done:  E(RHF) =  -868.340939622     A.U. after   16 cycles
 E2 =    -0.2598627729D+01 EUMP2 =    -0.87093956735080D+03

 The electronic state is 1-A.
 Alpha  occ. eigenvalues --  -20.61890 -20.61869 -20.59769 -20.59757 -15.86876
 Alpha  occ. eigenvalues --  -15.84805 -11.31916 -11.29926 -11.28452 -11.28427
 Alpha  occ. eigenvalues --  -11.28121 -11.27384 -11.27363 -11.26513 -11.26328
 Alpha  occ. eigenvalues --  -11.26092 -11.25518 -11.25156  -1.60933  -1.58845
 Alpha  occ. eigenvalues --   -1.40490  -1.38405  -1.20055  -1.18049  -1.09513
 Alpha  occ. eigenvalues --   -1.07488  -1.05406  -1.03386  -0.96400  -0.94372
 Alpha  occ. eigenvalues --   -0.86819  -0.84796  -0.83243  -0.81196  -0.78328
 Alpha  occ. eigenvalues --   -0.76278  -0.73097  -0.72224  -0.71156  -0.71033
 Alpha  occ. eigenvalues --   -0.70164  -0.69157  -0.65709  -0.65404  -0.63685
 Alpha  occ. eigenvalues --   -0.63350  -0.62754  -0.60724  -0.55918  -0.53905
 Alpha  occ. eigenvalues --   -0.53753  -0.53490  -0.51768  -0.51477  -0.49869
 Alpha  occ. eigenvalues --   -0.49802  -0.47800  -0.47760  -0.45964  -0.43866
 Alpha  occ. eigenvalues --   -0.38015  -0.36992  -0.36027  -0.34980
 Alpha virt. eigenvalues --    0.04158   0.06204   0.10668   0.12666   0.15726
 Alpha virt. eigenvalues --    0.17778   0.20846   0.22887   0.26784   0.27702
 Alpha virt. eigenvalues --    0.28900   0.29610   0.30457   0.31919   0.32461

 Mulliken charges:
               1
     1  C   -0.169494
     2  C   -0.218582
     3  C   -0.170521
     4  C    0.158326
     5  C   -0.170208
     6  C   -0.218576
     7  H    0.228252
     8  H    0.225359
     9  H    0.275112
    10  H    0.277142
    11  H    0.226271
    12  N    0.488468
    13  O   -0.462305
    14  O   -0.464263
    15  C   -0.171883
    16  C   -0.217646
    17  C   -0.173547
    18  C    0.157594
    19  C   -0.173964
    20  C   -0.219141
    21  H    0.225157
    22  H    0.241972
    23  H    0.276476
    24  H    0.270752
    25  H    0.218042
    26  N    0.488151
    27  O   -0.464771
    28  O   -0.462172
 Sum of Mulliken charges =  -0.00000

 Dipole moment (field-independent basis, Debye):
    X=             -9.0746    Y=              3.4389    Z=              1.2736  Tot=              9.7875
 Quadrupole moment (field-independent basis, Debye-Ang):
   XX=            -90.7404   YY=            -99.3399   ZZ=           -106.1678
   XY=             21.8646   XZ=              0.9992   YZ=             -1.6903

 Normal termination of Gaussian 16 at Fri May  7 02:02:09 2021.
