 Gaussian 16, Revision A.03,
 Gaussian 16:  EM64L-G16RevA.03 25-Dec-2016

 -------------
 #p 6-31g* mp2
 -------------

 ------------------------------------------------------
 Input file generated by CHIRIPA (05-May-2021 14:57:24)
 ------------------------------------------------------
 Symbolic Z-matrix:
 Charge =  0 Multiplicity = 1

                         Standard orientation:
 ---------------------------------------------------------------------
 Center     Atomic      Atomic             Coordinates (Angstroms)
 Number     Number       Type             X           Y           Z
 ---------------------------------------------------------------------
      1          6           0       -2.890229   -2.167767    0.333124
      2          6           0       -2.238038   -1.121869   -0.328135
      3          6           0       -2.886763    0.098319   -0.539902
      4          6           0       -4.193480    0.238724   -0.075073
      5          6           0       -4.870003   -0.784544    0.587142
      6          6           0       -4.201818   -1.996069    0.787850
      7          1           0       -2.378726   -3.112274    0.493334
      8          1           0       -1.219445   -1.252376   -0.682371
      9          1           0       -2.405441    0.924594   -1.048839
     10          1           0       -5.885435   -0.624567    0.928787
     11          1           0       -4.710791   -2.806590    1.301706
     12          7           0       -4.890557    1.525897   -0.293408
     13          8           0       -6.041735    1.624367    0.125794
     14          8           0       -4.272548    2.411941   -0.879607
     15          6           0        5.920958    1.673369    0.325062
     16          6           0        6.142271    0.523200   -0.439564
     17          6           0        5.128703   -0.425442   -0.604807
     18          6           0        3.900481   -0.190928    0.011443
     19          6           0        3.649272    0.945079    0.779344
     20          6           0        4.677357    1.880273    0.931006
     21          1           0        6.713961    2.405074    0.448151
     22          1           0        7.107068    0.359891   -0.911308
     23          1           0        5.272941   -1.324632   -1.191383
     24          1           0        2.676983    1.080224    1.237390
     25          1           0        4.502643    2.772591    1.525387
     26          7           0        2.819777   -1.188095   -0.156305
     27          8           0        1.746604   -0.958144    0.396923
     28          8           0        3.066358   -2.180742   -0.837835
 ---------------------------------------------------------------------

 SCF Done:  E(RHF) =  -868.340450535     A.U. after   16 cycles
 E2 =    -0.2598048885D+01 EUMP2 =    -0.87093849941982D+03

 The electronic state is 1-A.
 Alpha  occ. eigenvalues --  -20.61669 -20.61645 -20.60139 -20.60133 -15.86677
 Alpha  occ. eigenvalues --  -15.85180 -11.31750 -11.30329 -11.28282 -11.28276
 Alpha  occ. eigenvalues --  -11.27967 -11.27231 -11.27215 -11.26885 -11.26785
 Alpha  occ. eigenvalues --  -11.26456 -11.25871 -11.25589  -1.60724  -1.59218
 Alpha  occ. eigenvalues --   -1.40283  -1.38778  -1.19894  -1.18447  -1.09345
 Alpha  occ. eigenvalues --   -1.07868  -1.05250  -1.03799  -0.96228  -0.94753
 Alpha  occ. eigenvalues --   -0.86662  -0.85193  -0.83068  -0.81584  -0.78148
 Alpha  occ. eigenvalues --   -0.76673  -0.72911  -0.72022  -0.71405  -0.70995
 Alpha  occ. eigenvalues --   -0.70538  -0.69534  -0.65549  -0.65248  -0.64081
 Alpha  occ. eigenvalues --   -0.63745  -0.62599  -0.61136  -0.55761  -0.54269
 Alpha  occ. eigenvalues --   -0.53597  -0.53336  -0.52162  -0.51854  -0.49677
 Alpha  occ. eigenvalues --   -0.49643  -0.48173  -0.48135  -0.45747  -0.44233
 Alpha  occ. eigenvalues --   -0.37857  -0.36840  -0.36402  -0.35401
 Alpha virt. eigenvalues --    0.04346   0.05821   0.10819   0.12256   0.15895
 Alpha virt. eigenvalues --    0.17397   0.20996   0.22538   0.26933   0.27822
 Alpha virt. eigenvalues --    0.28522   0.29296   0.30594   0.31977   0.32263

 Mulliken charges:
               1
     1  C   -0.172365
     2  C   -0.221225
     3  C   -0.174429
     4  C    0.157994
     5  C   -0.173468
     6  C   -0.218942
     7  H    0.228883
     8  H    0.244379
     9  H    0.272403
    10  H    0.272041
    11  H    0.220241
    12  N    0.488165
    13  O   -0.463114
    14  O   -0.463254
    15  C   -0.169692
    16  C   -0.218563
    17  C   -0.170484
    18  C    0.157306
    19  C   -0.170784
    20  C   -0.218450
    21  H    0.227972
    22  H    0.225217
    23  H    0.275915
    24  H    0.276128
    25  H    0.226184
    26  N    0.489328
    27  O   -0.468429
    28  O   -0.458957
 Sum of Mulliken charges =  -0.00000

 Dipole moment (field-independent basis, Debye):
    X=              6.8204    Y=             -1.0768    Z=              1.3493  Tot=              7.0355
 Quadrupole moment (field-independent basis, Debye-Ang):
   XX=            -91.6333   YY=           -107.0020   ZZ=           -103.5524
   XY=             33.2093   XZ=             -5.1325   YZ=              1.5308

 Normal termination of Gaussian 16 at Thu May  6 09:48:07 2021.
