 Gaussian 16, Revision A.03,
 Gaussian 16:  EM64L-G16RevA.03 25-Dec-2016

 -------------
 #p 6-31g* mp2
 -------------

 ------------------------------------------------------
 Input file generated by CHIRIPA (05-May-2021 14:55:23)
 ------------------------------------------------------
 Symbolic Z-matrix:
 Charge =  0 Multiplicity = 1

                         Standard orientation:
 ---------------------------------------------------------------------
 Center     Atomic      Atomic             Coordinates (Angstroms)
 Number     Number       Type             X           Y           Z
 ---------------------------------------------------------------------
      1          6           0       -0.803002    2.444181    0.001464
      2          6           0       -1.030729    1.741909    1.189519
      3          6           0       -1.961446    0.699506    1.230874
      4          6           0       -2.649826    0.384554    0.060307
      5          6           0       -2.445164    1.065547   -1.138714
      6          6           0       -1.509700    2.104359   -1.156819
      7          1           0       -0.078155    3.252550   -0.021631
      8          1           0       -0.483351    2.003635    2.090586
      9          1           0       -2.157357    0.139331    2.137097
     10          1           0       -3.006137    0.781625   -2.020822
     11          1           0       -1.334900    2.648023   -2.080896
     12          7           0       -3.637647   -0.717090    0.091780
     13          8           0       -4.231177   -0.975127   -0.953101
     14          8           0       -3.799667   -1.301662    1.160734
     15          6           0        2.499779   -0.890362    0.227180
     16          6           0        1.663091   -1.817936   -0.654605
     17          6           0        0.298222   -2.140307   -0.045506
     18          1           0        2.637234   -1.356850    1.212289
     19          1           0        1.943861    0.041991    0.397674
     20          1           0        2.221009   -2.747704   -0.824524
     21          1           0        1.527774   -1.349271   -1.637793
     22          1           0       -0.281044   -1.224138    0.108401
     23          1           0        0.416131   -2.630518    0.926291
     24          1           0       -0.283238   -2.804699   -0.692305
     25          6           0        3.866995   -0.558900   -0.368286
     26          6           0        4.703684    0.368674    0.513500
     27          6           0        6.068554    0.691045   -0.095599
     28          1           0        4.422914   -1.491253   -0.538779
     29          1           0        3.729541   -0.092412   -1.353395
     30          1           0        4.839001   -0.099991    1.496688
     31          1           0        4.145767    1.298443    0.683419
     32          1           0        5.950645    1.181255   -1.067397
     33          1           0        6.647819   -0.225124   -0.249507
     34          1           0        6.650014    1.355436    0.551199
 ---------------------------------------------------------------------

 SCF Done:  E(RHF) =  -669.534627050     A.U. after   15 cycles
 E2 =    -0.2093813398D+01 EUMP2 =    -0.67162844044792D+03

 The electronic state is 1-A.
 Alpha  occ. eigenvalues --  -20.60801 -20.60790 -15.85850 -11.31249 -11.27856
 Alpha  occ. eigenvalues --  -11.27822 -11.27637 -11.26894 -11.26884 -11.21982
 Alpha  occ. eigenvalues --  -11.21665 -11.21635 -11.21552 -11.21415 -11.20838
 Alpha  occ. eigenvalues --   -1.59870  -1.39422  -1.19481  -1.08851  -1.08646
 Alpha  occ. eigenvalues --   -1.04881  -1.03693  -0.96137  -0.95671  -0.87156
 Alpha  occ. eigenvalues --   -0.86265  -0.82498  -0.79782  -0.78467  -0.77533
 Alpha  occ. eigenvalues --   -0.72072  -0.71199  -0.70567  -0.65292  -0.65115
 Alpha  occ. eigenvalues --   -0.64866  -0.62212  -0.61126  -0.59513  -0.57765
 Alpha  occ. eigenvalues --   -0.55537  -0.55370  -0.53357  -0.52957  -0.52803
 Alpha  occ. eigenvalues --   -0.52434  -0.50041  -0.48835  -0.48822  -0.48064
 Alpha  occ. eigenvalues --   -0.46807  -0.45990  -0.45908  -0.44809  -0.43954
 Alpha  occ. eigenvalues --   -0.37410  -0.36438
 Alpha virt. eigenvalues --    0.04987   0.11092   0.16462   0.21225   0.22651
 Alpha virt. eigenvalues --    0.24159   0.26262   0.26943   0.27540   0.27757
 Alpha virt. eigenvalues --    0.28422   0.30851   0.31235   0.31651   0.31984

 Mulliken charges:
               1
     1  C   -0.172162
     2  C   -0.214066
     3  C   -0.177933
     4  C    0.162131
     5  C   -0.171665
     6  C   -0.217632
     7  H    0.226339
     8  H    0.224944
     9  H    0.276593
    10  H    0.276214
    11  H    0.224031
    12  N    0.489438
    13  O   -0.460740
    14  O   -0.459786
    15  C   -0.299628
    16  C   -0.297873
    17  C   -0.484825
    18  H    0.149171
    19  H    0.145791
    20  H    0.152409
    21  H    0.149919
    22  H    0.162106
    23  H    0.155014
    24  H    0.164312
    25  C   -0.298011
    26  C   -0.298605
    27  C   -0.475607
    28  H    0.151359
    29  H    0.148197
    30  H    0.152698
    31  H    0.146390
    32  H    0.154485
    33  H    0.156969
    34  H    0.160024
 Sum of Mulliken charges =  -0.00000

 Dipole moment (field-independent basis, Debye):
    X=              3.3722    Y=              3.8775    Z=             -0.1090  Tot=              5.1399
 Quadrupole moment (field-independent basis, Debye-Ang):
   XX=           -114.7136   YY=            -91.7026   ZZ=            -89.9511
   XY=             -9.8860   XZ=              2.0896   YZ=             -0.9589

 Normal termination of Gaussian 16 at Wed May  5 23:56:12 2021.
