 Gaussian 16, Revision A.03,
 Gaussian 16:  EM64L-G16RevA.03 25-Dec-2016

 -------------
 #p 6-31g* mp2
 -------------

 ------------------------------------------------------
 Input file generated by CHIRIPA (05-May-2021 14:55:19)
 ------------------------------------------------------
 Symbolic Z-matrix:
 Charge =  0 Multiplicity = 1

                         Standard orientation:
 ---------------------------------------------------------------------
 Center     Atomic      Atomic             Coordinates (Angstroms)
 Number     Number       Type             X           Y           Z
 ---------------------------------------------------------------------
      1          6           0       -2.341566    1.714550    1.798316
      2          6           0       -3.273151    0.688048    1.985306
      3          6           0       -3.424540   -0.316934    1.025285
      4          6           0       -2.624334   -0.264253   -0.114972
      5          6           0       -1.687395    0.745290   -0.330047
      6          6           0       -1.553052    1.739850    0.643273
      7          1           0       -2.230585    2.491196    2.549249
      8          1           0       -3.886872    0.665859    2.881353
      9          1           0       -4.137996   -1.123251    1.144659
     10          1           0       -1.089826    0.740635   -1.233544
     11          1           0       -0.828759    2.535825    0.495393
     12          7           0       -2.775580   -1.322665   -1.138342
     13          8           0       -2.058595   -1.253648   -2.134237
     14          8           0       -3.608247   -2.201225   -0.925188
     15          6           0        2.745624    0.549396   -0.306255
     16          6           0        3.186697    1.908746   -0.849954
     17          6           0        2.011902    2.766392   -1.321222
     18          1           0        2.187910    0.013100   -1.086181
     19          1           0        2.046470    0.704919    0.527047
     20          1           0        3.885884    1.750714   -1.681086
     21          1           0        3.743592    2.441789   -0.068706
     22          1           0        1.316306    2.953405   -0.496737
     23          1           0        1.459408    2.258404   -2.118279
     24          1           0        2.349880    3.733656   -1.705970
     25          6           0        3.908858   -0.319474    0.168803
     26          6           0        3.467786   -1.678823    0.712503
     27          6           0        4.642581   -2.536470    1.183771
     28          1           0        4.608013   -0.474996   -0.664498
     29          1           0        4.466574    0.216822    0.948730
     30          1           0        2.910891   -2.211866   -0.068746
     31          1           0        2.768599   -1.520791    1.543634
     32          1           0        5.195075   -2.028481    1.980827
     33          1           0        5.338177   -2.723482    0.359286
     34          1           0        4.304603   -3.503733    1.568518
 ---------------------------------------------------------------------

 SCF Done:  E(RHF) =  -669.535656679     A.U. after   15 cycles
 E2 =    -0.2091778998D+01 EUMP2 =    -0.67162743567715D+03

 The electronic state is 1-A.
 Alpha  occ. eigenvalues --  -20.60735 -20.60729 -15.85788 -11.31131 -11.27715
 Alpha  occ. eigenvalues --  -11.27688 -11.27454 -11.26726 -11.26687 -11.22133
 Alpha  occ. eigenvalues --  -11.21942 -11.21756 -11.21680 -11.21585 -11.21115
 Alpha  occ. eigenvalues --   -1.59810  -1.39364  -1.19309  -1.08760  -1.08709
 Alpha  occ. eigenvalues --   -1.04708  -1.03890  -0.96366  -0.95546  -0.87391
 Alpha  occ. eigenvalues --   -0.86110  -0.82381  -0.79966  -0.78538  -0.77418
 Alpha  occ. eigenvalues --   -0.72007  -0.71132  -0.70421  -0.65406  -0.64961
 Alpha  occ. eigenvalues --   -0.64717  -0.62096  -0.61271  -0.59734  -0.57952
 Alpha  occ. eigenvalues --   -0.55685  -0.55215  -0.53078  -0.53027  -0.52937
 Alpha  occ. eigenvalues --   -0.52656  -0.50309  -0.48766  -0.48762  -0.48268
 Alpha  occ. eigenvalues --   -0.46974  -0.46082  -0.45972  -0.44774  -0.44118
 Alpha  occ. eigenvalues --   -0.37296  -0.36297
 Alpha virt. eigenvalues --    0.05093   0.11320   0.16520   0.19650   0.22845
 Alpha virt. eigenvalues --    0.23828   0.24911   0.25924   0.27385   0.27995
 Alpha virt. eigenvalues --    0.29134   0.30142   0.31414   0.31629   0.32492

 Mulliken charges:
               1
     1  C   -0.171795
     2  C   -0.218724
     3  C   -0.170774
     4  C    0.158347
     5  C   -0.172736
     6  C   -0.224061
     7  H    0.225640
     8  H    0.223121
     9  H    0.275380
    10  H    0.277664
    11  H    0.230542
    12  N    0.488196
    13  O   -0.460876
    14  O   -0.460664
    15  C   -0.302198
    16  C   -0.299102
    17  C   -0.481505
    18  H    0.154594
    19  H    0.146926
    20  H    0.156367
    21  H    0.152562
    22  H    0.145263
    23  H    0.157995
    24  H    0.165142
    25  C   -0.298492
    26  C   -0.300755
    27  C   -0.476019
    28  H    0.151390
    29  H    0.148773
    30  H    0.156801
    31  H    0.151148
    32  H    0.153989
    33  H    0.156051
    34  H    0.161807
 Sum of Mulliken charges =  -0.00000

 Dipole moment (field-independent basis, Debye):
    X=              0.6732    Y=              3.6634    Z=              3.5465  Tot=              5.1431
 Quadrupole moment (field-independent basis, Debye-Ang):
   XX=            -95.6120   YY=            -96.7552   ZZ=            -93.7373
   XY=             -7.7381   XZ=            -12.5386   YZ=             -2.1376

 Normal termination of Gaussian 16 at Thu May  6 07:41:03 2021.
