 Gaussian 16, Revision A.03,
 Gaussian 16:  EM64L-G16RevA.03 25-Dec-2016

 -------------
 #p 6-31g* mp2
 -------------

 ------------------------------------------------------
 Input file generated by CHIRIPA (05-May-2021 14:51:09)
 ------------------------------------------------------
 Symbolic Z-matrix:
 Charge =  0 Multiplicity = 1

                         Standard orientation:
 ---------------------------------------------------------------------
 Center     Atomic      Atomic             Coordinates (Angstroms)
 Number     Number       Type             X           Y           Z
 ---------------------------------------------------------------------
      1          6           0       -2.095220   -0.195530   -0.604999
      2          6           0       -3.164140   -1.196775   -1.044206
      3          6           0       -2.614581   -2.277731   -1.975503
      4          1           0       -1.654454    0.274506   -1.494795
      5          1           0       -1.281596   -0.735709   -0.101395
      6          1           0       -3.976158   -0.654706   -1.545607
      7          1           0       -3.602546   -1.664342   -0.153254
      8          1           0       -1.818728   -2.844043   -1.481023
      9          1           0       -2.194463   -1.828671   -2.881288
     10          1           0       -3.395509   -2.982721   -2.277164
     11          6           0       -2.629283    0.891245    0.326358
     12          6           0       -1.560363    1.892490    0.765566
     13          6           0       -2.109922    2.973446    1.696862
     14          1           0       -3.442906    1.431424   -0.177246
     15          1           0       -3.070049    0.421209    1.216154
     16          1           0       -1.121956    2.360057   -0.125387
     17          1           0       -0.748344    1.350421    1.266967
     18          1           0       -2.530040    2.524386    2.602647
     19          1           0       -2.905774    3.539758    1.202382
     20          1           0       -1.328994    3.678436    1.998524
     21          6           0        2.666751    0.328420   -0.043329
     22          6           0        2.779448    0.555284   -1.551246
     23          6           0        3.390459    1.912584   -1.900813
     24          1           0        2.058613    1.130300    0.397241
     25          1           0        3.665222    0.409325    0.408229
     26          1           0        1.781256    0.472605   -2.000015
     27          1           0        3.387228   -0.247335   -1.988305
     28          1           0        4.397225    2.001712   -1.480006
     29          1           0        2.782127    2.725743   -1.491783
     30          1           0        3.461685    2.053852   -2.983786
     31          6           0        2.057751   -1.024135    0.321969
     32          6           0        1.945055   -1.250999    1.829887
     33          6           0        1.334044   -2.608299    2.179454
     34          1           0        1.059280   -1.105039   -0.129589
     35          1           0        2.665890   -1.826015   -0.118600
     36          1           0        1.337275   -0.448380    2.266946
     37          1           0        2.943247   -1.168320    2.278656
     38          1           0        1.942375   -3.421458    1.770423
     39          1           0        0.327277   -2.697427    1.758647
     40          1           0        1.262818   -2.749566    3.262427
 ---------------------------------------------------------------------

 SCF Done:  E(RHF) =  -470.733284850     A.U. after   11 cycles
 E2 =    -0.1584406031D+01 EUMP2 =    -0.47231769088152D+03

 The electronic state is 1-A.
 Alpha  occ. eigenvalues --  -11.21707 -11.21670 -11.21626 -11.21555 -11.21498
 Alpha  occ. eigenvalues --  -11.21438 -11.21346 -11.21286 -11.21145 -11.21125
 Alpha  occ. eigenvalues --  -11.21119 -11.21043  -1.08537  -1.08391  -1.03609
 Alpha  occ. eigenvalues --   -1.03523  -0.96056  -0.95968  -0.87072  -0.86985
 Alpha  occ. eigenvalues --   -0.79682  -0.79581  -0.78394  -0.78171  -0.65322
 Alpha  occ. eigenvalues --   -0.64886  -0.61007  -0.60922  -0.59428  -0.59335
 Alpha  occ. eigenvalues --   -0.57685  -0.57565  -0.55360  -0.55246  -0.52744
 Alpha  occ. eigenvalues --   -0.52673  -0.52495  -0.52386  -0.50024  -0.49902
 Alpha  occ. eigenvalues --   -0.48035  -0.47905  -0.46842  -0.46563  -0.46247
 Alpha  occ. eigenvalues --   -0.45822  -0.45639  -0.45207  -0.43865  -0.43764
 Alpha virt. eigenvalues --    0.19121   0.22591   0.23450   0.23836   0.25518
 Alpha virt. eigenvalues --    0.26657   0.26928   0.27670   0.28010   0.30397
 Alpha virt. eigenvalues --    0.30713   0.31563   0.31707   0.31869   0.32286

 Mulliken charges:
               1
     1  C   -0.306903
     2  C   -0.299136
     3  C   -0.476261
     4  H    0.149653
     5  H    0.156999
     6  H    0.152306
     7  H    0.152103
     8  H    0.155398
     9  H    0.155370
    10  H    0.160741
    11  C   -0.297634
    12  C   -0.304718
    13  C   -0.475658
    14  H    0.150132
    15  H    0.149943
    16  H    0.152030
    17  H    0.155556
    18  H    0.155511
    19  H    0.155621
    20  H    0.160494
    21  C   -0.299965
    22  C   -0.300141
    23  C   -0.475786
    24  H    0.152254
    25  H    0.149047
    26  H    0.152743
    27  H    0.151721
    28  H    0.155084
    29  H    0.155116
    30  H    0.159957
    31  C   -0.305558
    32  C   -0.301914
    33  C   -0.476402
    34  H    0.157082
    35  H    0.149567
    36  H    0.152785
    37  H    0.152435
    38  H    0.155776
    39  H    0.154190
    40  H    0.160461
 Sum of Mulliken charges =  -0.00000

 Dipole moment (field-independent basis, Debye):
    X=             -0.0408    Y=              0.0047    Z=             -0.0046  Tot=              0.0413
 Quadrupole moment (field-independent basis, Debye-Ang):
   XX=            -84.0717   YY=            -85.8489   ZZ=            -84.7596
   XY=             -0.7432   XZ=              0.5482   YZ=             -0.6306

 Normal termination of Gaussian 16 at Wed May  5 19:46:07 2021.
