 Gaussian 16, Revision A.03,
 Gaussian 16:  EM64L-G16RevA.03 25-Dec-2016

 -------------
 #p 6-31g* mp2
 -------------

 ------------------------------------------------------
 Input file generated by CHIRIPA (05-May-2021 14:51:10)
 ------------------------------------------------------
 Symbolic Z-matrix:
 Charge =  0 Multiplicity = 1

                         Standard orientation:
 ---------------------------------------------------------------------
 Center     Atomic      Atomic             Coordinates (Angstroms)
 Number     Number       Type             X           Y           Z
 ---------------------------------------------------------------------
      1          6           0       -3.106641    0.822062   -0.141405
      2          6           0       -2.200906    1.985211   -0.547252
      3          6           0       -2.696876    3.332260   -0.020691
      4          1           0       -4.123342    1.010592   -0.512513
      5          1           0       -3.175749    0.785419    0.954622
      6          1           0       -2.132419    2.018799   -1.642148
      7          1           0       -1.186200    1.793798   -0.175300
      8          1           0       -2.748177    3.323165    1.072875
      9          1           0       -3.699772    3.549444   -0.402308
     10          1           0       -2.034663    4.149734   -0.322472
     11          6           0       -2.623967   -0.531249   -0.660349
     12          6           0       -3.529703   -1.694399   -0.254503
     13          6           0       -3.033733   -3.041448   -0.781063
     14          1           0       -2.554860   -0.494606   -1.756377
     15          1           0       -1.607266   -0.719780   -0.289242
     16          1           0       -4.544409   -1.502985   -0.626455
     17          1           0       -3.598190   -1.727986    0.840393
     18          1           0       -2.030836   -3.258632   -0.399447
     19          1           0       -2.982432   -3.032353   -1.874629
     20          1           0       -3.695945   -3.858922   -0.479283
     21          6           0        2.444749   -0.505843    0.926853
     22          6           0        1.080752    0.143905    1.162064
     23          6           0        0.251071   -0.588560    2.217013
     24          1           0        2.298133   -1.550423    0.619766
     25          1           0        2.998325   -0.533728    1.875626
     26          1           0        0.530461    0.171808    0.212844
     27          1           0        1.230627    1.187114    1.468440
     28          1           0        0.776342   -0.604416    3.177451
     29          1           0        0.072198   -1.625491    1.914720
     30          1           0       -0.720013   -0.107254    2.369328
     31          6           0        3.285860    0.215031   -0.125098
     32          6           0        4.649857   -0.434717   -0.360309
     33          6           0        5.479538    0.297748   -1.415259
     34          1           0        2.732283    0.242915   -1.073871
     35          1           0        3.432476    1.259611    0.181988
     36          1           0        4.499981   -1.477928   -0.666685
     37          1           0        5.200147   -0.462621    0.588910
     38          1           0        5.658411    1.334679   -1.112966
     39          1           0        4.954267    0.313603   -2.375697
     40          1           0        6.450621   -0.183558   -1.567574
 ---------------------------------------------------------------------

 SCF Done:  E(RHF) =  -470.732325022     A.U. after   11 cycles
 E2 =    -0.1584754254D+01 EUMP2 =    -0.47231707927541D+03

 The electronic state is 1-A.
 Alpha  occ. eigenvalues --  -11.21669 -11.21628 -11.21574 -11.21514 -11.21455
 Alpha  occ. eigenvalues --  -11.21392 -11.21363 -11.21295 -11.21197 -11.21089
 Alpha  occ. eigenvalues --  -11.21074 -11.21036  -1.08516  -1.08377  -1.03606
 Alpha  occ. eigenvalues --   -1.03495  -0.96064  -0.95939  -0.87065  -0.86967
 Alpha  occ. eigenvalues --   -0.79729  -0.79528  -0.78410  -0.78111  -0.65343
 Alpha  occ. eigenvalues --   -0.64888  -0.61018  -0.60894  -0.59431  -0.59290
 Alpha  occ. eigenvalues --   -0.57662  -0.57555  -0.55421  -0.55153  -0.52739
 Alpha  occ. eigenvalues --   -0.52647  -0.52476  -0.52371  -0.50006  -0.49886
 Alpha  occ. eigenvalues --   -0.48131  -0.47839  -0.46850  -0.46581  -0.46104
 Alpha  occ. eigenvalues --   -0.45793  -0.45721  -0.45107  -0.43830  -0.43746
 Alpha virt. eigenvalues --    0.20044   0.22901   0.23597   0.24545   0.26026
 Alpha virt. eigenvalues --    0.26333   0.26926   0.27416   0.28077   0.29895
 Alpha virt. eigenvalues --    0.30434   0.31444   0.31789   0.31969   0.32260

 Mulliken charges:
               1
     1  C   -0.298362
     2  C   -0.308379
     3  C   -0.475132
     4  H    0.149645
     5  H    0.149129
     6  H    0.151130
     7  H    0.161869
     8  H    0.154616
     9  H    0.154946
    10  H    0.160042
    11  C   -0.307505
    12  C   -0.299052
    13  C   -0.475806
    14  H    0.148674
    15  H    0.160174
    16  H    0.151821
    17  H    0.152284
    18  H    0.154421
    19  H    0.155029
    20  H    0.160365
    21  C   -0.297031
    22  C   -0.309112
    23  C   -0.479174
    24  H    0.149565
    25  H    0.149690
    26  H    0.159354
    27  H    0.152364
    28  H    0.156720
    29  H    0.155113
    30  H    0.162014
    31  C   -0.298639
    32  C   -0.299706
    33  C   -0.475760
    34  H    0.150021
    35  H    0.149730
    36  H    0.152070
    37  H    0.151969
    38  H    0.155215
    39  H    0.155331
    40  H    0.160359
 Sum of Mulliken charges =  -0.00000

 Dipole moment (field-independent basis, Debye):
    X=              0.0522    Y=             -0.0041    Z=              0.0121  Tot=              0.0537
 Quadrupole moment (field-independent basis, Debye-Ang):
   XX=            -85.0027   YY=            -85.7714   ZZ=            -84.1638
   XY=              0.1615   XZ=              1.3391   YZ=              0.3131

 Normal termination of Gaussian 16 at Thu May  6 02:13:08 2021.
