 Gaussian 16, Revision A.03,
 Gaussian 16:  EM64L-G16RevA.03 25-Dec-2016

 -------------
 #p 6-31g* mp2
 -------------

 ------------------------------------------------------
 Input file generated by CHIRIPA (05-May-2021 14:51:10)
 ------------------------------------------------------
 Symbolic Z-matrix:
 Charge =  0 Multiplicity = 1

                         Standard orientation:
 ---------------------------------------------------------------------
 Center     Atomic      Atomic             Coordinates (Angstroms)
 Number     Number       Type             X           Y           Z
 ---------------------------------------------------------------------
      1          6           0       -2.755327    0.925530    0.158375
      2          6           0       -3.796218    2.043869    0.096344
      3          6           0       -3.259895    3.379869    0.611374
      4          1           0       -2.412661    0.809343    1.195691
      5          1           0       -1.875480    1.219961   -0.430332
      6          1           0       -4.674404    1.746827    0.683857
      7          1           0       -4.136586    2.157278   -0.940914
      8          1           0       -2.396953    3.702374    0.019831
      9          1           0       -2.937827    3.289591    1.653834
     10          1           0       -4.020365    4.165171    0.558033
     11          6           0       -3.276553   -0.416268   -0.353123
     12          6           0       -2.235662   -1.534607   -0.291092
     13          6           0       -2.771985   -2.870607   -0.806123
     14          1           0       -4.156400   -0.710699    0.235583
     15          1           0       -3.619219   -0.300081   -1.390440
     16          1           0       -1.895294   -1.648016    0.746166
     17          1           0       -1.357476   -1.237565   -0.878606
     18          1           0       -3.094053   -2.780329   -1.848583
     19          1           0       -3.634927   -3.193112   -0.214580
     20          1           0       -2.011515   -3.655909   -0.752782
     21          6           0        2.887172   -0.872895    0.527026
     22          6           0        1.655386   -1.667642    0.092206
     23          6           0        1.410924   -2.901601    0.961330
     24          1           0        3.768791   -1.527527    0.493127
     25          1           0        2.765778   -0.566099    1.575136
     26          1           0        1.778453   -1.971665   -0.955191
     27          1           0        0.776628   -1.010991    0.126960
     28          1           0        1.262277   -2.613050    2.006913
     29          1           0        2.269794   -3.579184    0.918613
     30          1           0        0.525584   -3.454952    0.632942
     31          6           0        3.144708    0.363633   -0.332277
     32          6           0        4.376493    1.158380    0.102543
     33          6           0        4.620956    2.392340   -0.766582
     34          1           0        3.266102    0.056837   -1.380387
     35          1           0        2.263088    1.018265   -0.298378
     36          1           0        5.255251    0.501729    0.067789
     37          1           0        4.253427    1.462403    1.149940
     38          1           0        3.762086    3.069921   -0.723864
     39          1           0        4.769603    2.103789   -1.812164
     40          1           0        5.506295    2.945690   -0.438193
 ---------------------------------------------------------------------

 SCF Done:  E(RHF) =  -470.732784440     A.U. after   11 cycles
 E2 =    -0.1583602165D+01 EUMP2 =    -0.47231638660440D+03

 The electronic state is 1-A.
 Alpha  occ. eigenvalues --  -11.21635 -11.21584 -11.21567 -11.21486 -11.21439
 Alpha  occ. eigenvalues --  -11.21371 -11.21370 -11.21304 -11.21104 -11.21092
 Alpha  occ. eigenvalues --  -11.21062 -11.21030  -1.08469  -1.08381  -1.03590
 Alpha  occ. eigenvalues --   -1.03456  -0.96023  -0.95930  -0.87028  -0.86958
 Alpha  occ. eigenvalues --   -0.79732  -0.79475  -0.78369  -0.78105  -0.65095
 Alpha  occ. eigenvalues --   -0.65017  -0.60957  -0.60900  -0.59600  -0.59141
 Alpha  occ. eigenvalues --   -0.57783  -0.57345  -0.55292  -0.55235  -0.52758
 Alpha  occ. eigenvalues --   -0.52599  -0.52463  -0.52317  -0.49972  -0.49874
 Alpha  occ. eigenvalues --   -0.48183  -0.47732  -0.46749  -0.46528  -0.46025
 Alpha  occ. eigenvalues --   -0.45772  -0.45686  -0.45281  -0.43827  -0.43715
 Alpha virt. eigenvalues --    0.21181   0.23004   0.23251   0.24948   0.25326
 Alpha virt. eigenvalues --    0.26456   0.26681   0.27123   0.28728   0.29170
 Alpha virt. eigenvalues --    0.30182   0.31027   0.31485   0.31643   0.32500

 Mulliken charges:
               1
     1  C   -0.299007
     2  C   -0.299508
     3  C   -0.475755
     4  H    0.149309
     5  H    0.149161
     6  H    0.152163
     7  H    0.152172
     8  H    0.155086
     9  H    0.155075
    10  H    0.160464
    11  C   -0.297937
    12  C   -0.304796
    13  C   -0.477489
    14  H    0.149420
    15  H    0.149589
    16  H    0.153334
    17  H    0.158126
    18  H    0.155293
    19  H    0.155270
    20  H    0.161114
    21  C   -0.297647
    22  C   -0.304684
    23  C   -0.478207
    24  H    0.149155
    25  H    0.149218
    26  H    0.150368
    27  H    0.159395
    28  H    0.154513
    29  H    0.154809
    30  H    0.162747
    31  C   -0.298297
    32  C   -0.299553
    33  C   -0.475700
    34  H    0.149181
    35  H    0.149325
    36  H    0.151945
    37  H    0.151975
    38  H    0.155092
    39  H    0.155043
    40  H    0.160237
 Sum of Mulliken charges =  -0.00000

 Dipole moment (field-independent basis, Debye):
    X=             -0.0378    Y=              0.0049    Z=             -0.0064  Tot=              0.0386
 Quadrupole moment (field-independent basis, Debye-Ang):
   XX=            -84.6054   YY=            -86.4077   ZZ=            -83.8919
   XY=             -0.7681   XZ=             -0.5800   YZ=              0.2891

 Normal termination of Gaussian 16 at Wed May  5 21:23:41 2021.
