 Gaussian 16, Revision A.03,
 Gaussian 16:  EM64L-G16RevA.03 25-Dec-2016

 -------------
 #p 6-31g* mp2
 -------------

 ------------------------------------------------------
 Input file generated by CHIRIPA (05-May-2021 14:57:24)
 ------------------------------------------------------
 Symbolic Z-matrix:
 Charge =  0 Multiplicity = 1

                         Standard orientation:
 ---------------------------------------------------------------------
 Center     Atomic      Atomic             Coordinates (Angstroms)
 Number     Number       Type             X           Y           Z
 ---------------------------------------------------------------------
      1          6           0       -2.811544    2.192376    0.242838
      2          6           0       -2.127379    1.071477   -0.238851
      3          6           0       -2.787448   -0.151299   -0.392728
      4          6           0       -4.137990   -0.217784   -0.053748
      5          6           0       -4.847120    0.881179    0.428647
      6          6           0       -4.166842    2.093823    0.574465
      7          1           0       -2.290937    3.138322    0.359242
      8          1           0       -1.074816    1.145081   -0.497190
      9          1           0       -2.282038   -1.034783   -0.763449
     10          1           0       -5.896148    0.776907    0.677819
     11          1           0       -4.700715    2.962681    0.948779
     12          7           0       -4.847473   -1.506918   -0.212384
     13          8           0       -6.037486   -1.539405    0.093309
     14          8           0       -4.200117   -2.460446   -0.639413
     15          6           0        6.372625   -0.902078    0.140242
     16          6           0        5.962702   -0.155775   -0.969495
     17          6           0        4.662136    0.351900   -1.042594
     18          6           0        3.793718    0.093042    0.016713
     19          6           0        4.172345   -0.647012    1.135753
     20          6           0        5.477716   -1.144886    1.187478
     21          1           0        7.384802   -1.292645    0.188726
     22          1           0        6.655554    0.034360   -1.784264
     23          1           0        4.318503    0.932756   -1.889907
     24          1           0        3.459065   -0.820037    1.932441
     25          1           0        5.793313   -1.724150    2.050553
     26          7           0        2.414323    0.625307   -0.049359
     27          8           0        1.668334    0.383314    0.896990
     28          8           0        2.105262    1.274412   -1.046245
 ---------------------------------------------------------------------

 SCF Done:  E(RHF) =  -868.341553639     A.U. after   16 cycles
 E2 =    -0.2598647131D+01 EUMP2 =    -0.87094020077035D+03

 The electronic state is 1-A.
 Alpha  occ. eigenvalues --  -20.61918 -20.61911 -20.59857 -20.59849 -15.86878
 Alpha  occ. eigenvalues --  -15.84893 -11.31882 -11.30003 -11.28405 -11.28391
 Alpha  occ. eigenvalues --  -11.28076 -11.27332 -11.27318 -11.26566 -11.26405
 Alpha  occ. eigenvalues --  -11.26131 -11.25576 -11.25165  -1.60955  -1.58935
 Alpha  occ. eigenvalues --   -1.40511  -1.38496  -1.20017  -1.18111  -1.09485
 Alpha  occ. eigenvalues --   -1.07549  -1.05360  -1.03443  -0.96378  -0.94442
 Alpha  occ. eigenvalues --   -0.86776  -0.84847  -0.83220  -0.81265  -0.78310
 Alpha  occ. eigenvalues --   -0.76350  -0.73099  -0.72233  -0.71122  -0.71117
 Alpha  occ. eigenvalues --   -0.70253  -0.69224  -0.65670  -0.65360  -0.63744
 Alpha  occ. eigenvalues --   -0.63389  -0.62708  -0.60776  -0.55878  -0.53955
 Alpha  occ. eigenvalues --   -0.53710  -0.53444  -0.51826  -0.51528  -0.49885
 Alpha  occ. eigenvalues --   -0.49812  -0.47891  -0.47843  -0.45990  -0.43959
 Alpha  occ. eigenvalues --   -0.37974  -0.36943  -0.36086  -0.35034
 Alpha virt. eigenvalues --    0.04192   0.06122   0.10717   0.12612   0.15769
 Alpha virt. eigenvalues --    0.17710   0.20895   0.22871   0.26838   0.27754
 Alpha virt. eigenvalues --    0.28918   0.29546   0.30503   0.31976   0.32520

 Mulliken charges:
               1
     1  C   -0.173473
     2  C   -0.222744
     3  C   -0.174279
     4  C    0.157966
     5  C   -0.174341
     6  C   -0.218694
     7  H    0.225449
     8  H    0.250058
     9  H    0.273273
    10  H    0.270838
    11  H    0.218421
    12  N    0.488160
    13  O   -0.464307
    14  O   -0.463026
    15  C   -0.169336
    16  C   -0.218599
    17  C   -0.170250
    18  C    0.158284
    19  C   -0.170117
    20  C   -0.218576
    21  H    0.228301
    22  H    0.225652
    23  H    0.275900
    24  H    0.277020
    25  H    0.226162
    26  N    0.488803
    27  O   -0.461461
    28  O   -0.465086
 Sum of Mulliken charges =  -0.00000

 Dipole moment (field-independent basis, Debye):
    X=              8.1220    Y=              2.6682    Z=              0.8018  Tot=              8.5866
 Quadrupole moment (field-independent basis, Debye-Ang):
   XX=            -86.1460   YY=           -106.8792   ZZ=           -101.2165
   XY=            -28.1585   XZ=             -3.9751   YZ=             -1.8299

 Normal termination of Gaussian 16 at Thu May  6 17:59:38 2021.
