 Gaussian 16, Revision A.03,
 Gaussian 16:  EM64L-G16RevA.03 25-Dec-2016

 -------------
 #p 6-31g* mp2
 -------------

 ------------------------------------------------------
 Input file generated by CHIRIPA (05-May-2021 14:51:09)
 ------------------------------------------------------
 Symbolic Z-matrix:
 Charge =  0 Multiplicity = 1

                         Standard orientation:
 ---------------------------------------------------------------------
 Center     Atomic      Atomic             Coordinates (Angstroms)
 Number     Number       Type             X           Y           Z
 ---------------------------------------------------------------------
      1          6           0       -2.849173   -0.852023    0.016309
      2          6           0       -2.980197    0.640170    0.323193
      3          6           0       -4.435669    1.095692    0.432262
      4          1           0       -3.375802   -1.074557   -0.921820
      5          1           0       -3.356309   -1.427040    0.803433
      6          1           0       -2.471775    1.212155   -0.463544
      7          1           0       -2.453033    0.859212    1.260602
      8          1           0       -4.951149    0.550767    1.229720
      9          1           0       -4.969997    0.905715   -0.504222
     10          1           0       -4.506107    2.165551    0.652034
     11          6           0       -1.400102   -1.322513   -0.095755
     12          6           0       -1.269078   -2.814706   -0.402640
     13          6           0        0.186394   -3.270227   -0.511709
     14          1           0       -0.892966   -0.747496   -0.882879
     15          1           0       -0.873473   -1.099979    0.842374
     16          1           0       -1.796242   -3.033748   -1.340048
     17          1           0       -1.777500   -3.386690    0.384098
     18          1           0        0.720722   -3.080251    0.424776
     19          1           0        0.701874   -2.725303   -1.309167
     20          1           0        0.256832   -4.340087   -0.731481
     21          6           0        2.018821    1.769021   -0.288071
     22          6           0        0.689314    2.423360    0.089069
     23          6           0        0.492154    3.786642   -0.574546
     24          1           0        2.842834    2.438491   -0.005658
     25          1           0        2.067532    1.656782   -1.380053
     26          1           0        0.642535    2.533068    1.180119
     27          1           0       -0.131622    1.752170   -0.194100
     28          1           0        0.512416    3.690841   -1.664965
     29          1           0        1.290971    4.476176   -0.282937
     30          1           0       -0.464529    4.236466   -0.291218
     31          6           0        2.230454    0.405515    0.367517
     32          6           0        3.559961   -0.248824   -0.009623
     33          6           0        3.757120   -1.612107    0.653993
     34          1           0        2.181743    0.517754    1.459499
     35          1           0        1.406442   -0.263955    0.085105
     36          1           0        4.380896    0.422366    0.273546
     37          1           0        3.606740   -0.358533   -1.100674
     38          1           0        2.958304   -2.301641    0.362383
     39          1           0        3.736859   -1.516305    1.744412
     40          1           0        4.713804   -2.061930    0.370664
 ---------------------------------------------------------------------

 SCF Done:  E(RHF) =  -470.730978043     A.U. after   11 cycles
 E2 =    -0.1586581650D+01 EUMP2 =    -0.47231755969350D+03

 The electronic state is 1-A.
 Alpha  occ. eigenvalues --  -11.21705 -11.21636 -11.21487 -11.21466 -11.21424
 Alpha  occ. eigenvalues --  -11.21424 -11.21259 -11.21183 -11.21148 -11.21104
 Alpha  occ. eigenvalues --  -11.20999 -11.20891  -1.08554  -1.08272  -1.03640
 Alpha  occ. eigenvalues --   -1.03388  -0.96091  -0.95844  -0.87123  -0.86852
 Alpha  occ. eigenvalues --   -0.79819  -0.79366  -0.78671  -0.77825  -0.65200
 Alpha  occ. eigenvalues --   -0.64902  -0.61025  -0.60857  -0.59507  -0.59158
 Alpha  occ. eigenvalues --   -0.57822  -0.57363  -0.55387  -0.55156  -0.52780
 Alpha  occ. eigenvalues --   -0.52641  -0.52545  -0.52131  -0.50058  -0.49737
 Alpha  occ. eigenvalues --   -0.48392  -0.47550  -0.46887  -0.46644  -0.46400
 Alpha  occ. eigenvalues --   -0.45787  -0.45543  -0.44584  -0.43860  -0.43633
 Alpha virt. eigenvalues --    0.21309   0.22264   0.23480   0.24799   0.25578
 Alpha virt. eigenvalues --    0.26010   0.26543   0.27552   0.28316   0.30475
 Alpha virt. eigenvalues --    0.30773   0.31029   0.31512   0.31905   0.32310

 Mulliken charges:
               1
     1  C   -0.297389
     2  C   -0.303356
     3  C   -0.475249
     4  H    0.149437
     5  H    0.149768
     6  H    0.154525
     7  H    0.153946
     8  H    0.155210
     9  H    0.155088
    10  H    0.160479
    11  C   -0.304049
    12  C   -0.299241
    13  C   -0.481295
    14  H    0.150329
    15  H    0.153805
    16  H    0.152061
    17  H    0.152482
    18  H    0.159999
    19  H    0.155387
    20  H    0.161416
    21  C   -0.296919
    22  C   -0.309094
    23  C   -0.475595
    24  H    0.148882
    25  H    0.147701
    26  H    0.150562
    27  H    0.163348
    28  H    0.154100
    29  H    0.155036
    30  H    0.159772
    31  C   -0.309630
    32  C   -0.298012
    33  C   -0.483526
    34  H    0.147341
    35  H    0.163724
    36  H    0.151131
    37  H    0.150494
    38  H    0.164363
    39  H    0.153543
    40  H    0.159423
 Sum of Mulliken charges =  -0.00000

 Dipole moment (field-independent basis, Debye):
    X=             -0.1220    Y=             -0.0881    Z=              0.0067  Tot=              0.1506
 Quadrupole moment (field-independent basis, Debye-Ang):
   XX=            -86.0273   YY=            -85.7914   ZZ=            -83.3333
   XY=              0.8952   XZ=              0.2929   YZ=              0.5229

 Normal termination of Gaussian 16 at Wed May  5 18:09:28 2021.
