 Gaussian 16, Revision A.03,
 Gaussian 16:  EM64L-G16RevA.03 25-Dec-2016

 -------------
 #p 6-31g* mp2
 -------------

 ------------------------------------------------------
 Input file generated by CHIRIPA (05-May-2021 14:53:17)
 ------------------------------------------------------
 Symbolic Z-matrix:
 Charge =  0 Multiplicity = 1

                         Standard orientation:
 ---------------------------------------------------------------------
 Center     Atomic      Atomic             Coordinates (Angstroms)
 Number     Number       Type             X           Y           Z
 ---------------------------------------------------------------------
      1          6           0       -4.718314   -0.260278   -0.346683
      2          6           0       -5.777855    0.686504    0.218084
      3          6           0       -7.168542    0.432290   -0.364290
      4          1           0       -4.684970   -0.152993   -1.439534
      5          1           0       -5.017919   -1.297742   -0.143456
      6          1           0       -5.475654    1.721915    0.015069
      7          1           0       -5.808547    0.577092    1.309735
      8          1           0       -7.495118   -0.590350   -0.149453
      9          1           0       -7.160334    0.560978   -1.451476
     10          1           0       -7.910481    1.120126    0.053164
     11          6           0       -3.322815   -0.018523    0.225912
     12          6           0       -2.263274   -0.965305   -0.338855
     13          6           0       -0.872587   -0.711091    0.243519
     14          1           0       -3.023210    1.018941    0.022685
     15          1           0       -3.356159   -0.125807    1.318763
     16          1           0       -2.232582   -0.855892   -1.430507
     17          1           0       -2.565475   -2.000716   -0.135840
     18          1           0       -0.880795   -0.839778    1.330705
     19          1           0       -0.546010    0.311550    0.028682
     20          1           0       -0.130647   -1.398927   -0.173935
     21          6           0        3.218144    2.630113   -0.011957
     22          6           0        3.913707    1.885848   -0.970488
     23          6           0        3.878103    0.488441   -0.947384
     24          6           0        3.133614   -0.134835    0.052893
     25          6           0        2.430001    0.578898    1.021812
     26          6           0        2.479813    1.975418    0.979386
     27          1           0        3.251321    3.715308   -0.037410
     28          1           0        4.487924    2.391609   -1.741542
     29          1           0        4.407224   -0.112273   -1.677174
     30          1           0        1.866237    0.046453    1.778179
     31          1           0        1.938650    2.550853    1.725081
     32          7           0        3.088402   -1.613737    0.087579
     33          8           0        2.425207   -2.138970    0.979174
     34          8           0        3.717013   -2.219664   -0.777484
 ---------------------------------------------------------------------

 SCF Done:  E(RHF) =  -669.535487733     A.U. after   15 cycles
 E2 =    -0.2092390172D+01 EUMP2 =    -0.67162787790550D+03

 The electronic state is 1-A.
 Alpha  occ. eigenvalues --  -20.60831 -20.60813 -15.85847 -11.31152 -11.27754
 Alpha  occ. eigenvalues --  -11.27718 -11.27498 -11.26746 -11.26732 -11.21582
 Alpha  occ. eigenvalues --  -11.21370 -11.21318 -11.21261 -11.21049 -11.20750
 Alpha  occ. eigenvalues --   -1.59887  -1.39442  -1.19346  -1.08751  -1.08328
 Alpha  occ. eigenvalues --   -1.04746  -1.03399  -0.95867  -0.95582  -0.86893
 Alpha  occ. eigenvalues --   -0.86131  -0.82428  -0.79487  -0.78155  -0.77464
 Alpha  occ. eigenvalues --   -0.72076  -0.71209  -0.70461  -0.65004  -0.64959
 Alpha  occ. eigenvalues --   -0.64747  -0.62093  -0.60800  -0.59206  -0.57460
 Alpha  occ. eigenvalues --   -0.55260  -0.55166  -0.53147  -0.52862  -0.52487
 Alpha  occ. eigenvalues --   -0.52226  -0.49804  -0.48833  -0.48833  -0.47788
 Alpha  occ. eigenvalues --   -0.46509  -0.45690  -0.45617  -0.44893  -0.43561
 Alpha  occ. eigenvalues --   -0.37323  -0.36305
 Alpha virt. eigenvalues --    0.05033   0.11283   0.16506   0.21292   0.22958
 Alpha virt. eigenvalues --    0.24380   0.26353   0.26858   0.27668   0.27790
 Alpha virt. eigenvalues --    0.28919   0.30389   0.31493   0.31830   0.32155

 Mulliken charges:
               1
     1  C   -0.298124
     2  C   -0.299352
     3  C   -0.475629
     4  H    0.149520
     5  H    0.150851
     6  H    0.150299
     7  H    0.151605
     8  H    0.155890
     9  H    0.155086
    10  H    0.159621
    11  C   -0.298002
    12  C   -0.300673
    13  C   -0.481280
    14  H    0.145975
    15  H    0.148636
    16  H    0.151219
    17  H    0.155335
    18  H    0.152768
    19  H    0.148453
    20  H    0.172439
    21  C   -0.170391
    22  C   -0.219093
    23  C   -0.170713
    24  C    0.156951
    25  C   -0.165474
    26  C   -0.221181
    27  H    0.225492
    28  H    0.223203
    29  H    0.275393
    30  H    0.278267
    31  H    0.223636
    32  N    0.487531
    33  O   -0.458450
    34  O   -0.459810
 Sum of Mulliken charges =  -0.00000

 Dipole moment (field-independent basis, Debye):
    X=              0.2433    Y=              5.1179    Z=             -0.1168  Tot=              5.1250
 Quadrupole moment (field-independent basis, Debye-Ang):
   XX=            -93.8723   YY=            -96.2632   ZZ=            -91.3817
   XY=             16.5715   XZ=             -3.6042   YZ=             -0.0677

 Normal termination of Gaussian 16 at Thu May  6 20:29:39 2021.
