 Gaussian 16, Revision A.03,
 Gaussian 16:  EM64L-G16RevA.03 25-Dec-2016

 -------------
 #p 6-31g* mp2
 -------------

 ------------------------------------------------------
 Input file generated by CHIRIPA (05-May-2021 14:55:23)
 ------------------------------------------------------
 Symbolic Z-matrix:
 Charge =  0 Multiplicity = 1

                         Standard orientation:
 ---------------------------------------------------------------------
 Center     Atomic      Atomic             Coordinates (Angstroms)
 Number     Number       Type             X           Y           Z
 ---------------------------------------------------------------------
      1          6           0        4.154528   -1.949521   -0.183689
      2          6           0        4.751195   -0.897739    0.519350
      3          6           0        4.147859    0.362828    0.558155
      4          6           0        2.942656    0.537173   -0.120359
      5          6           0        2.323462   -0.490938   -0.829495
      6          6           0        2.944698   -1.743127   -0.854685
      7          1           0        4.630166   -2.925505   -0.208545
      8          1           0        5.690748   -1.055132    1.041378
      9          1           0        4.587966    1.194558    1.094763
     10          1           0        1.386693   -0.303546   -1.340149
     11          1           0        2.479032   -2.558124   -1.401477
     12          7           0        2.294456    1.867244   -0.086485
     13          8           0        1.232820    1.995098   -0.692470
     14          8           0        2.860308    2.756716    0.545409
     15          6           0       -4.443636   -0.083481   -0.271067
     16          6           0       -5.785687    0.065457    0.446358
     17          6           0       -6.856408    0.714271   -0.431361
     18          1           0       -4.099362    0.906408   -0.600523
     19          1           0       -4.586535   -0.683366   -1.180524
     20          1           0       -5.640036    0.663719    1.354920
     21          1           0       -6.126712   -0.924878    0.774312
     22          1           0       -7.030851    0.116278   -1.331680
     23          1           0       -6.541410    1.713901   -0.747773
     24          1           0       -7.807645    0.811037    0.101222
     25          6           0       -3.363054   -0.730501    0.593477
     26          6           0       -2.021001   -0.879438   -0.123948
     27          6           0       -0.950280   -1.528252    0.753771
     28          1           0       -3.220154   -0.130616    1.502934
     29          1           0       -3.707326   -1.720389    0.922932
     30          1           0       -1.679976    0.110897   -0.451902
     31          1           0       -2.166652   -1.477700   -1.032510
     32          1           0       -1.265278   -2.527882    1.070183
     33          1           0       -0.775838   -0.930258    1.654089
     34          1           0        0.000957   -1.625018    0.221187
 ---------------------------------------------------------------------

 SCF Done:  E(RHF) =  -669.535008704     A.U. after   15 cycles
 E2 =    -0.2092475253D+01 EUMP2 =    -0.67162748395793D+03

 The electronic state is 1-A.
 Alpha  occ. eigenvalues --  -20.60836 -20.60831 -15.85883 -11.31221 -11.27807
 Alpha  occ. eigenvalues --  -11.27791 -11.27546 -11.26810 -11.26800 -11.21411
 Alpha  occ. eigenvalues --  -11.21363 -11.21180 -11.21096 -11.21032 -11.20837
 Alpha  occ. eigenvalues --   -1.59904  -1.39459  -1.19412  -1.08802  -1.08214
 Alpha  occ. eigenvalues --   -1.04825  -1.03355  -0.95838  -0.95628  -0.86844
 Alpha  occ. eigenvalues --   -0.86204  -0.82480  -0.79415  -0.78020  -0.77528
 Alpha  occ. eigenvalues --   -0.72104  -0.71224  -0.70529  -0.65068  -0.64855
 Alpha  occ. eigenvalues --   -0.64794  -0.62215  -0.60734  -0.59209  -0.57451
 Alpha  occ. eigenvalues --   -0.55310  -0.55089  -0.53304  -0.52917  -0.52401
 Alpha  occ. eigenvalues --   -0.52176  -0.49739  -0.48861  -0.48858  -0.47737
 Alpha  occ. eigenvalues --   -0.46422  -0.45567  -0.45470  -0.44858  -0.43622
 Alpha  occ. eigenvalues --   -0.37383  -0.36340
 Alpha virt. eigenvalues --    0.04966   0.11215   0.16380   0.20893   0.23139
 Alpha virt. eigenvalues --    0.24254   0.26587   0.26951   0.27610   0.28066
 Alpha virt. eigenvalues --    0.29170   0.30442   0.31569   0.31748   0.32504

 Mulliken charges:
               1
     1  C   -0.170282
     2  C   -0.218613
     3  C   -0.170958
     4  C    0.157292
     5  C   -0.170243
     6  C   -0.218493
     7  H    0.225981
     8  H    0.223642
     9  H    0.275735
    10  H    0.279047
    11  H    0.224319
    12  N    0.488536
    13  O   -0.461479
    14  O   -0.459975
    15  C   -0.299143
    16  C   -0.299661
    17  C   -0.475781
    18  H    0.154381
    19  H    0.147615
    20  H    0.152899
    21  H    0.150364
    22  H    0.154196
    23  H    0.156795
    24  H    0.159580
    25  C   -0.297932
    26  C   -0.306372
    27  C   -0.478290
    28  H    0.152036
    29  H    0.147217
    30  H    0.166504
    31  H    0.146265
    32  H    0.152433
    33  H    0.159159
    34  H    0.153227
 Sum of Mulliken charges =  -0.00000

 Dipole moment (field-independent basis, Debye):
    X=              2.3549    Y=             -4.5598    Z=             -0.1051  Tot=              5.1331
 Quadrupole moment (field-independent basis, Debye-Ang):
   XX=            -79.4352   YY=            -99.3378   ZZ=            -93.8869
   XY=            -10.9670   XZ=              1.4852   YZ=              2.2464

 Normal termination of Gaussian 16 at Thu May  6 15:57:32 2021.
