 Gaussian 16, Revision A.03,
 Gaussian 16:  EM64L-G16RevA.03 25-Dec-2016

 -------------
 #p 6-31g* mp2
 -------------

 ------------------------------------------------------
 Input file generated by CHIRIPA (05-May-2021 14:55:21)
 ------------------------------------------------------
 Symbolic Z-matrix:
 Charge =  0 Multiplicity = 1

                         Standard orientation:
 ---------------------------------------------------------------------
 Center     Atomic      Atomic             Coordinates (Angstroms)
 Number     Number       Type             X           Y           Z
 ---------------------------------------------------------------------
      1          6           0       -3.377667    1.416095    1.467159
      2          6           0       -2.534063    1.760731    0.405990
      3          6           0       -2.020977    0.774881   -0.442179
      4          6           0       -2.373701   -0.551678   -0.199038
      5          6           0       -3.211900   -0.926708    0.849802
      6          6           0       -3.713301    0.075839    1.685293
      7          1           0       -3.771706    2.188412    2.121112
      8          1           0       -2.271710    2.800781    0.234196
      9          1           0       -1.365853    1.013750   -1.271137
     10          1           0       -3.455568   -1.972030    0.995903
     11          1           0       -4.368242   -0.194739    2.508632
     12          7           0       -1.836705   -1.604191   -1.090246
     13          8           0       -2.162533   -2.765673   -0.854805
     14          8           0       -1.100148   -1.247739   -2.007340
     15          6           0        3.261658   -0.121991    0.518386
     16          6           0        4.653854   -0.738374    0.377509
     17          6           0        4.858760   -1.949970    1.287368
     18          1           0        3.102079    0.172285    1.564753
     19          1           0        2.505354   -0.885578    0.289617
     20          1           0        5.407336    0.026524    0.605130
     21          1           0        4.810210   -1.031042   -0.668681
     22          1           0        4.129042   -2.732825    1.056607
     23          1           0        4.729560   -1.669250    2.337656
     24          1           0        5.860579   -2.374906    1.170542
     25          6           0        3.041587    1.090211   -0.384866
     26          6           0        1.649391    1.706594   -0.243989
     27          6           0        1.444485    2.918190   -1.153847
     28          1           0        3.797890    1.853798   -0.156097
     29          1           0        3.201165    0.795935   -1.431231
     30          1           0        1.493034    1.999262    0.802201
     31          1           0        0.895908    0.941695   -0.471610
     32          1           0        1.573684    2.637471   -2.204136
     33          1           0        2.174203    3.701045   -0.923086
     34          1           0        0.442665    3.343126   -1.037021
 ---------------------------------------------------------------------

 SCF Done:  E(RHF) =  -669.535292867     A.U. after   15 cycles
 E2 =    -0.2092675024D+01 EUMP2 =    -0.67162796789124D+03

 The electronic state is 1-A.
 Alpha  occ. eigenvalues --  -20.60853 -20.60848 -15.85892 -11.31201 -11.27780
 Alpha  occ. eigenvalues --  -11.27749 -11.27518 -11.26781 -11.26768 -11.21703
 Alpha  occ. eigenvalues --  -11.21481 -11.21362 -11.21296 -11.21157 -11.20810
 Alpha  occ. eigenvalues --   -1.59920  -1.39476  -1.19382  -1.08786  -1.08341
 Alpha  occ. eigenvalues --   -1.04783  -1.03515  -0.95978  -0.95626  -0.86989
 Alpha  occ. eigenvalues --   -0.86184  -0.82461  -0.79591  -0.78140  -0.77503
 Alpha  occ. eigenvalues --   -0.72113  -0.71239  -0.70507  -0.65039  -0.65030
 Alpha  occ. eigenvalues --   -0.64722  -0.62202  -0.60861  -0.59369  -0.57580
 Alpha  occ. eigenvalues --   -0.55322  -0.55195  -0.53112  -0.52876  -0.52704
 Alpha  occ. eigenvalues --   -0.52400  -0.49887  -0.48874  -0.48866  -0.47899
 Alpha  occ. eigenvalues --   -0.46586  -0.45684  -0.45569  -0.44851  -0.43752
 Alpha  occ. eigenvalues --   -0.37358  -0.36335
 Alpha virt. eigenvalues --    0.04990   0.11195   0.16466   0.19986   0.23115
 Alpha virt. eigenvalues --    0.23980   0.26231   0.26679   0.27624   0.27934
 Alpha virt. eigenvalues --    0.29134   0.29986   0.31426   0.31884   0.32388

 Mulliken charges:
               1
     1  C   -0.170642
     2  C   -0.220321
     3  C   -0.169990
     4  C    0.157944
     5  C   -0.170696
     6  C   -0.218583
     7  H    0.225741
     8  H    0.224414
     9  H    0.279030
    10  H    0.275528
    11  H    0.223473
    12  N    0.488670
    13  O   -0.459653
    14  O   -0.462316
    15  C   -0.299876
    16  C   -0.299840
    17  C   -0.476238
    18  H    0.146878
    19  H    0.156002
    20  H    0.150042
    21  H    0.154502
    22  H    0.158414
    23  H    0.153300
    24  H    0.159881
    25  C   -0.297502
    26  C   -0.306284
    27  C   -0.478139
    28  H    0.147688
    29  H    0.154518
    30  H    0.149537
    31  H    0.158270
    32  H    0.161404
    33  H    0.158150
    34  H    0.146690
 Sum of Mulliken charges =  -0.00000

 Dipole moment (field-independent basis, Debye):
    X=             -1.8608    Y=              3.5968    Z=              3.1038  Tot=              5.1023
 Quadrupole moment (field-independent basis, Debye-Ang):
   XX=            -84.9905   YY=            -97.4441   ZZ=            -94.9679
   XY=             -5.5195   XZ=             -8.9629   YZ=             -3.5455

 Normal termination of Gaussian 16 at Thu May  6 20:44:51 2021.
