 Gaussian 16, Revision A.03,
 Gaussian 16:  EM64L-G16RevA.03 25-Dec-2016

 -------------
 #p 6-31g* mp2
 -------------

 ------------------------------------------------------
 Input file generated by CHIRIPA (05-May-2021 14:57:24)
 ------------------------------------------------------
 Symbolic Z-matrix:
 Charge =  0 Multiplicity = 1

                         Standard orientation:
 ---------------------------------------------------------------------
 Center     Atomic      Atomic             Coordinates (Angstroms)
 Number     Number       Type             X           Y           Z
 ---------------------------------------------------------------------
      1          6           0       -2.206028    0.597240    2.329361
      2          6           0       -1.479733    0.026789    1.278837
      3          6           0       -2.117596   -0.333406    0.088064
      4          6           0       -3.489134   -0.107987   -0.018528
      5          6           0       -4.240218    0.458448    1.010216
      6          6           0       -3.581527    0.810873    2.191940
      7          1           0       -1.702432    0.874030    3.250867
      8          1           0       -0.411402   -0.140284    1.382755
      9          1           0       -1.579551   -0.776724   -0.741028
     10          1           0       -5.304118    0.612743    0.877072
     11          1           0       -4.148117    1.253716    3.006133
     12          7           0       -4.175435   -0.485196   -1.274356
     13          8           0       -5.384661   -0.276259   -1.343314
     14          8           0       -3.491137   -0.982647   -2.165937
     15          6           0        3.924917   -2.308954    0.532443
     16          6           0        4.927486   -1.333990    0.503814
     17          6           0        4.634796   -0.026058    0.106078
     18          6           0        3.322958    0.273469   -0.258140
     19          6           0        2.302201   -0.675750   -0.240066
     20          6           0        2.617778   -1.977307    0.161067
     21          1           0        4.161175   -3.322511    0.842734
     22          1           0        5.943506   -1.588693    0.791694
     23          1           0        5.391652    0.748282    0.074693
     24          1           0        1.298644   -0.391734   -0.532686
     25          1           0        1.837147   -2.732428    0.182333
     26          7           0        3.000985    1.654744   -0.681004
     27          8           0        1.837435    1.893202   -0.997113
     28          8           0        3.918270    2.472774   -0.688329
 ---------------------------------------------------------------------

 SCF Done:  E(RHF) =  -868.336993489     A.U. after   16 cycles
 E2 =    -0.2600426546D+01 EUMP2 =    -0.87093742003430D+03

 The electronic state is 1-A.
 Alpha  occ. eigenvalues --  -20.61329 -20.61322 -20.60742 -20.60736 -15.86384
 Alpha  occ. eigenvalues --  -15.85797 -11.31882 -11.31192 -11.28522 -11.28384
 Alpha  occ. eigenvalues --  -11.28128 -11.27833 -11.27735 -11.27499 -11.27485
 Alpha  occ. eigenvalues --  -11.27417 -11.26812 -11.26748  -1.60403  -1.59815
 Alpha  occ. eigenvalues --   -1.39953  -1.39369  -1.20041  -1.19359  -1.09393
 Alpha  occ. eigenvalues --   -1.08741  -1.05470  -1.04787  -0.96220  -0.95579
 Alpha  occ. eigenvalues --   -0.86847  -0.86175  -0.83052  -0.82431  -0.78113
 Alpha  occ. eigenvalues --   -0.77468  -0.72592  -0.72018  -0.71733  -0.71137
 Alpha  occ. eigenvalues --   -0.71133  -0.70471  -0.65684  -0.65470  -0.65021
 Alpha  occ. eigenvalues --   -0.64804  -0.62899  -0.62063  -0.55911  -0.55262
 Alpha  occ. eigenvalues --   -0.53783  -0.53551  -0.53072  -0.52871  -0.49364
 Alpha  occ. eigenvalues --   -0.49349  -0.48778  -0.48770  -0.45330  -0.44770
 Alpha  occ. eigenvalues --   -0.37988  -0.37309  -0.37072  -0.36369
 Alpha virt. eigenvalues --    0.04397   0.05079   0.10510   0.11299   0.15889
 Alpha virt. eigenvalues --    0.16545   0.19002   0.21999   0.24745   0.27295
 Alpha virt. eigenvalues --    0.27907   0.29597   0.30584   0.30720   0.31586

 Mulliken charges:
               1
     1  C   -0.170414
     2  C   -0.215769
     3  C   -0.170811
     4  C    0.159369
     5  C   -0.170377
     6  C   -0.218013
     7  H    0.226641
     8  H    0.219712
     9  H    0.269697
    10  H    0.276080
    11  H    0.224041
    12  N    0.488580
    13  O   -0.459801
    14  O   -0.461213
    15  C   -0.170642
    16  C   -0.217578
    17  C   -0.170248
    18  C    0.159468
    19  C   -0.180343
    20  C   -0.219950
    21  H    0.228478
    22  H    0.226275
    23  H    0.277853
    24  H    0.274040
    25  H    0.225117
    26  N    0.487265
    27  O   -0.459793
    28  O   -0.457666
 Sum of Mulliken charges =  -0.00000

 Dipole moment (field-independent basis, Debye):
    X=              3.7186    Y=             -3.4761    Z=              5.9484  Tot=              7.8290
 Quadrupole moment (field-independent basis, Debye-Ang):
   XX=           -104.4972   YY=           -107.9686   ZZ=           -106.2495
   XY=            -21.5199   XZ=            -12.0686   YZ=              2.1199

 Normal termination of Gaussian 16 at Wed May  5 17:53:58 2021.
