 Gaussian 16, Revision A.03,
 Gaussian 16:  EM64L-G16RevA.03 25-Dec-2016

 -------------
 #p 6-31g* mp2
 -------------

 ------------------------------------------------------
 Input file generated by CHIRIPA (05-May-2021 14:57:23)
 ------------------------------------------------------
 Symbolic Z-matrix:
 Charge =  0 Multiplicity = 1

                         Standard orientation:
 ---------------------------------------------------------------------
 Center     Atomic      Atomic             Coordinates (Angstroms)
 Number     Number       Type             X           Y           Z
 ---------------------------------------------------------------------
      1          6           0       -0.974077   -2.202046    0.715707
      2          6           0       -1.916563   -1.692027    1.614662
      3          6           0       -2.806638   -0.689707    1.217586
      4          6           0       -2.725971   -0.218359   -0.091847
      5          6           0       -1.798165   -0.706236   -1.010782
      6          6           0       -0.917985   -1.708393   -0.591841
      7          1           0       -0.286488   -2.980609    1.032657
      8          1           0       -1.962417   -2.073509    2.630740
      9          1           0       -3.546176   -0.276983    1.892983
     10          1           0       -1.776606   -0.305985   -2.017138
     11          1           0       -0.187075   -2.102606   -1.292136
     12          7           0       -3.663016    0.842666   -0.523787
     13          8           0       -3.571559    1.241064   -1.682904
     14          8           0       -4.471186    1.255808    0.304954
     15          6           0        2.101302    2.710265    0.901652
     16          6           0        2.310983    2.510912   -0.466856
     17          6           0        2.572317    1.231471   -0.966141
     18          6           0        2.616995    0.169226   -0.064513
     19          6           0        2.412307    0.335718    1.304308
     20          6           0        2.152544    1.623947    1.781315
     21          1           0        1.898902    3.707579    1.280854
     22          1           0        2.271778    3.352703   -1.152345
     23          1           0        2.738369    1.048787   -2.020878
     24          1           0        2.457601   -0.522992    1.963082
     25          1           0        1.990093    1.775796    2.844610
     26          7           0        2.892826   -1.189912   -0.581292
     27          8           0        2.926943   -2.109228    0.233775
     28          8           0        3.069683   -1.310154   -1.791622
 ---------------------------------------------------------------------

 SCF Done:  E(RHF) =  -868.340166175     A.U. after   16 cycles
 E2 =    -0.2600419870D+01 EUMP2 =    -0.87094058604427D+03

 The electronic state is 1-A.
 Alpha  occ. eigenvalues --  -20.61674 -20.61641 -20.60750 -20.60744 -15.86675
 Alpha  occ. eigenvalues --  -15.85799 -11.31688 -11.31030 -11.28245 -11.28205
 Alpha  occ. eigenvalues --  -11.27870 -11.27627 -11.27564 -11.27179 -11.27160
 Alpha  occ. eigenvalues --  -11.27121 -11.26572 -11.26427  -1.60736  -1.59830
 Alpha  occ. eigenvalues --   -1.40296  -1.39387  -1.19827  -1.19181  -1.09284
 Alpha  occ. eigenvalues --   -1.08575  -1.05181  -1.04565  -0.96179  -0.95434
 Alpha  occ. eigenvalues --   -0.86596  -0.85954  -0.83028  -0.82274  -0.78123
 Alpha  occ. eigenvalues --   -0.77367  -0.72901  -0.72094  -0.71994  -0.71155
 Alpha  occ. eigenvalues --   -0.70931  -0.70204  -0.65484  -0.65180  -0.64815
 Alpha  occ. eigenvalues --   -0.64523  -0.62545  -0.61905  -0.55679  -0.54964
 Alpha  occ. eigenvalues --   -0.53578  -0.53273  -0.52846  -0.52625  -0.49679
 Alpha  occ. eigenvalues --   -0.49627  -0.48782  -0.48761  -0.45777  -0.44823
 Alpha  occ. eigenvalues --   -0.37842  -0.37141  -0.36698  -0.36154
 Alpha virt. eigenvalues --    0.04335   0.05167   0.10874   0.11457   0.15942
 Alpha virt. eigenvalues --    0.16698   0.20978   0.21841   0.26926   0.27455
 Alpha virt. eigenvalues --    0.27893   0.28792   0.30745   0.31218   0.32345

 Mulliken charges:
               1
     1  C   -0.172929
     2  C   -0.221099
     3  C   -0.172153
     4  C    0.157690
     5  C   -0.171012
     6  C   -0.229930
     7  H    0.237528
     8  H    0.221541
     9  H    0.273331
    10  H    0.274849
    11  H    0.236699
    12  N    0.487971
    13  O   -0.461714
    14  O   -0.462345
    15  C   -0.168904
    16  C   -0.217459
    17  C   -0.172132
    18  C    0.158911
    19  C   -0.168602
    20  C   -0.217870
    21  H    0.229241
    22  H    0.227166
    23  H    0.275471
    24  H    0.271553
    25  H    0.224317
    26  N    0.486607
    27  O   -0.466274
    28  O   -0.460455
 Sum of Mulliken charges =  -0.00000

 Dipole moment (field-independent basis, Debye):
    X=              2.4971    Y=              1.1422    Z=              3.3290  Tot=              4.3154
 Quadrupole moment (field-independent basis, Debye-Ang):
   XX=           -129.1741   YY=           -101.4273   ZZ=            -97.0359
   XY=             22.5635   XZ=             -2.0712   YZ=             -1.8014

 Normal termination of Gaussian 16 at Fri May  7 01:51:49 2021.
