 Gaussian 16, Revision A.03,
 Gaussian 16:  EM64L-G16RevA.03 25-Dec-2016

 -------------
 #p 6-31g* mp2
 -------------

 ------------------------------------------------------
 Input file generated by CHIRIPA (05-May-2021 14:57:23)
 ------------------------------------------------------
 Symbolic Z-matrix:
 Charge =  0 Multiplicity = 1

                         Standard orientation:
 ---------------------------------------------------------------------
 Center     Atomic      Atomic             Coordinates (Angstroms)
 Number     Number       Type             X           Y           Z
 ---------------------------------------------------------------------
      1          6           0       -1.918644    2.001761   -0.609760
      2          6           0       -1.479456    0.906251    0.140901
      3          6           0       -2.345445   -0.154585    0.422395
      4          6           0       -3.649860   -0.086782   -0.064629
      5          6           0       -4.117136    0.990950   -0.815255
      6          6           0       -3.233764    2.040546   -1.084605
      7          1           0       -1.239172    2.821479   -0.823714
      8          1           0       -0.458660    0.873433    0.510960
      9          1           0       -2.031648   -1.014828    1.001128
     10          1           0       -5.140437    0.995244   -1.170578
     11          1           0       -3.577590    2.890062   -1.667830
     12          7           0       -4.575845   -1.203892    0.226947
     13          8           0       -5.720207   -1.120163   -0.213579
     14          8           0       -4.139737   -2.142059    0.890490
     15          6           0        2.767788    2.116949    1.077451
     16          6           0        3.761031    2.075267    0.093454
     17          6           0        4.173051    0.854042   -0.448207
     18          6           0        3.567769   -0.311400    0.019415
     19          6           0        2.575650   -0.302598    0.998657
     20          6           0        2.179305    0.929976    1.526122
     21          1           0        2.453809    3.070035    1.492713
     22          1           0        4.219808    2.995498   -0.256895
     23          1           0        4.939758    0.792894   -1.210990
     24          1           0        2.136799   -1.236661    1.327825
     25          1           0        1.407706    0.959320    2.290201
     26          7           0        3.995658   -1.610264   -0.546503
     27          8           0        3.446802   -2.622892   -0.117577
     28          8           0        4.871792   -1.591091   -1.408279
 ---------------------------------------------------------------------

 SCF Done:  E(RHF) =  -868.336681581     A.U. after   16 cycles
 E2 =    -0.2601035972D+01 EUMP2 =    -0.87093771755308D+03

 The electronic state is 1-A.
 Alpha  occ. eigenvalues --  -20.61415 -20.61409 -20.60927 -20.60922 -15.86479
 Alpha  occ. eigenvalues --  -15.85982 -11.32093 -11.31426 -11.28752 -11.28679
 Alpha  occ. eigenvalues --  -11.28524 -11.28013 -11.27989 -11.27817 -11.27777
 Alpha  occ. eigenvalues --  -11.27716 -11.27033 -11.26975  -1.60486  -1.60000
 Alpha  occ. eigenvalues --   -1.40032  -1.39552  -1.20320  -1.19603  -1.09663
 Alpha  occ. eigenvalues --   -1.08988  -1.05770  -1.05019  -0.96444  -0.95812
 Alpha  occ. eigenvalues --   -0.87146  -0.86413  -0.83282  -0.82643  -0.78284
 Alpha  occ. eigenvalues --   -0.77672  -0.72689  -0.72199  -0.71814  -0.71397
 Alpha  occ. eigenvalues --   -0.71324  -0.70733  -0.65962  -0.65819  -0.65258
 Alpha  occ. eigenvalues --   -0.65009  -0.63102  -0.62350  -0.56237  -0.55548
 Alpha  occ. eigenvalues --   -0.54154  -0.53851  -0.53342  -0.52993  -0.49469
 Alpha  occ. eigenvalues --   -0.49430  -0.48964  -0.48951  -0.45382  -0.44940
 Alpha  occ. eigenvalues --   -0.38311  -0.37597  -0.37357  -0.36622
 Alpha virt. eigenvalues --    0.04253   0.04861   0.10149   0.11024   0.15569
 Alpha virt. eigenvalues --    0.16320   0.19873   0.21749   0.25590   0.27170
 Alpha virt. eigenvalues --    0.28123   0.28481   0.29743   0.31396   0.31689

 Mulliken charges:
               1
     1  C   -0.174156
     2  C   -0.225136
     3  C   -0.173489
     4  C    0.159579
     5  C   -0.170876
     6  C   -0.217990
     7  H    0.223168
     8  H    0.227932
     9  H    0.274563
    10  H    0.276498
    11  H    0.223601
    12  N    0.488066
    13  O   -0.459677
    14  O   -0.459501
    15  C   -0.173854
    16  C   -0.218772
    17  C   -0.168599
    18  C    0.160102
    19  C   -0.170919
    20  C   -0.230962
    21  H    0.227450
    22  H    0.226389
    23  H    0.279202
    24  H    0.278928
    25  H    0.225263
    26  N    0.488004
    27  O   -0.457078
    28  O   -0.457734
 Sum of Mulliken charges =  -0.00000

 Dipole moment (field-independent basis, Debye):
    X=              2.0192    Y=              8.4349    Z=              0.8769  Tot=              8.7174
 Quadrupole moment (field-independent basis, Debye-Ang):
   XX=           -133.9958   YY=           -106.9858   ZZ=           -102.6822
   XY=              2.0676   XZ=             10.5177   YZ=             -3.7641

 Normal termination of Gaussian 16 at Thu May  6 21:12:02 2021.
