 Gaussian 16, Revision A.03,
 Gaussian 16:  EM64L-G16RevA.03 25-Dec-2016

 -------------
 #p 6-31g* mp2
 -------------

 ------------------------------------------------------
 Input file generated by CHIRIPA (05-May-2021 14:57:27)
 ------------------------------------------------------
 Symbolic Z-matrix:
 Charge =  0 Multiplicity = 1

                         Standard orientation:
 ---------------------------------------------------------------------
 Center     Atomic      Atomic             Coordinates (Angstroms)
 Number     Number       Type             X           Y           Z
 ---------------------------------------------------------------------
      1          6           0       -3.764301    2.684534   -0.068455
      2          6           0       -2.515558    2.162242   -0.421120
      3          6           0       -2.303482    0.780498   -0.439920
      4          6           0       -3.367070   -0.053635   -0.098900
      5          6           0       -4.622741    0.436292    0.256842
      6          6           0       -4.812060    1.821414    0.268806
      7          1           0       -3.920207    3.759219   -0.056506
      8          1           0       -1.700034    2.830165   -0.683504
      9          1           0       -1.346910    0.349292   -0.709083
     10          1           0       -5.416516   -0.254687    0.513527
     11          1           0       -5.782915    2.224217    0.543095
     12          7           0       -3.154601   -1.518214   -0.115184
     13          8           0       -4.107815   -2.231844    0.189368
     14          8           0       -2.038877   -1.924789   -0.432192
     15          6           0        1.648605   -1.986552    0.331850
     16          6           0        1.993551   -1.196649    1.433480
     17          6           0        2.963727   -0.197076    1.314483
     18          6           0        3.571608   -0.013844    0.073436
     19          6           0        3.249608   -0.784526   -1.042653
     20          6           0        2.276628   -1.778335   -0.900528
     21          1           0        0.893860   -2.760805    0.433273
     22          1           0        1.507470   -1.356112    2.391781
     23          1           0        3.249901    0.428836    2.150997
     24          1           0        3.751539   -0.601964   -1.985074
     25          1           0        2.010744   -2.390275   -1.757780
     26          7           0        4.600174    1.041309   -0.064783
     27          8           0        5.121044    1.182810   -1.169006
     28          8           0        4.866019    1.706856    0.933721
 ---------------------------------------------------------------------

 SCF Done:  E(RHF) =  -868.340352725     A.U. after   16 cycles
 E2 =    -0.2598582909D+01 EUMP2 =    -0.87093893563423D+03

 The electronic state is 1-A.
 Alpha  occ. eigenvalues --  -20.61575 -20.61515 -20.60631 -20.60625 -15.86588
 Alpha  occ. eigenvalues --  -15.85681 -11.31682 -11.30883 -11.28220 -11.28199
 Alpha  occ. eigenvalues --  -11.27900 -11.27467 -11.27444 -11.27174 -11.27144
 Alpha  occ. eigenvalues --  -11.26951 -11.26353 -11.26312  -1.60617  -1.59714
 Alpha  occ. eigenvalues --   -1.40179  -1.39271  -1.19829  -1.19036  -1.09272
 Alpha  occ. eigenvalues --   -1.08407  -1.05186  -1.04418  -0.96153  -0.95269
 Alpha  occ. eigenvalues --   -0.86596  -0.85788  -0.82997  -0.82118  -0.78071
 Alpha  occ. eigenvalues --   -0.77234  -0.72833  -0.71928  -0.71895  -0.71045
 Alpha  occ. eigenvalues --   -0.70926  -0.69982  -0.65481  -0.65177  -0.64652
 Alpha  occ. eigenvalues --   -0.64375  -0.62531  -0.61769  -0.55690  -0.54726
 Alpha  occ. eigenvalues --   -0.53538  -0.53272  -0.52756  -0.52474  -0.49578
 Alpha  occ. eigenvalues --   -0.49541  -0.48664  -0.48637  -0.45644  -0.44714
 Alpha  occ. eigenvalues --   -0.37795  -0.36926  -0.36780  -0.36064
 Alpha virt. eigenvalues --    0.04417   0.05316   0.10873   0.11620   0.15958
 Alpha virt. eigenvalues --    0.16872   0.21057   0.22018   0.26987   0.27727
 Alpha virt. eigenvalues --    0.27875   0.29038   0.30643   0.31669   0.32089

 Mulliken charges:
               1
     1  C   -0.169991
     2  C   -0.219046
     3  C   -0.172326
     4  C    0.156934
     5  C   -0.170917
     6  C   -0.218711
     7  H    0.228155
     8  H    0.227401
     9  H    0.276294
    10  H    0.275787
    11  H    0.224984
    12  N    0.490030
    13  O   -0.457341
    14  O   -0.471238
    15  C   -0.168192
    16  C   -0.223499
    17  C   -0.173509
    18  C    0.155612
    19  C   -0.173809
    20  C   -0.222858
    21  H    0.244644
    22  H    0.223884
    23  H    0.273181
    24  H    0.273802
    25  H    0.227147
    26  N    0.488034
    27  O   -0.461919
    28  O   -0.462535
 Sum of Mulliken charges =  -0.00000

 Dipole moment (field-independent basis, Debye):
    X=             -4.6890    Y=              1.3652    Z=              0.5445  Tot=              4.9139
 Quadrupole moment (field-independent basis, Debye-Ang):
   XX=           -122.3750   YY=           -105.4304   ZZ=           -100.6438
   XY=            -30.8462   XZ=             -0.9667   YZ=              0.2189

 Normal termination of Gaussian 16 at Thu May  6 06:49:11 2021.
