 Gaussian 16, Revision A.03,
 Gaussian 16:  EM64L-G16RevA.03 25-Dec-2016

 -------------
 #p 6-31g* mp2
 -------------

 ------------------------------------------------------
 Input file generated by CHIRIPA (05-May-2021 14:53:17)
 ------------------------------------------------------
 Symbolic Z-matrix:
 Charge =  0 Multiplicity = 1

                         Standard orientation:
 ---------------------------------------------------------------------
 Center     Atomic      Atomic             Coordinates (Angstroms)
 Number     Number       Type             X           Y           Z
 ---------------------------------------------------------------------
      1          6           0        3.232789    0.545983   -0.433470
      2          6           0        3.626077    1.984736   -0.096871
      3          6           0        2.572074    3.003054   -0.532645
      4          1           0        3.065324    0.462076   -1.515994
      5          1           0        2.274118    0.312599    0.050139
      6          1           0        4.584404    2.214884   -0.579838
      7          1           0        3.792813    2.065182    0.984954
      8          1           0        1.615040    2.801440   -0.040670
      9          1           0        2.411129    2.951992   -1.614353
     10          1           0        2.873544    4.024982   -0.282372
     11          6           0        4.276449   -0.483611   -0.004007
     12          6           0        3.883161   -1.922364   -0.340606
     13          6           0        4.937165   -2.940682    0.095169
     14          1           0        5.235120   -0.250227   -0.487615
     15          1           0        4.443915   -0.399704    1.078518
     16          1           0        3.716426   -2.002810   -1.422430
     17          1           0        2.924834   -2.152512    0.142362
     18          1           0        5.098110   -2.889620    1.176876
     19          1           0        5.894199   -2.739068   -0.396806
     20          1           0        4.635695   -3.962610   -0.155104
     21          6           0       -0.990326    1.360668    0.990935
     22          6           0       -1.002485   -0.022101    1.201470
     23          6           0       -2.073836   -0.799420    0.751436
     24          6           0       -3.121136   -0.158263    0.091610
     25          6           0       -3.138070    1.217382   -0.133341
     26          6           0       -2.056278    1.974913    0.325374
     27          1           0       -0.154020    1.956822    1.343906
     28          1           0       -0.176015   -0.501829    1.718049
     29          1           0       -2.108880   -1.871714    0.901021
     30          1           0       -3.976295    1.667172   -0.651498
     31          1           0       -2.049521    3.048601    0.160466
     32          7           0       -4.260853   -0.970703   -0.389417
     33          8           0       -5.171403   -0.381843   -0.968018
     34          8           0       -4.222033   -2.180969   -0.178736
 ---------------------------------------------------------------------

 SCF Done:  E(RHF) =  -669.535350153     A.U. after   15 cycles
 E2 =    -0.2091906857D+01 EUMP2 =    -0.67162725700997D+03

 The electronic state is 1-A.
 Alpha  occ. eigenvalues --  -20.60777 -20.60772 -15.85831 -11.31213 -11.27783
 Alpha  occ. eigenvalues --  -11.27776 -11.27522 -11.26812 -11.26788 -11.22450
 Alpha  occ. eigenvalues --  -11.22190 -11.22166 -11.22048 -11.22032 -11.21542
 Alpha  occ. eigenvalues --   -1.59852  -1.39405  -1.19387  -1.09164  -1.08780
 Alpha  occ. eigenvalues --   -1.04790  -1.04255  -0.96708  -0.95614  -0.87723
 Alpha  occ. eigenvalues --   -0.86187  -0.82446  -0.80317  -0.78954  -0.77485
 Alpha  occ. eigenvalues --   -0.72049  -0.71175  -0.70528  -0.65817  -0.65040
 Alpha  occ. eigenvalues --   -0.64784  -0.62136  -0.61669  -0.60072  -0.58308
 Alpha  occ. eigenvalues --   -0.56114  -0.55227  -0.53388  -0.53145  -0.53080
 Alpha  occ. eigenvalues --   -0.52881  -0.50652  -0.48810  -0.48803  -0.48619
 Alpha  occ. eigenvalues --   -0.47356  -0.46493  -0.46424  -0.44807  -0.44500
 Alpha  occ. eigenvalues --   -0.37340  -0.36386
 Alpha virt. eigenvalues --    0.05012   0.11148   0.16385   0.19319   0.22681
 Alpha virt. eigenvalues --    0.23516   0.25228   0.26073   0.26579   0.28194
 Alpha virt. eigenvalues --    0.29081   0.30551   0.30974   0.31468   0.31884

 Mulliken charges:
               1
     1  C   -0.299191
     2  C   -0.300779
     3  C   -0.477486
     4  H    0.153954
     5  H    0.143296
     6  H    0.156248
     7  H    0.150121
     8  H    0.144891
     9  H    0.160496
    10  H    0.162500
    11  C   -0.299060
    12  C   -0.298889
    13  C   -0.476188
    14  H    0.152213
    15  H    0.148307
    16  H    0.154927
    17  H    0.147713
    18  H    0.154800
    19  H    0.156778
    20  H    0.162578
    21  C   -0.170684
    22  C   -0.219458
    23  C   -0.170984
    24  C    0.158718
    25  C   -0.170767
    26  C   -0.219489
    27  H    0.228702
    28  H    0.223570
    29  H    0.275764
    30  H    0.275833
    31  H    0.224106
    32  N    0.488060
    33  O   -0.460289
    34  O   -0.460313
 Sum of Mulliken charges =  -0.00000

 Dipole moment (field-independent basis, Debye):
    X=              4.1291    Y=              2.8368    Z=              1.5939  Tot=              5.2571
 Quadrupole moment (field-independent basis, Debye-Ang):
   XX=           -119.0163   YY=            -93.0542   ZZ=            -93.6918
   XY=            -11.1850   XZ=             -4.9464   YZ=             -1.6801

 Normal termination of Gaussian 16 at Thu May  6 17:17:46 2021.
