 Gaussian 16, Revision A.03,
 Gaussian 16:  EM64L-G16RevA.03 25-Dec-2016

 -------------
 #p 6-31g* mp2
 -------------

 ------------------------------------------------------
 Input file generated by CHIRIPA (05-May-2021 14:55:21)
 ------------------------------------------------------
 Symbolic Z-matrix:
 Charge =  0 Multiplicity = 1

                         Standard orientation:
 ---------------------------------------------------------------------
 Center     Atomic      Atomic             Coordinates (Angstroms)
 Number     Number       Type             X           Y           Z
 ---------------------------------------------------------------------
      1          6           0       -2.750683    2.451073    0.023159
      2          6           0       -1.959390    1.409497    0.518634
      3          6           0       -2.411949    0.087721    0.467186
      4          6           0       -3.666476   -0.157575   -0.088944
      5          6           0       -4.478166    0.858556   -0.590866
      6          6           0       -4.005334    2.172769   -0.529036
      7          1           0       -2.391251    3.474923    0.067158
      8          1           0       -0.984597    1.622674    0.948028
      9          1           0       -1.819919   -0.737705    0.843471
     10          1           0       -5.445515    0.614880   -1.013094
     11          1           0       -4.622018    2.979671   -0.914593
     12          7           0       -4.156311   -1.552877   -0.148906
     13          8           0       -5.265244   -1.742666   -0.643764
     14          8           0       -3.422036   -2.430304    0.300091
     15          6           0        5.210240   -0.489563   -0.101023
     16          6           0        6.411727    0.393841   -0.438680
     17          6           0        7.645370   -0.414712   -0.841370
     18          1           0        5.483827   -1.173947    0.713663
     19          1           0        4.970331   -1.117996   -0.969879
     20          1           0        6.648434    1.021411    0.430079
     21          1           0        6.135188    1.076333   -1.252527
     22          1           0        7.432646   -1.029051   -1.722243
     23          1           0        7.948809   -1.084286   -0.030077
     24          1           0        8.492409    0.236567   -1.078485
     25          6           0        3.969269    0.304252    0.303422
     26          6           0        2.767781   -0.579153    0.641078
     27          6           0        1.534138    0.229400    1.043769
     28          1           0        4.209177    0.932684    1.172278
     29          1           0        3.695681    0.988636   -0.511264
     30          1           0        3.044320   -1.261644    1.454925
     31          1           0        2.531074   -1.206723   -0.227680
     32          1           0        1.230698    0.898974    0.232476
     33          1           0        1.746862    0.843740    1.924641
     34          1           0        0.687100   -0.421879    1.280884
 ---------------------------------------------------------------------

 SCF Done:  E(RHF) =  -669.534893629     A.U. after   15 cycles
 E2 =    -0.2091743902D+01 EUMP2 =    -0.67162663753074D+03

 The electronic state is 1-A.
 Alpha  occ. eigenvalues --  -20.60704 -20.60699 -15.85754 -11.31092 -11.27657
 Alpha  occ. eigenvalues --  -11.27630 -11.27378 -11.26676 -11.26561 -11.22253
 Alpha  occ. eigenvalues --  -11.22142 -11.21921 -11.21909 -11.21742 -11.21311
 Alpha  occ. eigenvalues --   -1.59779  -1.39333  -1.19254  -1.08919  -1.08655
 Alpha  occ. eigenvalues --   -1.04660  -1.04069  -0.96572  -0.95498  -0.87620
 Alpha  occ. eigenvalues --   -0.86047  -0.82333  -0.80161  -0.78695  -0.77370
 Alpha  occ. eigenvalues --   -0.71974  -0.71101  -0.70378  -0.65545  -0.64907
 Alpha  occ. eigenvalues --   -0.64665  -0.62100  -0.61433  -0.59907  -0.58147
 Alpha  occ. eigenvalues --   -0.55856  -0.55164  -0.53328  -0.53126  -0.52974
 Alpha  occ. eigenvalues --   -0.52544  -0.50476  -0.48737  -0.48729  -0.48438
 Alpha  occ. eigenvalues --   -0.47138  -0.46246  -0.46140  -0.44744  -0.44316
 Alpha  occ. eigenvalues --   -0.37240  -0.36240
 Alpha virt. eigenvalues --    0.05141   0.11366   0.16607   0.20579   0.22471
 Alpha virt. eigenvalues --    0.23733   0.25758   0.26187   0.26388   0.27714
 Alpha virt. eigenvalues --    0.28835   0.29795   0.30807   0.31475   0.32050

 Mulliken charges:
               1
     1  C   -0.172292
     2  C   -0.223970
     3  C   -0.177388
     4  C    0.159705
     5  C   -0.171250
     6  C   -0.218514
     7  H    0.225271
     8  H    0.236143
     9  H    0.277005
    10  H    0.275122
    11  H    0.222863
    12  N    0.488385
    13  O   -0.460749
    14  O   -0.460924
    15  C   -0.299010
    16  C   -0.299956
    17  C   -0.476033
    18  H    0.151183
    19  H    0.151444
    20  H    0.151868
    21  H    0.151867
    22  H    0.156155
    23  H    0.155978
    24  H    0.160941
    25  C   -0.299487
    26  C   -0.299734
    27  C   -0.486190
    28  H    0.149430
    29  H    0.149377
    30  H    0.156116
    31  H    0.157113
    32  H    0.153595
    33  H    0.156584
    34  H    0.159355
 Sum of Mulliken charges =  -0.00000

 Dipole moment (field-independent basis, Debye):
    X=              1.9682    Y=              4.8766    Z=              0.2001  Tot=              5.2627
 Quadrupole moment (field-independent basis, Debye-Ang):
   XX=           -104.3939   YY=            -96.6094   ZZ=            -93.7399
   XY=            -19.7455   XZ=              1.7722   YZ=             -1.4438

 Normal termination of Gaussian 16 at Wed May  5 17:26:03 2021.
