 Gaussian 16, Revision A.03,
 Gaussian 16:  EM64L-G16RevA.03 25-Dec-2016

 -------------
 #p 6-31g* mp2
 -------------

 ------------------------------------------------------
 Input file generated by CHIRIPA (05-May-2021 14:51:09)
 ------------------------------------------------------
 Symbolic Z-matrix:
 Charge =  0 Multiplicity = 1

                         Standard orientation:
 ---------------------------------------------------------------------
 Center     Atomic      Atomic             Coordinates (Angstroms)
 Number     Number       Type             X           Y           Z
 ---------------------------------------------------------------------
      1          6           0       -2.306803   -1.608044    0.137912
      2          6           0       -0.801921   -1.746060   -0.095045
      3          6           0       -0.283587   -3.152541    0.206507
      4          1           0       -2.535487   -1.868982    1.180293
      5          1           0       -2.836459   -2.337543   -0.490332
      6          1           0       -0.275335   -1.015575    0.532421
      7          1           0       -0.576768   -1.484578   -1.136942
      8          1           0       -0.782535   -3.891433   -0.428860
      9          1           0       -0.479389   -3.419766    1.249989
     10          1           0        0.794390   -3.228841    0.033296
     11          6           0       -2.839912   -0.207614   -0.159273
     12          6           0       -4.344793   -0.069598    0.073685
     13          6           0       -4.863127    1.336883   -0.227868
     14          1           0       -2.310255    0.521885    0.468971
     15          1           0       -2.611227    0.053325   -1.201654
     16          1           0       -4.569946   -0.331080    1.115581
     17          1           0       -4.871379   -0.800083   -0.553782
     18          1           0       -4.667325    1.604108   -1.271349
     19          1           0       -4.364179    2.075775    0.407499
     20          1           0       -5.941104    1.413183   -0.054656
     21          6           0        2.108656    1.380176    0.390645
     22          6           0        1.742415    2.636550   -0.400162
     23          6           0        0.812227    3.571647    0.373233
     24          1           0        1.188865    0.843597    0.660854
     25          1           0        2.586766    1.675996    1.334731
     26          1           0        1.266389    2.338418   -1.343100
     27          1           0        2.663196    3.170099   -0.668684
     28          1           0        1.282647    3.897581    1.306546
     29          1           0       -0.122096    3.061174    0.628297
     30          1           0        0.563231    4.463273   -0.210604
     31          6           0        3.038058    0.435482   -0.369285
     32          6           0        3.404300   -0.820892    0.421523
     33          6           0        4.334487   -1.755989   -0.351872
     34          1           0        2.559949    0.139662   -1.313371
     35          1           0        3.957849    0.972061   -0.639493
     36          1           0        2.483518   -1.354442    0.690045
     37          1           0        3.880325   -0.522760    1.364461
     38          1           0        5.268810   -1.245516   -0.606937
     39          1           0        3.864067   -2.081922   -1.285185
     40          1           0        4.583483   -2.647615    0.231965
 ---------------------------------------------------------------------

 SCF Done:  E(RHF) =  -470.732997406     A.U. after   11 cycles
 E2 =    -0.1584300158D+01 EUMP2 =    -0.47231729756450D+03

 The electronic state is 1-A.
 Alpha  occ. eigenvalues --  -11.21685 -11.21651 -11.21567 -11.21558 -11.21483
 Alpha  occ. eigenvalues --  -11.21423 -11.21360 -11.21298 -11.21140 -11.21102
 Alpha  occ. eigenvalues --  -11.21065 -11.21057  -1.08516  -1.08387  -1.03605
 Alpha  occ. eigenvalues --   -1.03499  -0.96044  -0.95957  -0.87062  -0.86969
 Alpha  occ. eigenvalues --   -0.79677  -0.79564  -0.78388  -0.78154  -0.65245
 Alpha  occ. eigenvalues --   -0.64950  -0.61013  -0.60926  -0.59429  -0.59287
 Alpha  occ. eigenvalues --   -0.57647  -0.57567  -0.55337  -0.55252  -0.52741
 Alpha  occ. eigenvalues --   -0.52649  -0.52494  -0.52358  -0.50023  -0.49865
 Alpha  occ. eigenvalues --   -0.48024  -0.47858  -0.46821  -0.46601  -0.46130
 Alpha  occ. eigenvalues --   -0.45835  -0.45704  -0.45189  -0.43850  -0.43752
 Alpha virt. eigenvalues --    0.20039   0.21933   0.23570   0.24590   0.25548
 Alpha virt. eigenvalues --    0.26349   0.27052   0.27611   0.27797   0.29628
 Alpha virt. eigenvalues --    0.31117   0.31339   0.31688   0.31875   0.32347

 Mulliken charges:
               1
     1  C   -0.297667
     2  C   -0.308243
     3  C   -0.478751
     4  H    0.149945
     5  H    0.149984
     6  H    0.159439
     7  H    0.151673
     8  H    0.155741
     9  H    0.155513
    10  H    0.163329
    11  C   -0.299408
    12  C   -0.299709
    13  C   -0.475802
    14  H    0.149436
    15  H    0.149757
    16  H    0.152179
    17  H    0.152212
    18  H    0.155285
    19  H    0.155409
    20  H    0.160482
    21  C   -0.305201
    22  C   -0.298998
    23  C   -0.476422
    24  H    0.156068
    25  H    0.149020
    26  H    0.152216
    27  H    0.151750
    28  H    0.154950
    29  H    0.155299
    30  H    0.160360
    31  C   -0.297483
    32  C   -0.306683
    33  C   -0.475933
    34  H    0.149824
    35  H    0.149492
    36  H    0.158727
    37  H    0.151705
    38  H    0.155383
    39  H    0.154978
    40  H    0.160144
 Sum of Mulliken charges =  -0.00000

 Dipole moment (field-independent basis, Debye):
    X=             -0.0368    Y=             -0.0225    Z=             -0.0009  Tot=              0.0431
 Quadrupole moment (field-independent basis, Debye-Ang):
   XX=            -84.8297   YY=            -86.0217   ZZ=            -83.8912
   XY=              1.4755   XZ=              0.6817   YZ=              0.2668

 Normal termination of Gaussian 16 at Wed May  5 19:43:20 2021.
