 Gaussian 16, Revision A.03,
 Gaussian 16:  EM64L-G16RevA.03 25-Dec-2016

 -------------
 #p 6-31g* mp2
 -------------

 ------------------------------------------------------
 Input file generated by CHIRIPA (05-May-2021 14:51:09)
 ------------------------------------------------------
 Symbolic Z-matrix:
 Charge =  0 Multiplicity = 1

                         Standard orientation:
 ---------------------------------------------------------------------
 Center     Atomic      Atomic             Coordinates (Angstroms)
 Number     Number       Type             X           Y           Z
 ---------------------------------------------------------------------
      1          6           0        3.847825   -0.010055   -0.028408
      2          6           0        5.174003   -0.703949   -0.341059
      3          6           0        6.280038    0.279826   -0.724029
      4          1           0        3.532806    0.575836   -0.902731
      5          1           0        4.001261    0.707239    0.789725
      6          1           0        5.017807   -1.420719   -1.157429
      7          1           0        5.485805   -1.288410    0.534042
      8          1           0        6.464805    0.987847    0.090322
      9          1           0        5.994149    0.854786   -1.610759
     10          1           0        7.219226   -0.237527   -0.943417
     11          6           0        2.732308   -0.980354    0.356131
     12          6           0        1.406131   -0.286460    0.668782
     13          6           0        0.300096   -1.270235    1.051752
     14          1           0        2.578873   -1.697648   -0.462002
     15          1           0        3.047327   -1.566245    1.230454
     16          1           0        1.094329    0.298001   -0.206319
     17          1           0        1.562326    0.430310    1.485152
     18          1           0        0.585985   -1.845195    1.938482
     19          1           0        0.115328   -1.978256    0.237401
     20          1           0       -0.639092   -0.752881    1.271140
     21          6           0       -3.016023    1.085435    0.236088
     22          6           0       -1.887366    1.829941   -0.477937
     23          6           0       -1.349547    3.008116    0.334742
     24          1           0       -3.832707    1.788485    0.449846
     25          1           0       -2.651046    0.725468    1.207999
     26          1           0       -2.253954    2.187200   -1.448810
     27          1           0       -1.073354    1.124995   -0.690191
     28          1           0       -0.957743    2.664962    1.297725
     29          1           0       -2.145051    3.733203    0.534795
     30          1           0       -0.543541    3.526116   -0.194306
     31          6           0       -3.564111   -0.095026   -0.563811
     32          6           0       -4.692767   -0.839532    0.150214
     33          6           0       -5.230587   -2.017707   -0.662465
     34          1           0       -3.929087    0.264940   -1.535723
     35          1           0       -2.747427   -0.798076   -0.777569
     36          1           0       -5.506779   -0.134586    0.362468
     37          1           0       -4.326179   -1.196791    1.121087
     38          1           0       -4.435082   -2.742794   -0.862518
     39          1           0       -5.622389   -1.674553   -1.625448
     40          1           0       -6.036591   -2.535707   -0.133416
 ---------------------------------------------------------------------

 SCF Done:  E(RHF) =  -470.732624507     A.U. after   11 cycles
 E2 =    -0.1584343577D+01 EUMP2 =    -0.47231696808309D+03

 The electronic state is 1-A.
 Alpha  occ. eigenvalues --  -11.21654 -11.21622 -11.21572 -11.21535 -11.21441
 Alpha  occ. eigenvalues --  -11.21380 -11.21379 -11.21316 -11.21145 -11.21086
 Alpha  occ. eigenvalues --  -11.21045 -11.21039  -1.08492  -1.08389  -1.03612
 Alpha  occ. eigenvalues --   -1.03468  -0.96033  -0.95950  -0.87055  -0.86958
 Alpha  occ. eigenvalues --   -0.79689  -0.79526  -0.78310  -0.78196  -0.65244
 Alpha  occ. eigenvalues --   -0.64992  -0.61130  -0.60837  -0.59354  -0.59279
 Alpha  occ. eigenvalues --   -0.57631  -0.57526  -0.55323  -0.55258  -0.52726
 Alpha  occ. eigenvalues --   -0.52634  -0.52451  -0.52367  -0.50006  -0.49856
 Alpha  occ. eigenvalues --   -0.48013  -0.47860  -0.46895  -0.46414  -0.45921
 Alpha  occ. eigenvalues --   -0.45765  -0.45735  -0.45476  -0.43806  -0.43752
 Alpha virt. eigenvalues --    0.19999   0.23046   0.23719   0.24967   0.25787
 Alpha virt. eigenvalues --    0.26336   0.26844   0.27288   0.28324   0.29600
 Alpha virt. eigenvalues --    0.30582   0.30957   0.31668   0.31860   0.32318

 Mulliken charges:
               1
     1  C   -0.298399
     2  C   -0.299682
     3  C   -0.475741
     4  H    0.149790
     5  H    0.149733
     6  H    0.151959
     7  H    0.151985
     8  H    0.155257
     9  H    0.155236
    10  H    0.160327
    11  C   -0.297977
    12  C   -0.304033
    13  C   -0.483077
    14  H    0.149528
    15  H    0.149743
    16  H    0.156075
    17  H    0.152480
    18  H    0.155851
    19  H    0.155079
    20  H    0.166741
    21  C   -0.300532
    22  C   -0.307124
    23  C   -0.475504
    24  H    0.150328
    25  H    0.149899
    26  H    0.151738
    27  H    0.159675
    28  H    0.155592
    29  H    0.154951
    30  H    0.160036
    31  C   -0.300325
    32  C   -0.299545
    33  C   -0.475707
    34  H    0.149415
    35  H    0.151942
    36  H    0.151800
    37  H    0.151979
    38  H    0.155335
    39  H    0.154989
    40  H    0.160183
 Sum of Mulliken charges =  -0.00000

 Dipole moment (field-independent basis, Debye):
    X=              0.0317    Y=             -0.0056    Z=             -0.0001  Tot=              0.0322
 Quadrupole moment (field-independent basis, Debye-Ang):
   XX=            -85.3584   YY=            -85.5724   ZZ=            -83.9124
   XY=             -1.3244   XZ=              0.6109   YZ=             -0.4341

 Normal termination of Gaussian 16 at Thu May  6 03:44:29 2021.
