 Gaussian 16, Revision A.03,
 Gaussian 16:  EM64L-G16RevA.03 25-Dec-2016

 -------------
 #p 6-31g* mp2
 -------------

 ------------------------------------------------------
 Input file generated by CHIRIPA (05-May-2021 14:55:21)
 ------------------------------------------------------
 Symbolic Z-matrix:
 Charge =  0 Multiplicity = 1

                         Standard orientation:
 ---------------------------------------------------------------------
 Center     Atomic      Atomic             Coordinates (Angstroms)
 Number     Number       Type             X           Y           Z
 ---------------------------------------------------------------------
      1          6           0        0.439053   -0.844030    1.008150
      2          6           0        0.635883   -0.782289   -0.375312
      3          6           0        1.903075   -0.512901   -0.900862
      4          6           0        2.955777   -0.309401   -0.009965
      5          6           0        2.791502   -0.364424    1.373247
      6          6           0        1.515592   -0.635268    1.876483
      7          1           0       -0.548718   -1.053863    1.407743
      8          1           0       -0.198333   -0.944000   -1.052053
      9          1           0        2.083542   -0.459376   -1.967625
     10          1           0        3.642465   -0.198842    2.022756
     11          1           0        1.365675   -0.682617    2.951345
     12          7           0        4.301911   -0.023441   -0.554530
     13          8           0        5.212985    0.152146    0.251541
     14          8           0        4.420448    0.019694   -1.777120
     15          6           0       -2.986731    0.907109    0.240528
     16          6           0       -2.893675    2.301121   -0.380805
     17          6           0       -1.863783    3.191170    0.315563
     18          1           0       -3.242772    1.003221    1.304553
     19          1           0       -1.998749    0.427999    0.198819
     20          1           0       -3.881854    2.776922   -0.339187
     21          1           0       -2.638015    2.201673   -1.443521
     22          1           0       -0.867032    2.741477    0.262032
     23          1           0       -2.117940    3.319995    1.372640
     24          1           0       -1.813693    4.182924   -0.144626
     25          6           0       -4.012099    0.005608   -0.444779
     26          6           0       -4.105155   -1.388404    0.176555
     27          6           0       -5.135048   -2.278453   -0.519814
     28          1           0       -5.000082    0.484719   -0.403070
     29          1           0       -3.756058   -0.090503   -1.508804
     30          1           0       -4.360816   -1.288955    1.239269
     31          1           0       -3.116976   -1.864204    0.134937
     32          1           0       -4.880891   -2.407276   -1.576890
     33          1           0       -6.131798   -1.828759   -0.466282
     34          1           0       -5.185137   -3.270207   -0.059624
 ---------------------------------------------------------------------

 SCF Done:  E(RHF) =  -669.534748707     A.U. after   15 cycles
 E2 =    -0.2093255152D+01 EUMP2 =    -0.67162800385899D+03

 The electronic state is 1-A.
 Alpha  occ. eigenvalues --  -20.60782 -20.60776 -15.85837 -11.31215 -11.27799
 Alpha  occ. eigenvalues --  -11.27788 -11.27496 -11.26809 -11.26780 -11.22687
 Alpha  occ. eigenvalues --  -11.22354 -11.22308 -11.22266 -11.21907 -11.21576
 Alpha  occ. eigenvalues --   -1.59857  -1.39410  -1.19397  -1.09359  -1.08781
 Alpha  occ. eigenvalues --   -1.04803  -1.04341  -0.96772  -0.95618  -0.87784
 Alpha  occ. eigenvalues --   -0.86204  -0.82450  -0.80428  -0.79206  -0.77493
 Alpha  occ. eigenvalues --   -0.72055  -0.71181  -0.70512  -0.66067  -0.65037
 Alpha  occ. eigenvalues --   -0.64755  -0.62149  -0.61739  -0.60146  -0.58392
 Alpha  occ. eigenvalues --   -0.56060  -0.55296  -0.53434  -0.53239  -0.53086
 Alpha  occ. eigenvalues --   -0.52888  -0.50714  -0.48815  -0.48809  -0.48728
 Alpha  occ. eigenvalues --   -0.47480  -0.46678  -0.46634  -0.44813  -0.44618
 Alpha  occ. eigenvalues --   -0.37317  -0.36399
 Alpha virt. eigenvalues --    0.05026   0.11109   0.16492   0.19003   0.22669
 Alpha virt. eigenvalues --    0.23602   0.25152   0.25617   0.27047   0.27876
 Alpha virt. eigenvalues --    0.30087   0.30621   0.30917   0.31232   0.31878

 Mulliken charges:
               1
     1  C   -0.171535
     2  C   -0.220122
     3  C   -0.171649
     4  C    0.158099
     5  C   -0.170574
     6  C   -0.220126
     7  H    0.231092
     8  H    0.224121
     9  H    0.275772
    10  H    0.275835
    11  H    0.224011
    12  N    0.488140
    13  O   -0.460263
    14  O   -0.460394
    15  C   -0.307207
    16  C   -0.298929
    17  C   -0.478233
    18  H    0.149659
    19  H    0.147441
    20  H    0.154466
    21  H    0.152165
    22  H    0.158859
    23  H    0.154559
    24  H    0.163493
    25  C   -0.298550
    26  C   -0.301416
    27  C   -0.475790
    28  H    0.154312
    29  H    0.149263
    30  H    0.153493
    31  H    0.142385
    32  H    0.156528
    33  H    0.158731
    34  H    0.162365
 Sum of Mulliken charges =  -0.00000

 Dipole moment (field-independent basis, Debye):
    X=             -4.8578    Y=             -0.9457    Z=              1.9203  Tot=              5.3085
 Quadrupole moment (field-independent basis, Debye-Ang):
   XX=           -121.9530   YY=            -95.1537   ZZ=            -90.2272
   XY=             -2.1744   XZ=              7.0844   YZ=             -0.3750

 Normal termination of Gaussian 16 at Thu May  6 20:44:35 2021.
