 Gaussian 16, Revision A.03,
 Gaussian 16:  EM64L-G16RevA.03 25-Dec-2016

 -------------
 #p 6-31g* mp2
 -------------

 ------------------------------------------------------
 Input file generated by CHIRIPA (05-May-2021 14:57:26)
 ------------------------------------------------------
 Symbolic Z-matrix:
 Charge =  0 Multiplicity = 1

                         Standard orientation:
 ---------------------------------------------------------------------
 Center     Atomic      Atomic             Coordinates (Angstroms)
 Number     Number       Type             X           Y           Z
 ---------------------------------------------------------------------
      1          6           0        3.775750    2.169655   -0.496491
      2          6           0        3.988231    1.077077   -1.343631
      3          6           0        3.519983   -0.193263   -0.995023
      4          6           0        2.840157   -0.335675    0.213631
      5          6           0        2.612743    0.733381    1.078901
      6          6           0        3.089893    1.994629    0.709944
      7          1           0        4.142955    3.152955   -0.775202
      8          1           0        4.520552    1.210048   -2.281180
      9          1           0        3.670613   -1.056312   -1.632106
     10          1           0        2.078678    0.569670    2.007013
     11          1           0        2.923424    2.841335    1.369809
     12          7           0        2.339731   -1.675714    0.593458
     13          8           0        1.743692   -1.774874    1.663757
     14          8           0        2.553012   -2.601504   -0.186326
     15          6           0       -2.686177   -2.372119   -0.504789
     16          6           0       -1.568317   -1.539272   -0.620011
     17          6           0       -1.687607   -0.159880   -0.426114
     18          6           0       -2.945492    0.355248   -0.116831
     19          6           0       -4.077984   -0.448459    0.004853
     20          6           0       -3.935241   -1.825019   -0.193273
     21          1           0       -2.584400   -3.442564   -0.657055
     22          1           0       -0.597038   -1.961386   -0.861838
     23          1           0       -0.838734    0.507894   -0.509241
     24          1           0       -5.033133    0.001525    0.246977
     25          1           0       -4.805119   -2.469407   -0.103153
     26          7           0       -3.084194    1.814050    0.090678
     27          8           0       -4.203429    2.243227    0.362262
     28          8           0       -2.071048    2.500659   -0.022189
 ---------------------------------------------------------------------

 SCF Done:  E(RHF) =  -868.339880219     A.U. after   16 cycles
 E2 =    -0.2599434113D+01 EUMP2 =    -0.87093931433172D+03

 The electronic state is 1-A.
 Alpha  occ. eigenvalues --  -20.61520 -20.61485 -20.60580 -20.60559 -15.86522
 Alpha  occ. eigenvalues --  -15.85617 -11.31630 -11.30763 -11.28161 -11.28106
 Alpha  occ. eigenvalues --  -11.27775 -11.27304 -11.27281 -11.27086 -11.27011
 Alpha  occ. eigenvalues --  -11.26925 -11.26276 -11.26161  -1.60592  -1.59650
 Alpha  occ. eigenvalues --   -1.40140  -1.39211  -1.19757  -1.18893  -1.09194
 Alpha  occ. eigenvalues --   -1.08316  -1.05092  -1.04264  -0.96071  -0.95198
 Alpha  occ. eigenvalues --   -0.86501  -0.85662  -0.82896  -0.82046  -0.77991
 Alpha  occ. eigenvalues --   -0.77135  -0.72729  -0.71938  -0.71845  -0.70967
 Alpha  occ. eigenvalues --   -0.70821  -0.69986  -0.65387  -0.65064  -0.64543
 Alpha  occ. eigenvalues --   -0.64241  -0.62433  -0.61618  -0.55576  -0.54735
 Alpha  occ. eigenvalues --   -0.53466  -0.53159  -0.52596  -0.52335  -0.49515
 Alpha  occ. eigenvalues --   -0.49475  -0.48610  -0.48575  -0.45588  -0.44668
 Alpha  occ. eigenvalues --   -0.37712  -0.36833  -0.36681  -0.35847
 Alpha virt. eigenvalues --    0.04481   0.05388   0.10948   0.11818   0.16046
 Alpha virt. eigenvalues --    0.16955   0.21199   0.21871   0.27155   0.27333
 Alpha virt. eigenvalues --    0.28160   0.28771   0.30805   0.31491   0.32236

 Mulliken charges:
               1
     1  C   -0.169030
     2  C   -0.218233
     3  C   -0.173194
     4  C    0.151711
     5  C   -0.172603
     6  C   -0.215537
     7  H    0.229412
     8  H    0.225114
     9  H    0.274472
    10  H    0.278460
    11  H    0.229819
    12  N    0.484770
    13  O   -0.456386
    14  O   -0.465087
    15  C   -0.170390
    16  C   -0.216867
    17  C   -0.173097
    18  C    0.158008
    19  C   -0.172067
    20  C   -0.218537
    21  H    0.228909
    22  H    0.232606
    23  H    0.270461
    24  H    0.273476
    25  H    0.222265
    26  N    0.488352
    27  O   -0.461251
    28  O   -0.465557
 Sum of Mulliken charges =  -0.00000

 Dipole moment (field-independent basis, Debye):
    X=              2.4779    Y=             -0.3794    Z=             -1.9970  Tot=              3.2050
 Quadrupole moment (field-independent basis, Debye-Ang):
   XX=            -92.7097   YY=           -111.5521   ZZ=           -102.3758
   XY=             29.3952   XZ=             -4.1201   YZ=              3.5821

 Normal termination of Gaussian 16 at Thu May  6 11:30:22 2021.
