 Gaussian 16, Revision A.03,
 Gaussian 16:  EM64L-G16RevA.03 25-Dec-2016

 -------------
 #p 6-31g* mp2
 -------------

 ------------------------------------------------------
 Input file generated by CHIRIPA (05-May-2021 14:51:08)
 ------------------------------------------------------
 Symbolic Z-matrix:
 Charge =  0 Multiplicity = 1

                         Standard orientation:
 ---------------------------------------------------------------------
 Center     Atomic      Atomic             Coordinates (Angstroms)
 Number     Number       Type             X           Y           Z
 ---------------------------------------------------------------------
      1          6           0        3.224815    0.430226   -0.838824
      2          6           0        1.881489    1.016796   -0.403630
      3          6           0        1.244075    1.896366   -1.479667
      4          1           0        3.909155    1.249889   -1.097235
      5          1           0        3.080532   -0.157414   -1.756025
      6          1           0        2.028016    1.602015    0.513248
      7          1           0        1.200330    0.195647   -0.146042
      8          1           0        1.069186    1.320483   -2.394201
      9          1           0        1.901576    2.734842   -1.731166
     10          1           0        0.284723    2.305288   -1.147572
     11          6           0        3.874466   -0.451410    0.226258
     12          6           0        5.217792   -1.037980   -0.208937
     13          6           0        5.855206   -1.917550    0.867100
     14          1           0        4.018749    0.136230    1.143459
     15          1           0        3.190126   -1.271073    0.484669
     16          1           0        5.898951   -0.216831   -0.466525
     17          1           0        5.071265   -1.623199   -1.125814
     18          1           0        5.197705   -2.756026    1.118599
     19          1           0        6.030095   -1.341667    1.781635
     20          1           0        6.814558   -2.326473    0.535006
     21          6           0       -3.127765    0.318054    0.863886
     22          6           0       -2.140961    1.374356    0.365463
     23          6           0       -1.304190    1.980226    1.492641
     24          1           0       -3.791889    0.770394    1.613067
     25          1           0       -2.572642   -0.478425    1.378527
     26          1           0       -2.697653    2.167915   -0.149294
     27          1           0       -1.479234    0.919497   -0.382759
     28          1           0       -0.723720    1.203917    2.001560
     29          1           0       -1.949063    2.459428    2.236352
     30          1           0       -0.605573    2.732859    1.114043
     31          6           0       -3.971515   -0.296869   -0.251319
     32          6           0       -4.958320   -1.353173    0.247104
     33          6           0       -5.795090   -1.959042   -0.880074
     34          1           0       -4.526639    0.499609   -0.765961
     35          1           0       -3.307393   -0.749210   -1.000502
     36          1           0       -5.620047   -0.898313    0.995326
     37          1           0       -4.401627   -2.146730    0.761860
     38          1           0       -5.150218   -2.438244   -1.623787
     39          1           0       -6.375561   -1.182733   -1.388994
     40          1           0       -6.493708   -2.711676   -0.501477
 ---------------------------------------------------------------------

 SCF Done:  E(RHF) =  -470.732149074     A.U. after   11 cycles
 E2 =    -0.1584003096D+01 EUMP2 =    -0.47231615217036D+03

 The electronic state is 1-A.
 Alpha  occ. eigenvalues --  -11.21604 -11.21604 -11.21578 -11.21563 -11.21403
 Alpha  occ. eigenvalues --  -11.21403 -11.21343 -11.21343 -11.21075 -11.21074
 Alpha  occ. eigenvalues --  -11.21028 -11.20990  -1.08464  -1.08393  -1.03630
 Alpha  occ. eigenvalues --   -1.03428  -0.96085  -0.95868  -0.86999  -0.86983
 Alpha  occ. eigenvalues --   -0.79661  -0.79522  -0.78249  -0.78238  -0.65135
 Alpha  occ. eigenvalues --   -0.65003  -0.61109  -0.60847  -0.59805  -0.59021
 Alpha  occ. eigenvalues --   -0.57907  -0.57139  -0.55290  -0.55194  -0.52812
 Alpha  occ. eigenvalues --   -0.52571  -0.52490  -0.52175  -0.49932  -0.49901
 Alpha  occ. eigenvalues --   -0.47912  -0.47904  -0.46674  -0.46550  -0.45810
 Alpha  occ. eigenvalues --   -0.45762  -0.45731  -0.45637  -0.43796  -0.43739
 Alpha virt. eigenvalues --    0.21115   0.23131   0.23378   0.25358   0.26001
 Alpha virt. eigenvalues --    0.26679   0.26986   0.27296   0.27852   0.29252
 Alpha virt. eigenvalues --    0.29889   0.31183   0.31461   0.31598   0.32226

 Mulliken charges:
               1
     1  C   -0.298378
     2  C   -0.300459
     3  C   -0.483460
     4  H    0.149751
     5  H    0.149259
     6  H    0.153320
     7  H    0.152105
     8  H    0.154325
     9  H    0.154865
    10  H    0.168941
    11  C   -0.298212
    12  C   -0.299623
    13  C   -0.475699
    14  H    0.149632
    15  H    0.149192
    16  H    0.152014
    17  H    0.151878
    18  H    0.155068
    19  H    0.155229
    20  H    0.160271
    21  C   -0.297899
    22  C   -0.306331
    23  C   -0.477918
    24  H    0.149617
    25  H    0.149252
    26  H    0.151473
    27  H    0.158290
    28  H    0.156629
    29  H    0.154935
    30  H    0.162086
    31  C   -0.298286
    32  C   -0.299643
    33  C   -0.475690
    34  H    0.149610
    35  H    0.149447
    36  H    0.152009
    37  H    0.151820
    38  H    0.155095
    39  H    0.155233
    40  H    0.160253
 Sum of Mulliken charges =  -0.00000

 Dipole moment (field-independent basis, Debye):
    X=             -0.0033    Y=              0.0101    Z=              0.0084  Tot=              0.0136
 Quadrupole moment (field-independent basis, Debye-Ang):
   XX=            -84.9599   YY=            -84.3105   ZZ=            -85.6371
   XY=             -0.0840   XZ=             -0.7137   YZ=              0.5064

 Normal termination of Gaussian 16 at Thu May  6 05:17:36 2021.
