 Gaussian 16, Revision A.03,
 Gaussian 16:  EM64L-G16RevA.03 25-Dec-2016

 -------------
 #p 6-31g* mp2
 -------------

 ------------------------------------------------------
 Input file generated by CHIRIPA (05-May-2021 14:51:11)
 ------------------------------------------------------
 Symbolic Z-matrix:
 Charge =  0 Multiplicity = 1

                         Standard orientation:
 ---------------------------------------------------------------------
 Center     Atomic      Atomic             Coordinates (Angstroms)
 Number     Number       Type             X           Y           Z
 ---------------------------------------------------------------------
      1          6           0        2.076318   -0.738954    0.198117
      2          6           0        1.654208   -1.834951    1.177198
      3          6           0        0.135734   -1.971572    1.292816
      4          1           0        1.644110    0.218225    0.520529
      5          1           0        1.650461   -0.956791   -0.791118
      6          1           0        2.081878   -1.615844    2.163963
      7          1           0        2.087629   -2.789598    0.852525
      8          1           0       -0.304420   -2.213975    0.320136
      9          1           0       -0.310203   -1.033553    1.639026
     10          1           0       -0.143833   -2.760657    1.997831
     11          6           0        3.591452   -0.590260    0.071679
     12          6           0        4.013563    0.505737   -0.907402
     13          6           0        5.532036    0.642358   -1.023020
     14          1           0        4.017310   -0.372423    1.060914
     15          1           0        4.023661   -1.547439   -0.250732
     16          1           0        3.580142    1.460384   -0.582729
     17          1           0        3.585893    0.286630   -1.894167
     18          1           0        5.977974   -0.295661   -1.369230
     19          1           0        5.972191    0.884761   -0.050340
     20          1           0        5.811604    1.431443   -1.728035
     21          6           0       -2.201099    0.985490    0.148029
     22          6           0       -2.292914    2.507335    0.264396
     23          6           0       -1.019326    3.134721    0.831983
     24          1           0       -1.991432    0.560323    1.139099
     25          1           0       -1.346337    0.724515   -0.491244
     26          1           0       -3.148079    2.765396    0.902136
     27          1           0       -2.502576    2.928914   -0.727031
     28          1           0       -0.159780    2.906280    0.193551
     29          1           0       -0.808951    2.741833    1.831974
     30          1           0       -1.106767    4.223137    0.906580
     31          6           0       -3.466672    0.343725   -0.417825
     32          6           0       -3.374857   -1.178121   -0.534192
     33          6           0       -4.648445   -1.805507   -1.101779
     34          1           0       -4.321433    0.604699    0.221448
     35          1           0       -3.676338    0.768891   -1.408894
     36          1           0       -3.165195   -1.599700    0.457236
     37          1           0       -2.519692   -1.436182   -1.171932
     38          1           0       -4.858819   -1.412619   -2.101770
     39          1           0       -5.507991   -1.577066   -0.463346
     40          1           0       -4.561004   -2.893923   -1.176376
 ---------------------------------------------------------------------

 SCF Done:  E(RHF) =  -470.732586979     A.U. after   11 cycles
 E2 =    -0.1584212106D+01 EUMP2 =    -0.47231679908528D+03

 The electronic state is 1-A.
 Alpha  occ. eigenvalues --  -11.21595 -11.21590 -11.21541 -11.21534 -11.21377
 Alpha  occ. eigenvalues --  -11.21362 -11.21316 -11.21296 -11.21107 -11.21063
 Alpha  occ. eigenvalues --  -11.21035 -11.20906  -1.08433  -1.08368  -1.03513
 Alpha  occ. eigenvalues --   -1.03483  -0.95985  -0.95914  -0.86984  -0.86953
 Alpha  occ. eigenvalues --   -0.79604  -0.79566  -0.78375  -0.78022  -0.65074
 Alpha  occ. eigenvalues --   -0.64995  -0.60911  -0.60890  -0.59347  -0.59292
 Alpha  occ. eigenvalues --   -0.57681  -0.57458  -0.55307  -0.55173  -0.52713
 Alpha  occ. eigenvalues --   -0.52625  -0.52428  -0.52298  -0.49952  -0.49844
 Alpha  occ. eigenvalues --   -0.47973  -0.47914  -0.46615  -0.46587  -0.46095
 Alpha  occ. eigenvalues --   -0.45728  -0.45558  -0.45203  -0.43757  -0.43742
 Alpha virt. eigenvalues --    0.21204   0.22939   0.23611   0.24082   0.25024
 Alpha virt. eigenvalues --    0.26023   0.26466   0.27714   0.28678   0.30118
 Alpha virt. eigenvalues --    0.30419   0.30697   0.31688   0.31997   0.32253

 Mulliken charges:
               1
     1  C   -0.300378
     2  C   -0.300094
     3  C   -0.480896
     4  H    0.152213
     5  H    0.148447
     6  H    0.151303
     7  H    0.151333
     8  H    0.158326
     9  H    0.160336
    10  H    0.158331
    11  C   -0.298158
    12  C   -0.299687
    13  C   -0.475656
    14  H    0.149639
    15  H    0.149599
    16  H    0.151863
    17  H    0.151533
    18  H    0.155158
    19  H    0.155291
    20  H    0.160170
    21  C   -0.302729
    22  C   -0.299126
    23  C   -0.477031
    24  H    0.152728
    25  H    0.152562
    26  H    0.151728
    27  H    0.151892
    28  H    0.156077
    29  H    0.154230
    30  H    0.160572
    31  C   -0.298205
    32  C   -0.301543
    33  C   -0.475704
    34  H    0.149124
    35  H    0.149215
    36  H    0.155735
    37  H    0.151884
    38  H    0.154805
    39  H    0.155017
    40  H    0.160096
 Sum of Mulliken charges =  -0.00000

 Dipole moment (field-independent basis, Debye):
    X=             -0.0273    Y=              0.0075    Z=              0.0035  Tot=              0.0286
 Quadrupole moment (field-independent basis, Debye-Ang):
   XX=            -86.6187   YY=            -84.8197   ZZ=            -83.5283
   XY=             -0.6635   XZ=             -0.5423   YZ=              0.2593

 Normal termination of Gaussian 16 at Wed May  5 23:06:41 2021.
