 Gaussian 16, Revision A.03,
 Gaussian 16:  EM64L-G16RevA.03 25-Dec-2016

 -------------
 #p 6-31g* mp2
 -------------

 ------------------------------------------------------
 Input file generated by CHIRIPA (05-May-2021 14:57:26)
 ------------------------------------------------------
 Symbolic Z-matrix:
 Charge =  0 Multiplicity = 1

                         Standard orientation:
 ---------------------------------------------------------------------
 Center     Atomic      Atomic             Coordinates (Angstroms)
 Number     Number       Type             X           Y           Z
 ---------------------------------------------------------------------
      1          6           0        5.405412    0.156270   -1.346818
      2          6           0        5.177050    1.074443   -0.316609
      3          6           0        4.094011    0.911722    0.552353
      4          6           0        3.255612   -0.185500    0.361351
      5          6           0        3.456763   -1.117457   -0.655648
      6          6           0        4.546055   -0.934826   -1.512757
      7          1           0        6.249172    0.290409   -2.017245
      8          1           0        5.842792    1.922740   -0.185364
      9          1           0        3.893950    1.607400    1.358223
     10          1           0        2.775770   -1.953203   -0.761458
     11          1           0        4.720965   -1.649477   -2.311959
     12          7           0        2.105737   -0.368305    1.275008
     13          8           0        1.381753   -1.343299    1.085610
     14          8           0        1.950222    0.466868    2.163230
     15          6           0       -2.821976    2.597361   -0.330342
     16          6           0       -4.168339    2.218793   -0.307679
     17          6           0       -4.525245    0.868685   -0.241530
     18          6           0       -3.505369   -0.080710   -0.199209
     19          6           0       -2.155034    0.264892   -0.220298
     20          6           0       -1.821384    1.620924   -0.286656
     21          1           0       -2.553756    3.648458   -0.381809
     22          1           0       -4.947535    2.974937   -0.341496
     23          1           0       -5.559684    0.547750   -0.222671
     24          1           0       -1.400671   -0.511727   -0.185415
     25          1           0       -0.774957    1.912005   -0.304117
     26          7           0       -3.870899   -1.513145   -0.129069
     27          8           0       -2.953495   -2.330267   -0.092775
     28          8           0       -5.067885   -1.791642   -0.111716
 ---------------------------------------------------------------------

 SCF Done:  E(RHF) =  -868.338608382     A.U. after   16 cycles
 E2 =    -0.2599098580D+01 EUMP2 =    -0.87093770696144D+03

 The electronic state is 1-A.
 Alpha  occ. eigenvalues --  -20.61400 -20.61393 -20.59963 -20.59928 -15.86420
 Alpha  occ. eigenvalues --  -15.85000 -11.31672 -11.30342 -11.28240 -11.28191
 Alpha  occ. eigenvalues --  -11.27932 -11.27213 -11.27175 -11.26994 -11.26810
 Alpha  occ. eigenvalues --  -11.26753 -11.26021 -11.25935  -1.60472  -1.59027
 Alpha  occ. eigenvalues --   -1.40021  -1.38576  -1.19833  -1.18541  -1.09249
 Alpha  occ. eigenvalues --   -1.07958  -1.05208  -1.03938  -0.96096  -0.94783
 Alpha  occ. eigenvalues --   -0.86611  -0.85346  -0.82920  -0.81613  -0.77990
 Alpha  occ. eigenvalues --   -0.76642  -0.72614  -0.71809  -0.71222  -0.70923
 Alpha  occ. eigenvalues --   -0.70350  -0.69662  -0.65476  -0.65198  -0.64202
 Alpha  occ. eigenvalues --   -0.63960  -0.62548  -0.61267  -0.55705  -0.54490
 Alpha  occ. eigenvalues --   -0.53557  -0.53288  -0.52281  -0.52038  -0.49399
 Alpha  occ. eigenvalues --   -0.49372  -0.47994  -0.47963  -0.45435  -0.43987
 Alpha  occ. eigenvalues --   -0.37812  -0.36810  -0.36560  -0.35534
 Alpha virt. eigenvalues --    0.04480   0.05885   0.10843   0.12113   0.15982
 Alpha virt. eigenvalues --    0.17354   0.21024   0.22153   0.26968   0.27672
 Alpha virt. eigenvalues --    0.28129   0.29101   0.30689   0.31587   0.32167

 Mulliken charges:
               1
     1  C   -0.170341
     2  C   -0.218696
     3  C   -0.172392
     4  C    0.155262
     5  C   -0.171904
     6  C   -0.218568
     7  H    0.227369
     8  H    0.224404
     9  H    0.275113
    10  H    0.279295
    11  H    0.226204
    12  N    0.485358
    13  O   -0.457649
    14  O   -0.459903
    15  C   -0.170987
    16  C   -0.219498
    17  C   -0.171339
    18  C    0.156497
    19  C   -0.171724
    20  C   -0.217552
    21  H    0.222087
    22  H    0.220106
    23  H    0.273157
    24  H    0.288421
    25  H    0.220823
    26  N    0.487588
    27  O   -0.456327
    28  O   -0.464804
 Sum of Mulliken charges =  -0.00000

 Dipole moment (field-independent basis, Debye):
    X=              5.7021    Y=              5.5274    Z=             -3.4454  Tot=              8.6566
 Quadrupole moment (field-independent basis, Debye-Ang):
   XX=            -83.4152   YY=           -103.1173   ZZ=           -107.2062
   XY=            -16.5408   XZ=             -8.2218   YZ=              2.3013

 Normal termination of Gaussian 16 at Wed May  5 18:02:13 2021.
