 Gaussian 16, Revision A.03,
 Gaussian 16:  EM64L-G16RevA.03 25-Dec-2016

 -------------
 #p 6-31g* mp2
 -------------

 ------------------------------------------------------
 Input file generated by CHIRIPA (05-May-2021 14:57:23)
 ------------------------------------------------------
 Symbolic Z-matrix:
 Charge =  0 Multiplicity = 1

                         Standard orientation:
 ---------------------------------------------------------------------
 Center     Atomic      Atomic             Coordinates (Angstroms)
 Number     Number       Type             X           Y           Z
 ---------------------------------------------------------------------
      1          6           0       -0.360716   -1.384187    1.843425
      2          6           0       -0.594583   -1.964599    0.592446
      3          6           0       -1.610601   -1.479689   -0.236479
      4          6           0       -2.377095   -0.408199    0.219248
      5          6           0       -2.168556    0.191346    1.460355
      6          6           0       -1.147063   -0.309960    2.272630
      7          1           0        0.430678   -1.767245    2.480887
      8          1           0        0.014536   -2.798969    0.256521
      9          1           0       -1.813243   -1.910260   -1.209598
     10          1           0       -2.792288    1.021907    1.767838
     11          1           0       -0.967702    0.142762    3.243670
     12          7           0       -3.455607    0.113833   -0.649485
     13          8           0       -4.116931    1.058814   -0.224870
     14          8           0       -3.619197   -0.431864   -1.738562
     15          6           0        0.978015    2.689734   -0.129903
     16          6           0        2.120649    2.439685    0.637160
     17          6           0        2.805333    1.226750    0.516563
     18          6           0        2.317417    0.281983   -0.384905
     19          6           0        1.181825    0.501499   -1.163064
     20          6           0        0.513070    1.721550   -1.025988
     21          1           0        0.452323    3.634735   -0.029819
     22          1           0        2.484013    3.189753    1.333872
     23          1           0        3.692429    1.007039    1.098118
     24          1           0        0.843657   -0.265559   -1.849127
     25          1           0       -0.374051    1.913003   -1.622986
     26          7           0        3.033830   -1.005863   -0.521299
     27          8           0        2.583669   -1.821864   -1.322632
     28          8           0        4.031949   -1.174892    0.175711
 ---------------------------------------------------------------------

 SCF Done:  E(RHF) =  -868.338176271     A.U. after   16 cycles
 E2 =    -0.2605320811D+01 EUMP2 =    -0.87094349708206D+03

 The electronic state is 1-A.
 Alpha  occ. eigenvalues --  -20.61433 -20.61425 -20.61250 -20.61241 -15.86447
 Alpha  occ. eigenvalues --  -15.86288 -11.31485 -11.31465 -11.28100 -11.28042
 Alpha  occ. eigenvalues --  -11.28030 -11.27917 -11.27749 -11.27616 -11.27025
 Alpha  occ. eigenvalues --  -11.27013 -11.26937 -11.26791  -1.60504  -1.60339
 Alpha  occ. eigenvalues --   -1.40066  -1.39892  -1.19736  -1.19545  -1.09131
 Alpha  occ. eigenvalues --   -1.09015  -1.05089  -1.04918  -0.96007  -0.95896
 Alpha  occ. eigenvalues --   -0.86454  -0.86367  -0.82857  -0.82716  -0.77964
 Alpha  occ. eigenvalues --   -0.77783  -0.72680  -0.72500  -0.71844  -0.71683
 Alpha  occ. eigenvalues --   -0.70808  -0.70672  -0.65333  -0.65247  -0.65033
 Alpha  occ. eigenvalues --   -0.64908  -0.62438  -0.62268  -0.55554  -0.55431
 Alpha  occ. eigenvalues --   -0.54297  -0.53132  -0.53016  -0.52395  -0.49456
 Alpha  occ. eigenvalues --   -0.49405  -0.49274  -0.49240  -0.45532  -0.45332
 Alpha  occ. eigenvalues --   -0.38257  -0.37452  -0.36650  -0.35939
 Alpha virt. eigenvalues --    0.04359   0.04816   0.10980   0.11028   0.16023
 Alpha virt. eigenvalues --    0.16347   0.20867   0.21596   0.26420   0.27259
 Alpha virt. eigenvalues --    0.28077   0.28578   0.30685   0.31084   0.32035

 Mulliken charges:
               1
     1  C   -0.172644
     2  C   -0.221564
     3  C   -0.182025
     4  C    0.159435
     5  C   -0.172986
     6  C   -0.214628
     7  H    0.230760
     8  H    0.240891
     9  H    0.276287
    10  H    0.272865
    11  H    0.222652
    12  N    0.485465
    13  O   -0.462042
    14  O   -0.460596
    15  C   -0.170413
    16  C   -0.220623
    17  C   -0.173983
    18  C    0.158070
    19  C   -0.162964
    20  C   -0.219897
    21  H    0.228506
    22  H    0.222668
    23  H    0.273497
    24  H    0.272703
    25  H    0.229871
    26  N    0.486499
    27  O   -0.465205
    28  O   -0.460599
 Sum of Mulliken charges =  -0.00000

 Dipole moment (field-independent basis, Debye):
    X=              1.2896    Y=              2.6422    Z=              3.5850  Tot=              4.6364
 Quadrupole moment (field-independent basis, Debye-Ang):
   XX=           -134.1684   YY=            -98.5013   ZZ=            -99.7709
   XY=             12.9597   XZ=             -2.6541   YZ=              0.3584

 Normal termination of Gaussian 16 at Thu May  6 16:18:59 2021.
