 Gaussian 16, Revision A.03,
 Gaussian 16:  EM64L-G16RevA.03 25-Dec-2016

 -------------
 #p 6-31g* mp2
 -------------

 ------------------------------------------------------
 Input file generated by CHIRIPA (05-May-2021 14:51:10)
 ------------------------------------------------------
 Symbolic Z-matrix:
 Charge =  0 Multiplicity = 1

                         Standard orientation:
 ---------------------------------------------------------------------
 Center     Atomic      Atomic             Coordinates (Angstroms)
 Number     Number       Type             X           Y           Z
 ---------------------------------------------------------------------
      1          6           0        3.907541    0.307261    0.158200
      2          6           0        3.459960    1.678158   -0.350029
      3          6           0        2.036757    2.032920    0.081751
      4          1           0        3.210044   -0.458273   -0.208408
      5          1           0        3.841294    0.290985    1.254896
      6          1           0        3.528348    1.692303   -1.445355
      7          1           0        4.158712    2.440494    0.017674
      8          1           0        1.957518    2.046473    1.173601
      9          1           0        1.323573    1.294032   -0.297740
     10          1           0        1.737217    3.016872   -0.292380
     11          6           0        5.328221   -0.061601   -0.265282
     12          6           0        5.775803   -1.432498    0.242946
     13          6           0        7.199005   -1.787261   -0.188833
     14          1           0        5.394469   -0.045326   -1.361978
     15          1           0        6.025718    0.703932    0.101326
     16          1           0        5.077050   -2.194834   -0.124756
     17          1           0        5.707414   -1.446643    1.338272
     18          1           0        7.912190   -1.048372    0.190657
     19          1           0        7.278244   -1.800814   -1.280684
     20          1           0        7.498546   -2.771213    0.185298
     21          6           0       -4.039574    0.355561   -0.088359
     22          6           0       -2.733274   -0.053272    0.593124
     23          6           0       -1.585684    0.913560    0.299755
     24          1           0       -3.876731    0.415207   -1.173195
     25          1           0       -4.316760    1.366173    0.242136
     26          1           0       -2.459360   -1.063360    0.262504
     27          1           0       -2.899296   -0.112137    1.676446
     28          1           0       -1.833821    1.922245    0.645563
     29          1           0       -1.391387    0.965619   -0.776414
     30          1           0       -0.661537    0.602313    0.796685
     31          6           0       -5.196188   -0.601221    0.195441
     32          6           0       -6.502488   -0.192388   -0.486042
     33          6           0       -7.650079   -1.159220   -0.192672
     34          1           0       -4.919003   -1.611833   -0.135053
     35          1           0       -5.359032   -0.660866    1.280277
     36          1           0       -6.336467   -0.133522   -1.569364
     37          1           0       -6.776401    0.817701   -0.155421
     38          1           0       -7.844376   -1.211279    0.883496
     39          1           0       -7.401941   -2.167905   -0.538481
     40          1           0       -8.574225   -0.847973   -0.689601
 ---------------------------------------------------------------------

 SCF Done:  E(RHF) =  -470.732662196     A.U. after   11 cycles
 E2 =    -0.1582470319D+01 EUMP2 =    -0.47231513251479D+03

 The electronic state is 1-A.
 Alpha  occ. eigenvalues --  -11.21586 -11.21586 -11.21551 -11.21527 -11.21379
 Alpha  occ. eigenvalues --  -11.21376 -11.21319 -11.21317 -11.21060 -11.21059
 Alpha  occ. eigenvalues --  -11.20975 -11.20917  -1.08406  -1.08390  -1.03523
 Alpha  occ. eigenvalues --   -1.03459  -0.96017  -0.95867  -0.87090  -0.86831
 Alpha  occ. eigenvalues --   -0.79673  -0.79443  -0.78232  -0.78191  -0.65045
 Alpha  occ. eigenvalues --   -0.65016  -0.60950  -0.60842  -0.59382  -0.59275
 Alpha  occ. eigenvalues --   -0.57658  -0.57444  -0.55339  -0.55134  -0.52925
 Alpha  occ. eigenvalues --   -0.52606  -0.52366  -0.52101  -0.49992  -0.49750
 Alpha  occ. eigenvalues --   -0.47923  -0.47803  -0.46661  -0.46513  -0.45779
 Alpha  occ. eigenvalues --   -0.45732  -0.45693  -0.45661  -0.43754  -0.43669
 Alpha virt. eigenvalues --    0.22550   0.23008   0.23685   0.24833   0.26498
 Alpha virt. eigenvalues --    0.26724   0.26850   0.27496   0.27677   0.29088
 Alpha virt. eigenvalues --    0.30954   0.31362   0.31549   0.31926   0.32196

 Mulliken charges:
               1
     1  C   -0.298280
     2  C   -0.299902
     3  C   -0.479213
     4  H    0.149194
     5  H    0.149205
     6  H    0.151430
     7  H    0.151340
     8  H    0.153927
     9  H    0.162419
    10  H    0.159822
    11  C   -0.298155
    12  C   -0.299614
    13  C   -0.475682
    14  H    0.149454
    15  H    0.149660
    16  H    0.151823
    17  H    0.151856
    18  H    0.155172
    19  H    0.155145
    20  H    0.160171
    21  C   -0.298472
    22  C   -0.300153
    23  C   -0.477359
    24  H    0.149440
    25  H    0.149481
    26  H    0.151355
    27  H    0.151714
    28  H    0.155488
    29  H    0.154213
    30  H    0.164755
    31  C   -0.298203
    32  C   -0.299586
    33  C   -0.475677
    34  H    0.149380
    35  H    0.149605
    36  H    0.151859
    37  H    0.151911
    38  H    0.155160
    39  H    0.155125
    40  H    0.160193
 Sum of Mulliken charges =  -0.00000

 Dipole moment (field-independent basis, Debye):
    X=             -0.0129    Y=              0.0101    Z=              0.0033  Tot=              0.0167
 Quadrupole moment (field-independent basis, Debye-Ang):
   XX=            -86.7701   YY=            -84.8533   ZZ=            -83.4420
   XY=             -0.1988   XZ=              0.4347   YZ=              0.8349

 Normal termination of Gaussian 16 at Wed May  5 18:11:47 2021.
