 Gaussian 16, Revision A.03,
 Gaussian 16:  EM64L-G16RevA.03 25-Dec-2016

 -------------
 #p 6-31g* mp2
 -------------

 ------------------------------------------------------
 Input file generated by CHIRIPA (05-May-2021 14:55:25)
 ------------------------------------------------------
 Symbolic Z-matrix:
 Charge =  0 Multiplicity = 1

                         Standard orientation:
 ---------------------------------------------------------------------
 Center     Atomic      Atomic             Coordinates (Angstroms)
 Number     Number       Type             X           Y           Z
 ---------------------------------------------------------------------
      1          6           0       -1.306395   -1.740646    0.200776
      2          6           0       -2.557481   -2.365673    0.226163
      3          6           0       -3.729784   -1.612777    0.110403
      4          6           0       -3.613593   -0.230720   -0.029984
      5          6           0       -2.381742    0.421203   -0.058786
      6          6           0       -1.222666   -0.351651    0.058634
      7          1           0       -0.400859   -2.333266    0.291346
      8          1           0       -2.625537   -3.444215    0.336439
      9          1           0       -4.711248   -2.070894    0.126961
     10          1           0       -2.345837    1.498133   -0.169916
     11          1           0       -0.252409    0.136454    0.038594
     12          7           0       -4.847656    0.576902   -0.153412
     13          8           0       -4.718329    1.792988   -0.276080
     14          8           0       -5.920875   -0.021462   -0.125151
     15          6           0        5.111609    0.324226   -0.065669
     16          6           0        5.444394   -1.167416   -0.113015
     17          6           0        6.941756   -1.434369   -0.269336
     18          1           0        5.477217    0.804298   -0.983715
     19          1           0        5.656702    0.788117    0.768040
     20          1           0        4.897758   -1.628623   -0.945537
     21          1           0        5.077780   -1.644028    0.805164
     22          1           0        7.499745   -1.000641    0.566805
     23          1           0        7.318700   -0.985148   -1.193844
     24          1           0        7.157179   -2.506962   -0.300925
     25          6           0        3.618514    0.607168    0.090353
     26          6           0        3.285729    2.098810    0.137698
     27          6           0        1.788366    2.365762    0.294019
     28          1           0        3.073421    0.143276   -0.743357
     29          1           0        3.252905    0.127097    1.008398
     30          1           0        3.652343    2.575422   -0.780481
     31          1           0        3.832365    2.560017    0.970220
     32          1           0        1.411423    1.916542    1.218527
     33          1           0        1.230378    1.932035   -0.542122
     34          1           0        1.572944    3.438355    0.325608
 ---------------------------------------------------------------------

 SCF Done:  E(RHF) =  -669.535552029     A.U. after   15 cycles
 E2 =    -0.2091267257D+01 EUMP2 =    -0.67162681928674D+03

 The electronic state is 1-A.
 Alpha  occ. eigenvalues --  -20.60681 -20.60676 -15.85733 -11.31077 -11.27649
 Alpha  occ. eigenvalues --  -11.27619 -11.27368 -11.26664 -11.26557 -11.22499
 Alpha  occ. eigenvalues --  -11.22329 -11.22289 -11.22198 -11.22108 -11.21626
 Alpha  occ. eigenvalues --   -1.59757  -1.39311  -1.19241  -1.09262  -1.08641
 Alpha  occ. eigenvalues --   -1.04642  -1.04349  -0.96822  -0.95481  -0.87846
 Alpha  occ. eigenvalues --   -0.86037  -0.82315  -0.80431  -0.79077  -0.77359
 Alpha  occ. eigenvalues --   -0.71951  -0.71080  -0.70354  -0.65883  -0.64890
 Alpha  occ. eigenvalues --   -0.64660  -0.62034  -0.61723  -0.60172  -0.58418
 Alpha  occ. eigenvalues --   -0.56117  -0.55147  -0.53485  -0.53370  -0.52975
 Alpha  occ. eigenvalues --   -0.52605  -0.50760  -0.48789  -0.48708  -0.48629
 Alpha  occ. eigenvalues --   -0.47446  -0.46605  -0.46519  -0.44721  -0.44596
 Alpha  occ. eigenvalues --   -0.37227  -0.36241
 Alpha virt. eigenvalues --    0.05160   0.11388   0.16637   0.20194   0.22374
 Alpha virt. eigenvalues --    0.23646   0.25565   0.25999   0.26720   0.28354
 Alpha virt. eigenvalues --    0.29084   0.30447   0.30973   0.31030   0.31955

 Mulliken charges:
               1
     1  C   -0.172916
     2  C   -0.218405
     3  C   -0.171514
     4  C    0.158744
     5  C   -0.173959
     6  C   -0.227043
     7  H    0.225855
     8  H    0.222776
     9  H    0.275122
    10  H    0.275606
    11  H    0.236040
    12  N    0.488102
    13  O   -0.460573
    14  O   -0.460921
    15  C   -0.298490
    16  C   -0.300226
    17  C   -0.476115
    18  H    0.152214
    19  H    0.152102
    20  H    0.151009
    21  H    0.151035
    22  H    0.156617
    23  H    0.156681
    24  H    0.161403
    25  C   -0.300560
    26  C   -0.299167
    27  C   -0.484866
    28  H    0.146100
    29  H    0.147520
    30  H    0.156088
    31  H    0.156322
    32  H    0.155545
    33  H    0.151083
    34  H    0.168791
 Sum of Mulliken charges =  -0.00000

 Dipole moment (field-independent basis, Debye):
    X=              4.6395    Y=             -2.7340    Z=              0.4478  Tot=              5.4038
 Quadrupole moment (field-independent basis, Debye-Ang):
   XX=           -125.3400   YY=            -89.9125   ZZ=            -94.6413
   XY=             12.6126   XZ=             -1.7076   YZ=             -0.3648

 Normal termination of Gaussian 16 at Thu May  6 07:59:59 2021.
