 Gaussian 16, Revision A.03,
 Gaussian 16:  EM64L-G16RevA.03 25-Dec-2016

 -------------
 #p 6-31g* mp2
 -------------

 ------------------------------------------------------
 Input file generated by CHIRIPA (05-May-2021 14:55:19)
 ------------------------------------------------------
 Symbolic Z-matrix:
 Charge =  0 Multiplicity = 1

                         Standard orientation:
 ---------------------------------------------------------------------
 Center     Atomic      Atomic             Coordinates (Angstroms)
 Number     Number       Type             X           Y           Z
 ---------------------------------------------------------------------
      1          6           0       -2.405790    2.168662   -0.188002
      2          6           0       -1.813802    0.907666   -0.061666
      3          6           0       -2.601537   -0.247017   -0.034659
      4          6           0       -3.984362   -0.103292   -0.136771
      5          6           0       -4.603859    1.139050   -0.263656
      6          6           0       -3.796477    2.280133   -0.288417
      7          1           0       -1.786227    3.060365   -0.208109
      8          1           0       -0.734030    0.818075    0.016508
      9          1           0       -2.169432   -1.235608    0.062251
     10          1           0       -5.682910    1.196526   -0.339571
     11          1           0       -4.258969    3.258142   -0.386624
     12          7           0       -4.828701   -1.318504   -0.109369
     13          8           0       -6.044709   -1.165007   -0.201030
     14          8           0       -4.258499   -2.401474    0.003251
     15          6           0        5.430158   -0.403451   -0.316199
     16          6           0        6.842588    0.145524   -0.112109
     17          6           0        7.848141   -0.422603   -1.114051
     18          1           0        5.453768   -1.498668   -0.233201
     19          1           0        5.099520   -0.174536   -1.338780
     20          1           0        7.169927   -0.083148    0.910228
     21          1           0        6.815579    1.239575   -0.195413
     22          1           0        7.548244   -0.182264   -2.139186
     23          1           0        7.904605   -1.512501   -1.027262
     24          1           0        8.851275   -0.016787   -0.950054
     25          6           0        4.413566    0.155159    0.677895
     26          6           0        3.001137   -0.393817    0.473805
     27          6           0        1.995583    0.174310    1.475747
     28          1           0        4.744204   -0.073756    1.700476
     29          1           0        4.389956    1.250375    0.594897
     30          1           0        3.028144   -1.487868    0.557109
     31          1           0        2.673797   -0.165146   -0.548532
     32          1           0        1.939120    1.264209    1.388957
     33          1           0        2.295481   -0.066029    2.500881
     34          1           0        0.992449   -0.231506    1.311750
 ---------------------------------------------------------------------

 SCF Done:  E(RHF) =  -669.535443814     A.U. after   15 cycles
 E2 =    -0.2090847414D+01 EUMP2 =    -0.67162629122747D+03

 The electronic state is 1-A.
 Alpha  occ. eigenvalues --  -20.60726 -20.60721 -15.85779 -11.31138 -11.27706
 Alpha  occ. eigenvalues --  -11.27696 -11.27439 -11.26724 -11.26661 -11.22406
 Alpha  occ. eigenvalues --  -11.22119 -11.22017 -11.22003 -11.21856 -11.21397
 Alpha  occ. eigenvalues --   -1.59802  -1.39355  -1.19306  -1.09026  -1.08702
 Alpha  occ. eigenvalues --   -1.04710  -1.04163  -0.96626  -0.95540  -0.87648
 Alpha  occ. eigenvalues --   -0.86103  -0.82374  -0.80227  -0.78800  -0.77423
 Alpha  occ. eigenvalues --   -0.71997  -0.71124  -0.70418  -0.65658  -0.64958
 Alpha  occ. eigenvalues --   -0.64736  -0.62120  -0.61540  -0.60000  -0.58217
 Alpha  occ. eigenvalues --   -0.55907  -0.55209  -0.53438  -0.53074  -0.53031
 Alpha  occ. eigenvalues --   -0.52649  -0.50548  -0.48755  -0.48753  -0.48537
 Alpha  occ. eigenvalues --   -0.47248  -0.46351  -0.46253  -0.44762  -0.44402
 Alpha  occ. eigenvalues --   -0.37286  -0.36308
 Alpha virt. eigenvalues --    0.05106   0.11333   0.16574   0.19946   0.22552
 Alpha virt. eigenvalues --    0.23711   0.26014   0.26248   0.26919   0.27878
 Alpha virt. eigenvalues --    0.28917   0.30619   0.30787   0.31499   0.31724

 Mulliken charges:
               1
     1  C   -0.172239
     2  C   -0.224250
     3  C   -0.173199
     4  C    0.158747
     5  C   -0.171286
     6  C   -0.218364
     7  H    0.225565
     8  H    0.233421
     9  H    0.274995
    10  H    0.275404
    11  H    0.223126
    12  N    0.488112
    13  O   -0.460633
    14  O   -0.460536
    15  C   -0.298861
    16  C   -0.300078
    17  C   -0.476045
    18  H    0.151466
    19  H    0.149735
    20  H    0.152852
    21  H    0.151784
    22  H    0.155479
    23  H    0.156221
    24  H    0.161377
    25  C   -0.298683
    26  C   -0.301318
    27  C   -0.480283
    28  H    0.151793
    29  H    0.149124
    30  H    0.156442
    31  H    0.150187
    32  H    0.152414
    33  H    0.162871
    34  H    0.154661
 Sum of Mulliken charges =  -0.00000

 Dipole moment (field-independent basis, Debye):
    X=              3.1999    Y=              4.2604    Z=             -0.0618  Tot=              5.3286
 Quadrupole moment (field-independent basis, Debye-Ang):
   XX=           -115.2127   YY=            -93.9623   ZZ=            -95.4961
   XY=            -20.2303   XZ=              1.2318   YZ=             -1.6457

 Normal termination of Gaussian 16 at Thu May  6 01:18:01 2021.
