 Gaussian 16, Revision A.03,
 Gaussian 16:  EM64L-G16RevA.03 25-Dec-2016

 -------------
 #p 6-31g* mp2
 -------------

 ------------------------------------------------------
 Input file generated by CHIRIPA (05-May-2021 14:53:14)
 ------------------------------------------------------
 Symbolic Z-matrix:
 Charge =  0 Multiplicity = 1

                         Standard orientation:
 ---------------------------------------------------------------------
 Center     Atomic      Atomic             Coordinates (Angstroms)
 Number     Number       Type             X           Y           Z
 ---------------------------------------------------------------------
      1          6           0        5.022045   -0.173555   -0.364135
      2          6           0        5.353841   -1.590013    0.106549
      3          6           0        6.453791   -2.247615   -0.727397
      4          1           0        4.714530   -0.206914   -1.418302
      5          1           0        5.931714    0.441443   -0.323214
      6          1           0        4.443509   -2.201791    0.066065
      7          1           0        5.660419   -1.553303    1.159772
      8          1           0        7.377099   -1.661372   -0.678163
      9          1           0        6.153275   -2.313545   -1.778085
     10          1           0        6.675097   -3.259435   -0.373697
     11          6           0        3.924210    0.497028    0.459760
     12          6           0        3.592414    1.913486   -0.010924
     13          6           0        2.492464    2.571087    0.823022
     14          1           0        3.014541   -0.117970    0.418839
     15          1           0        4.231725    0.530387    1.513927
     16          1           0        3.285837    1.876776   -1.064147
     17          1           0        4.502746    2.525264    0.029560
     18          1           0        2.792980    2.637018    1.873709
     19          1           0        1.569157    1.984845    0.773788
     20          1           0        2.271158    3.582908    0.469322
     21          6           0       -2.586169    2.200210   -0.394716
     22          6           0       -1.766048    1.203691    0.144611
     23          6           0       -2.258789   -0.088904    0.346982
     24          6           0       -3.582458   -0.351280   -0.002805
     25          6           0       -4.424365    0.620132   -0.542103
     26          6           0       -3.910375    1.905769   -0.735750
     27          1           0       -2.195143    3.201626   -0.548534
     28          1           0       -0.737252    1.429493    0.410388
     29          1           0       -1.645763   -0.879297    0.762787
     30          1           0       -5.445700    0.364847   -0.797292
     31          1           0       -4.549585    2.677695   -1.154779
     32          7           0       -4.115348   -1.716009    0.206818
     33          8           0       -5.285063   -1.921672   -0.109577
     34          8           0       -3.353222   -2.554181    0.683548
 ---------------------------------------------------------------------

 SCF Done:  E(RHF) =  -669.535508448     A.U. after   15 cycles
 E2 =    -0.2090789136D+01 EUMP2 =    -0.67162629758376D+03

 The electronic state is 1-A.
 Alpha  occ. eigenvalues --  -20.60745 -20.60740 -15.85798 -11.31159 -11.27729
 Alpha  occ. eigenvalues --  -11.27724 -11.27465 -11.26744 -11.26718 -11.22351
 Alpha  occ. eigenvalues --  -11.22130 -11.21981 -11.21906 -11.21793 -11.21295
 Alpha  occ. eigenvalues --   -1.59821  -1.39374  -1.19331  -1.08970  -1.08726
 Alpha  occ. eigenvalues --   -1.04736  -1.04095  -0.96564  -0.95561  -0.87586
 Alpha  occ. eigenvalues --   -0.86133  -0.82396  -0.80167  -0.78742  -0.77445
 Alpha  occ. eigenvalues --   -0.72017  -0.71144  -0.70438  -0.65613  -0.64983
 Alpha  occ. eigenvalues --   -0.64754  -0.62128  -0.61462  -0.59948  -0.58148
 Alpha  occ. eigenvalues --   -0.55885  -0.55224  -0.53269  -0.53070  -0.53064
 Alpha  occ. eigenvalues --   -0.52746  -0.50497  -0.48778  -0.48772  -0.48469
 Alpha  occ. eigenvalues --   -0.47188  -0.46293  -0.46192  -0.44781  -0.44332
 Alpha  occ. eigenvalues --   -0.37311  -0.36339
 Alpha virt. eigenvalues --    0.05092   0.11314   0.16586   0.19609   0.22606
 Alpha virt. eigenvalues --    0.23734   0.25225   0.26467   0.27192   0.28280
 Alpha virt. eigenvalues --    0.28683   0.29870   0.31054   0.31580   0.32148

 Mulliken charges:
               1
     1  C   -0.298820
     2  C   -0.300328
     3  C   -0.476087
     4  H    0.150436
     5  H    0.150488
     6  H    0.153259
     7  H    0.152632
     8  H    0.155308
     9  H    0.155803
    10  H    0.162053
    11  C   -0.298274
    12  C   -0.299614
    13  C   -0.481287
    14  H    0.147139
    15  H    0.151452
    16  H    0.152707
    17  H    0.155455
    18  H    0.160652
    19  H    0.147227
    20  H    0.160744
    21  C   -0.173873
    22  C   -0.226979
    23  C   -0.174104
    24  C    0.158926
    25  C   -0.171230
    26  C   -0.218530
    27  H    0.226405
    28  H    0.236888
    29  H    0.275814
    30  H    0.275473
    31  H    0.223299
    32  N    0.488082
    33  O   -0.460601
    34  O   -0.460515
 Sum of Mulliken charges =  -0.00000

 Dipole moment (field-independent basis, Debye):
    X=              2.0787    Y=              4.8157    Z=             -0.7442  Tot=              5.2977
 Quadrupole moment (field-independent basis, Debye-Ang):
   XX=           -103.6873   YY=            -98.4150   ZZ=            -94.7001
   XY=            -18.7654   XZ=              5.4517   YZ=             -0.4413

 Normal termination of Gaussian 16 at Thu May  6 01:03:48 2021.
