 Gaussian 16, Revision A.03,
 Gaussian 16:  EM64L-G16RevA.03 25-Dec-2016

 -------------
 #p 6-31g* mp2
 -------------

 ------------------------------------------------------
 Input file generated by CHIRIPA (05-May-2021 14:51:13)
 ------------------------------------------------------
 Symbolic Z-matrix:
 Charge =  0 Multiplicity = 1

                         Standard orientation:
 ---------------------------------------------------------------------
 Center     Atomic      Atomic             Coordinates (Angstroms)
 Number     Number       Type             X           Y           Z
 ---------------------------------------------------------------------
      1          6           0        2.349610   -0.511039    1.115640
      2          6           0        0.980839   -1.149428    1.354199
      3          6           0        0.673435   -1.351657    2.838247
      4          1           0        3.125693   -1.142353    1.569603
      5          1           0        2.390631    0.456574    1.634713
      6          1           0        0.941918   -2.114917    0.833686
      7          1           0        0.207940   -0.516620    0.899449
      8          1           0        0.684891   -0.393658    3.368066
      9          1           0        1.423039   -2.001036    3.301930
     10          1           0       -0.309768   -1.809242    2.985855
     11          6           0        2.671346   -0.302446   -0.363111
     12          6           0        4.040117    0.335943   -0.601670
     13          6           0        4.347521    0.538172   -2.085718
     14          1           0        2.630325   -1.270060   -0.882184
     15          1           0        1.895263    0.328867   -0.817074
     16          1           0        4.813015   -0.296866   -0.146919
     17          1           0        4.079038    1.301431   -0.081157
     18          1           0        3.597917    1.187551   -2.549401
     19          1           0        4.336064   -0.419827   -2.615537
     20          1           0        5.330724    0.995756   -2.233326
     21          6           0       -2.493001    0.938433    0.171853
     22          6           0       -1.918347    2.275168   -0.298145
     23          6           0       -1.889961    3.328656    0.809624
     24          1           0       -3.510503    1.098094    0.554139
     25          1           0       -1.896308    0.567490    1.016692
     26          1           0       -2.515108    2.642805   -1.142737
     27          1           0       -0.902167    2.112273   -0.679534
     28          1           0       -1.278293    2.986771    1.650800
     29          1           0       -2.900399    3.520316    1.184966
     30          1           0       -1.475509    4.276339    0.451873
     31          6           0       -2.527954   -0.124947   -0.924382
     32          6           0       -3.102608   -1.461683   -0.454385
     33          6           0       -3.130995   -2.515170   -1.562153
     34          1           0       -3.124647    0.245996   -1.769221
     35          1           0       -1.510452   -0.284608   -1.306668
     36          1           0       -4.118789   -1.298787   -0.072995
     37          1           0       -2.505848   -1.829318    0.390208
     38          1           0       -2.120556   -2.706830   -1.937496
     39          1           0       -3.742663   -2.173284   -2.403330
     40          1           0       -3.545446   -3.462853   -1.204403
 ---------------------------------------------------------------------

 SCF Done:  E(RHF) =  -470.733230541     A.U. after   11 cycles
 E2 =    -0.1584135449D+01 EUMP2 =    -0.47231736598966D+03

 The electronic state is 1-A.
 Alpha  occ. eigenvalues --  -11.21656 -11.21656 -11.21649 -11.21586 -11.21475
 Alpha  occ. eigenvalues --  -11.21415 -11.21406 -11.21345 -11.21155 -11.21118
 Alpha  occ. eigenvalues --  -11.21105 -11.21054  -1.08523  -1.08425  -1.03594
 Alpha  occ. eigenvalues --   -1.03544  -0.96047  -0.95990  -0.87056  -0.87009
 Alpha  occ. eigenvalues --   -0.79671  -0.79599  -0.78328  -0.78247  -0.65394
 Alpha  occ. eigenvalues --   -0.64869  -0.61028  -0.60899  -0.59412  -0.59354
 Alpha  occ. eigenvalues --   -0.57665  -0.57591  -0.55398  -0.55221  -0.52733
 Alpha  occ. eigenvalues --   -0.52688  -0.52467  -0.52414  -0.49996  -0.49925
 Alpha  occ. eigenvalues --   -0.47981  -0.47928  -0.46814  -0.46562  -0.46068
 Alpha  occ. eigenvalues --   -0.45804  -0.45700  -0.45460  -0.43847  -0.43795
 Alpha virt. eigenvalues --    0.19242   0.22556   0.23778   0.24114   0.25307
 Alpha virt. eigenvalues --    0.26342   0.26990   0.27688   0.29270   0.29955
 Alpha virt. eigenvalues --    0.30199   0.31373   0.31628   0.31814   0.32662

 Mulliken charges:
               1
     1  C   -0.297735
     2  C   -0.309402
     3  C   -0.476458
     4  H    0.150049
     5  H    0.149516
     6  H    0.152037
     7  H    0.161395
     8  H    0.155084
     9  H    0.155917
    10  H    0.160705
    11  C   -0.299725
    12  C   -0.299688
    13  C   -0.475809
    14  H    0.149689
    15  H    0.149797
    16  H    0.152235
    17  H    0.152170
    18  H    0.155300
    19  H    0.155264
    20  H    0.160485
    21  C   -0.303289
    22  C   -0.300973
    23  C   -0.475522
    24  H    0.150563
    25  H    0.153203
    26  H    0.152563
    27  H    0.151540
    28  H    0.154744
    29  H    0.155626
    30  H    0.160301
    31  C   -0.299895
    32  C   -0.301051
    33  C   -0.475789
    34  H    0.149831
    35  H    0.151092
    36  H    0.151763
    37  H    0.153759
    38  H    0.155582
    39  H    0.155053
    40  H    0.160072
 Sum of Mulliken charges =  -0.00000

 Dipole moment (field-independent basis, Debye):
    X=              0.0093    Y=             -0.0057    Z=              0.0059  Tot=              0.0124
 Quadrupole moment (field-independent basis, Debye-Ang):
   XX=            -83.7877   YY=            -84.6113   ZZ=            -86.2477
   XY=             -0.8762   XZ=              0.5533   YZ=             -0.4439

 Normal termination of Gaussian 16 at Wed May  5 21:34:51 2021.
