 Gaussian 16, Revision A.03,
 Gaussian 16:  EM64L-G16RevA.03 25-Dec-2016

 -------------
 #p 6-31g* mp2
 -------------

 ------------------------------------------------------
 Input file generated by CHIRIPA (05-May-2021 14:53:16)
 ------------------------------------------------------
 Symbolic Z-matrix:
 Charge =  0 Multiplicity = 1

                         Standard orientation:
 ---------------------------------------------------------------------
 Center     Atomic      Atomic             Coordinates (Angstroms)
 Number     Number       Type             X           Y           Z
 ---------------------------------------------------------------------
      1          6           0        3.895817   -0.016138   -0.267746
      2          6           0        5.394369    0.059701    0.026488
      3          6           0        6.131414   -1.233819   -0.321887
      4          1           0        3.459642   -0.851747    0.296572
      5          1           0        3.749425   -0.247450   -1.331916
      6          1           0        5.537879    0.292167    1.089493
      7          1           0        5.826991    0.895346   -0.538447
      8          1           0        6.017827   -1.467468   -1.385422
      9          1           0        5.727072   -2.074074    0.251767
     10          1           0        7.201191   -1.157583   -0.103654
     11          6           0        3.145262    1.269445    0.075290
     12          6           0        1.646710    1.193607   -0.218944
     13          6           0        0.909665    2.487126    0.129432
     14          1           0        3.291654    1.500757    1.139460
     15          1           0        3.581437    2.105055   -0.489027
     16          1           0        1.214088    0.357962    0.345991
     17          1           0        1.503200    0.961140   -1.281949
     18          1           0        1.314007    3.327381   -0.444223
     19          1           0        1.023252    2.720776    1.192967
     20          1           0       -0.160112    2.410890   -0.088801
     21          6           0       -0.633123   -1.698389    0.724587
     22          6           0       -1.347006   -0.972461    1.683712
     23          6           0       -2.521423   -0.298803    1.335173
     24          6           0       -2.955114   -0.372710    0.012396
     25          6           0       -2.265991   -1.087655   -0.965997
     26          6           0       -1.094081   -1.753572   -0.594879
     27          1           0        0.278219   -2.218696    1.004111
     28          1           0       -0.991385   -0.927854    2.709182
     29          1           0       -3.093622    0.270522    2.057582
     30          1           0       -2.645415   -1.113678   -1.980284
     31          1           0       -0.541717   -2.316569   -1.341856
     32          7           0       -4.197090    0.336364   -0.368538
     33          8           0       -4.558131    0.255682   -1.540621
     34          8           0       -4.785994    0.959392    0.512181
 ---------------------------------------------------------------------

 SCF Done:  E(RHF) =  -669.534802724     A.U. after   15 cycles
 E2 =    -0.2093155011D+01 EUMP2 =    -0.67162795773493D+03

 The electronic state is 1-A.
 Alpha  occ. eigenvalues --  -20.60805 -20.60800 -15.85861 -11.31247 -11.27828
 Alpha  occ. eigenvalues --  -11.27816 -11.27557 -11.26836 -11.26811 -11.22109
 Alpha  occ. eigenvalues --  -11.21986 -11.21849 -11.21772 -11.21578 -11.21266
 Alpha  occ. eigenvalues --   -1.59881  -1.39434  -1.19429  -1.08915  -1.08805
 Alpha  occ. eigenvalues --   -1.04826  -1.03924  -0.96383  -0.95655  -0.87395
 Alpha  occ. eigenvalues --   -0.86226  -0.82480  -0.80002  -0.78723  -0.77516
 Alpha  occ. eigenvalues --   -0.72078  -0.71207  -0.70547  -0.65539  -0.65079
 Alpha  occ. eigenvalues --   -0.64824  -0.62170  -0.61344  -0.59764  -0.58010
 Alpha  occ. eigenvalues --   -0.55694  -0.55342  -0.53267  -0.52931  -0.52917
 Alpha  occ. eigenvalues --   -0.52804  -0.50332  -0.48838  -0.48831  -0.48316
 Alpha  occ. eigenvalues --   -0.47051  -0.46262  -0.46193  -0.44836  -0.44199
 Alpha  occ. eigenvalues --   -0.37280  -0.36422
 Alpha virt. eigenvalues --    0.04988   0.11189   0.16401   0.20657   0.22652
 Alpha virt. eigenvalues --    0.23921   0.25621   0.26549   0.27311   0.27473
 Alpha virt. eigenvalues --    0.29298   0.30841   0.31119   0.31463   0.31654

 Mulliken charges:
               1
     1  C   -0.296407
     2  C   -0.299708
     3  C   -0.475716
     4  H    0.140512
     5  H    0.149434
     6  H    0.152294
     7  H    0.154388
     8  H    0.155501
     9  H    0.152790
    10  H    0.162228
    11  C   -0.298179
    12  C   -0.303728
    13  C   -0.475571
    14  H    0.148370
    15  H    0.151596
    16  H    0.153804
    17  H    0.149966
    18  H    0.156388
    19  H    0.152748
    20  H    0.163660
    21  C   -0.173364
    22  C   -0.217182
    23  C   -0.170464
    24  C    0.158137
    25  C   -0.171407
    26  C   -0.214434
    27  H    0.226812
    28  H    0.223795
    29  H    0.276071
    30  H    0.275905
    31  H    0.224254
    32  N    0.487976
    33  O   -0.460262
    34  O   -0.460208
 Sum of Mulliken charges =  -0.00000

 Dipole moment (field-independent basis, Debye):
    X=              4.3399    Y=             -2.4901    Z=              1.3214  Tot=              5.1750
 Quadrupole moment (field-independent basis, Debye-Ang):
   XX=           -121.6932   YY=            -93.6456   ZZ=            -89.4963
   XY=              6.3312   XZ=             -4.6167   YZ=              0.6789

 Normal termination of Gaussian 16 at Wed May  5 15:39:59 2021.
