 Gaussian 16, Revision A.03,
 Gaussian 16:  EM64L-G16RevA.03 25-Dec-2016

 -------------
 #p 6-31g* mp2
 -------------

 ------------------------------------------------------
 Input file generated by CHIRIPA (05-May-2021 14:51:12)
 ------------------------------------------------------
 Symbolic Z-matrix:
 Charge =  0 Multiplicity = 1

                         Standard orientation:
 ---------------------------------------------------------------------
 Center     Atomic      Atomic             Coordinates (Angstroms)
 Number     Number       Type             X           Y           Z
 ---------------------------------------------------------------------
      1          6           0       -2.557983   -0.153824   -0.200550
      2          6           0       -3.853332    0.422181    0.372403
      3          6           0       -4.041327    1.902079    0.037213
      4          1           0       -1.705801    0.422152    0.185431
      5          1           0       -2.556723   -0.020930   -1.291299
      6          1           0       -3.852768    0.286997    1.461596
      7          1           0       -4.702517   -0.155354   -0.014837
      8          1           0       -4.067985    2.051121   -1.047074
      9          1           0       -3.213408    2.495985    0.437747
     10          1           0       -4.973499    2.293405    0.456473
     11          6           0       -2.355864   -1.632393    0.126113
     12          6           0       -1.060515   -2.208398   -0.446840
     13          6           0       -0.872520   -3.688296   -0.111650
     14          1           0       -2.357124   -1.765286    1.216861
     15          1           0       -3.208046   -2.208369   -0.259869
     16          1           0       -0.211330   -1.630863   -0.059601
     17          1           0       -1.061079   -2.073214   -1.536033
     18          1           0       -1.700439   -4.282202   -0.512185
     19          1           0       -0.845862   -3.837338    0.972636
     20          1           0        0.059652   -4.079622   -0.530910
     21          6           0        2.615452    0.237135    0.394988
     22          6           0        3.641746   -0.623302   -0.342815
     23          6           0        3.948472   -1.932323    0.385321
     24          1           0        2.988362    0.456310    1.404862
     25          1           0        1.688283   -0.338665    0.522291
     26          1           0        4.566234   -0.045562   -0.469911
     27          1           0        3.266436   -0.840294   -1.351117
     28          1           0        3.039571   -2.531937    0.499167
     29          1           0        4.346754   -1.732690    1.385380
     30          1           0        4.684404   -2.531857   -0.159492
     31          6           0        2.298395    1.549082   -0.320550
     32          6           0        1.272101    2.409520    0.417253
     33          6           0        0.965375    3.718539   -0.310883
     34          1           0        3.225564    2.124882   -0.447854
     35          1           0        1.925485    1.329908   -1.330425
     36          1           0        1.647411    2.626512    1.425554
     37          1           0        0.347613    1.831779    0.544348
     38          1           0        0.567093    3.518906   -1.310943
     39          1           0        1.874276    4.318155   -0.424729
     40          1           0        0.229443    4.318074    0.233931
 ---------------------------------------------------------------------

 SCF Done:  E(RHF) =  -470.733149418     A.U. after   11 cycles
 E2 =    -0.1584336269D+01 EUMP2 =    -0.47231748568724D+03

 The electronic state is 1-A.
 Alpha  occ. eigenvalues --  -11.21666 -11.21638 -11.21618 -11.21602 -11.21462
 Alpha  occ. eigenvalues --  -11.21408 -11.21403 -11.21349 -11.21132 -11.21092
 Alpha  occ. eigenvalues --  -11.21074 -11.21072  -1.08502  -1.08428  -1.03588
 Alpha  occ. eigenvalues --   -1.03530  -0.96027  -0.95984  -0.87054  -0.86989
 Alpha  occ. eigenvalues --   -0.79678  -0.79575  -0.78408  -0.78166  -0.65319
 Alpha  occ. eigenvalues --   -0.64890  -0.61102  -0.60834  -0.59414  -0.59330
 Alpha  occ. eigenvalues --   -0.57638  -0.57597  -0.55330  -0.55263  -0.52721
 Alpha  occ. eigenvalues --   -0.52678  -0.52497  -0.52373  -0.50078  -0.49833
 Alpha  occ. eigenvalues --   -0.48041  -0.47859  -0.46853  -0.46621  -0.46233
 Alpha  occ. eigenvalues --   -0.45803  -0.45764  -0.45092  -0.43834  -0.43789
 Alpha virt. eigenvalues --    0.19560   0.21950   0.23657   0.24847   0.25543
 Alpha virt. eigenvalues --    0.26526   0.26804   0.27357   0.28500   0.29586
 Alpha virt. eigenvalues --    0.31138   0.31301   0.31486   0.31716   0.31873

 Mulliken charges:
               1
     1  C   -0.306807
     2  C   -0.299231
     3  C   -0.476060
     4  H    0.156834
     5  H    0.149521
     6  H    0.152069
     7  H    0.152193
     8  H    0.155242
     9  H    0.155526
    10  H    0.160430
    11  C   -0.297156
    12  C   -0.309571
    13  C   -0.475775
    14  H    0.149673
    15  H    0.150104
    16  H    0.159769
    17  H    0.151997
    18  H    0.155697
    19  H    0.155496
    20  H    0.160513
    21  C   -0.307103
    22  C   -0.299235
    23  C   -0.476691
    24  H    0.149725
    25  H    0.156897
    26  H    0.152028
    27  H    0.152297
    28  H    0.155801
    29  H    0.155147
    30  H    0.160306
    31  C   -0.297488
    32  C   -0.307242
    33  C   -0.475397
    34  H    0.149681
    35  H    0.150252
    36  H    0.151934
    37  H    0.157498
    38  H    0.155848
    39  H    0.155287
    40  H    0.159991
 Sum of Mulliken charges =  -0.00000

 Dipole moment (field-independent basis, Debye):
    X=             -0.0158    Y=             -0.0046    Z=             -0.0078  Tot=              0.0182
 Quadrupole moment (field-independent basis, Debye-Ang):
   XX=            -84.1081   YY=            -86.5931   ZZ=            -83.9578
   XY=              1.1157   XZ=              0.6217   YZ=              1.0130

 Normal termination of Gaussian 16 at Wed May  5 21:32:26 2021.
