 Gaussian 16, Revision A.03,
 Gaussian 16:  EM64L-G16RevA.03 25-Dec-2016

 -------------
 #p 6-31g* mp2
 -------------

 ------------------------------------------------------
 Input file generated by CHIRIPA (05-May-2021 14:57:23)
 ------------------------------------------------------
 Symbolic Z-matrix:
 Charge =  0 Multiplicity = 1

                         Standard orientation:
 ---------------------------------------------------------------------
 Center     Atomic      Atomic             Coordinates (Angstroms)
 Number     Number       Type             X           Y           Z
 ---------------------------------------------------------------------
      1          6           0       -5.125024   -1.667635   -0.967283
      2          6           0       -5.772548   -0.622026   -0.300998
      3          6           0       -5.039908    0.445805    0.225805
      4          6           0       -3.654947    0.435806    0.067462
      5          6           0       -2.980850   -0.591325   -0.591238
      6          6           0       -3.733694   -1.648980   -1.110025
      7          1           0       -5.702004   -2.493200   -1.373403
      8          1           0       -6.852957   -0.633870   -0.188652
      9          1           0       -5.515654    1.268194    0.746152
     10          1           0       -1.902623   -0.551660   -0.687516
     11          1           0       -3.228141   -2.459660   -1.626995
     12          7           0       -2.868639    1.560885    0.620921
     13          8           0       -1.649519    1.528556    0.468153
     14          8           0       -3.486339    2.453747    1.197011
     15          6           0        2.025631   -1.708283    1.094588
     16          6           0        1.665196   -0.791132    0.101893
     17          6           0        2.631374    0.021750   -0.498332
     18          6           0        3.954584   -0.109435   -0.079769
     19          6           0        4.345038   -1.013753    0.906661
     20          6           0        3.362046   -1.816476    1.493101
     21          1           0        1.268551   -2.335804    1.555502
     22          1           0        0.628086   -0.704945   -0.209587
     23          1           0        2.379993    0.740127   -1.269150
     24          1           0        5.386961   -1.076874    1.196193
     25          1           0        3.644862   -2.527873    2.263798
     26          7           0        4.986334    0.745749   -0.707904
     27          8           0        6.145261    0.610930   -0.321447
     28          8           0        4.616555    1.534670   -1.574797
 ---------------------------------------------------------------------

 SCF Done:  E(RHF) =  -868.337462973     A.U. after   16 cycles
 E2 =    -0.2599639205D+01 EUMP2 =    -0.87093710217822D+03

 The electronic state is 1-A.
 Alpha  occ. eigenvalues --  -20.61527 -20.61492 -20.60400 -20.60390 -15.86561
 Alpha  occ. eigenvalues --  -15.85451 -11.31946 -11.30799 -11.28615 -11.28438
 Alpha  occ. eigenvalues --  -11.28186 -11.27535 -11.27451 -11.27390 -11.27338
 Alpha  occ. eigenvalues --  -11.27160 -11.26426 -11.26408  -1.60576  -1.59473
 Alpha  occ. eigenvalues --   -1.40136  -1.39026  -1.20100  -1.18979  -1.09477
 Alpha  occ. eigenvalues --   -1.08391  -1.05512  -1.04378  -0.96321  -0.95223
 Alpha  occ. eigenvalues --   -0.86907  -0.85793  -0.83158  -0.82053  -0.78230
 Alpha  occ. eigenvalues --   -0.77090  -0.72779  -0.71895  -0.71673  -0.71210
 Alpha  occ. eigenvalues --   -0.70793  -0.70114  -0.65752  -0.65525  -0.64641
 Alpha  occ. eigenvalues --   -0.64412  -0.62882  -0.61715  -0.55979  -0.54926
 Alpha  occ. eigenvalues --   -0.53822  -0.53617  -0.52706  -0.52472  -0.49547
 Alpha  occ. eigenvalues --   -0.49516  -0.48432  -0.48423  -0.45534  -0.44435
 Alpha  occ. eigenvalues --   -0.38049  -0.37111  -0.36976  -0.35961
 Alpha virt. eigenvalues --    0.04327   0.05445   0.10537   0.11681   0.15844
 Alpha virt. eigenvalues --    0.16931   0.18802   0.21923   0.24713   0.27075
 Alpha virt. eigenvalues --    0.28622   0.28909   0.30077   0.30995   0.32455

 Mulliken charges:
               1
     1  C   -0.170114
     2  C   -0.218250
     3  C   -0.169178
     4  C    0.157345
     5  C   -0.175220
     6  C   -0.221554
     7  H    0.228157
     8  H    0.226306
     9  H    0.278029
    10  H    0.275571
    11  H    0.224335
    12  N    0.487985
    13  O   -0.467464
    14  O   -0.455078
    15  C   -0.173223
    16  C   -0.218001
    17  C   -0.171378
    18  C    0.158483
    19  C   -0.171331
    20  C   -0.218483
    21  H    0.222600
    22  H    0.229074
    23  H    0.278441
    24  H    0.274552
    25  H    0.221754
    26  N    0.488133
    27  O   -0.461909
    28  O   -0.459583
 Sum of Mulliken charges =  -0.00000

 Dipole moment (field-independent basis, Debye):
    X=             -6.7226    Y=             -6.8723    Z=              0.2752  Tot=              9.6176
 Quadrupole moment (field-independent basis, Debye-Ang):
   XX=           -106.5742   YY=           -106.9662   ZZ=           -104.4873
   XY=             -1.6986   XZ=             16.7693   YZ=             -1.5640

 Normal termination of Gaussian 16 at Fri May  7 09:27:38 2021.
