 Gaussian 16, Revision A.03,
 Gaussian 16:  EM64L-G16RevA.03 25-Dec-2016

 -------------
 #p 6-31g* mp2
 -------------

 ------------------------------------------------------
 Input file generated by CHIRIPA (05-May-2021 14:53:17)
 ------------------------------------------------------
 Symbolic Z-matrix:
 Charge =  0 Multiplicity = 1

                         Standard orientation:
 ---------------------------------------------------------------------
 Center     Atomic      Atomic             Coordinates (Angstroms)
 Number     Number       Type             X           Y           Z
 ---------------------------------------------------------------------
      1          6           0       -2.967208   -0.743909    0.094300
      2          6           0       -2.111118   -1.080813   -1.127007
      3          6           0       -0.791728   -1.758244   -0.755401
      4          1           0       -2.394509   -0.090490    0.766614
      5          1           0       -3.172729   -1.666259    0.655037
      6          1           0       -1.908432   -0.158301   -1.686030
      7          1           0       -2.685991   -1.733350   -1.796584
      8          1           0       -0.977050   -2.693452   -0.217217
      9          1           0       -0.195073   -1.109454   -0.106035
     10          1           0       -0.195505   -1.990254   -1.643403
     11          6           0       -4.289419   -0.066230   -0.260998
     12          6           0       -5.145509    0.270675    0.960309
     13          6           0       -6.464898    0.948105    0.588702
     14          1           0       -4.083898    0.856121   -0.821735
     15          1           0       -4.862117   -0.719648   -0.933312
     16          1           0       -4.570636    0.923212    1.629885
     17          1           0       -5.348195   -0.651837    1.519331
     18          1           0       -7.061554    0.299316   -0.060664
     19          1           0       -6.279576    1.883314    0.050518
     20          1           0       -7.061122    1.180115    1.476705
     21          6           0        3.431421   -2.045931    0.719991
     22          6           0        2.932762   -1.778920   -0.559293
     23          6           0        2.598782   -0.473803   -0.933024
     24          6           0        2.776923    0.544848    0.001805
     25          6           0        3.271551    0.310711    1.283918
     26          6           0        3.598930   -1.002103    1.635898
     27          1           0        3.688301   -3.062766    1.001866
     28          1           0        2.801633   -2.587596   -1.272660
     29          1           0        2.210796   -0.238950   -1.916757
     30          1           0        3.391304    1.137637    1.973317
     31          1           0        3.985991   -1.206518    2.630103
     32          7           0        2.426849    1.930591   -0.382333
     33          8           0        2.593046    2.810464    0.459592
     34          8           0        1.992890    2.110624   -1.518073
 ---------------------------------------------------------------------

 SCF Done:  E(RHF) =  -669.534671748     A.U. after   15 cycles
 E2 =    -0.2092374399D+01 EUMP2 =    -0.67162704614676D+03

 The electronic state is 1-A.
 Alpha  occ. eigenvalues --  -20.60787 -20.60781 -15.85840 -11.31175 -11.27756
 Alpha  occ. eigenvalues --  -11.27733 -11.27486 -11.26753 -11.26722 -11.21579
 Alpha  occ. eigenvalues --  -11.21479 -11.21338 -11.21244 -11.21237 -11.20933
 Alpha  occ. eigenvalues --   -1.59864  -1.39418  -1.19361  -1.08753  -1.08362
 Alpha  occ. eigenvalues --   -1.04762  -1.03494  -0.95971  -0.95588  -0.86991
 Alpha  occ. eigenvalues --   -0.86152  -0.82424  -0.79562  -0.78165  -0.77473
 Alpha  occ. eigenvalues --   -0.72057  -0.71192  -0.70465  -0.65011  -0.64985
 Alpha  occ. eigenvalues --   -0.64751  -0.62117  -0.60895  -0.59348  -0.57572
 Alpha  occ. eigenvalues --   -0.55318  -0.55249  -0.53270  -0.52843  -0.52583
 Alpha  occ. eigenvalues --   -0.52304  -0.49859  -0.48814  -0.48813  -0.47875
 Alpha  occ. eigenvalues --   -0.46567  -0.45713  -0.45619  -0.44826  -0.43765
 Alpha  occ. eigenvalues --   -0.37342  -0.36257
 Alpha virt. eigenvalues --    0.05058   0.11255   0.16501   0.20960   0.22964
 Alpha virt. eigenvalues --    0.24194   0.26458   0.26729   0.27581   0.28116
 Alpha virt. eigenvalues --    0.28628   0.30651   0.31356   0.31915   0.32406

 Mulliken charges:
               1
     1  C   -0.298551
     2  C   -0.301436
     3  C   -0.475194
     4  H    0.151480
     5  H    0.147403
     6  H    0.158063
     7  H    0.150523
     8  H    0.152116
     9  H    0.161404
    10  H    0.149368
    11  C   -0.298836
    12  C   -0.299797
    13  C   -0.475849
    14  H    0.152889
    15  H    0.148724
    16  H    0.153182
    17  H    0.150448
    18  H    0.154487
    19  H    0.156750
    20  H    0.159947
    21  C   -0.171303
    22  C   -0.213865
    23  C   -0.168604
    24  C    0.157066
    25  C   -0.171762
    26  C   -0.218753
    27  H    0.225670
    28  H    0.223524
    29  H    0.275496
    30  H    0.275460
    31  H    0.223330
    32  N    0.488024
    33  O   -0.460626
    34  O   -0.460778
 Sum of Mulliken charges =  -0.00000

 Dipole moment (field-independent basis, Debye):
    X=              1.2438    Y=             -4.8349    Z=              1.3635  Tot=              5.1752
 Quadrupole moment (field-independent basis, Debye-Ang):
   XX=            -89.0754   YY=            -99.7549   ZZ=            -90.8656
   XY=            -11.9614   XZ=              5.2164   YZ=              2.4039

 Normal termination of Gaussian 16 at Wed May  5 18:47:48 2021.
