 Gaussian 16, Revision A.03,
 Gaussian 16:  EM64L-G16RevA.03 25-Dec-2016

 -------------
 #p 6-31g* mp2
 -------------

 ------------------------------------------------------
 Input file generated by CHIRIPA (05-May-2021 14:57:21)
 ------------------------------------------------------
 Symbolic Z-matrix:
 Charge =  0 Multiplicity = 1

                         Standard orientation:
 ---------------------------------------------------------------------
 Center     Atomic      Atomic             Coordinates (Angstroms)
 Number     Number       Type             X           Y           Z
 ---------------------------------------------------------------------
      1          6           0       -4.229624   -2.319231   -0.497533
      2          6           0       -3.011207   -1.796847   -0.943735
      3          6           0       -2.692701   -0.453009   -0.726478
      4          6           0       -3.620091    0.343535   -0.056587
      5          6           0       -4.842225   -0.147518    0.400083
      6          6           0       -5.139640   -1.494353    0.171772
      7          1           0       -4.468855   -3.364321   -0.670597
      8          1           0       -2.302561   -2.435118   -1.463808
      9          1           0       -1.756675   -0.022645   -1.061231
     10          1           0       -5.528447    0.513401    0.915548
     11          1           0       -6.086636   -1.897323    0.519418
     12          7           0       -3.294068    1.767784    0.179264
     13          8           0       -4.128147    2.448722    0.771947
     14          8           0       -2.210624    2.176203   -0.233023
     15          6           0        1.197121   -0.427506    0.456416
     16          6           0        1.663467    0.680887   -0.258081
     17          6           0        3.033584    0.867584   -0.464170
     18          6           0        3.913263   -0.077991    0.060562
     19          6           0        3.479534   -1.192576    0.776711
     20          6           0        2.105042   -1.359058    0.970625
     21          1           0        0.131082   -0.564685    0.611781
     22          1           0        0.960667    1.405957   -0.658571
     23          1           0        3.421883    1.716608   -1.013534
     24          1           0        4.204393   -1.898357    1.163842
     25          1           0        1.745729   -2.220800    1.525908
     26          7           0        5.366060    0.108956   -0.151171
     27          8           0        6.120566   -0.738451    0.321332
     28          8           0        5.722747    1.099352   -0.785619
 ---------------------------------------------------------------------

 SCF Done:  E(RHF) =  -868.338518236     A.U. after   16 cycles
 E2 =    -0.2600371667D+01 EUMP2 =    -0.87093888990227D+03

 The electronic state is 1-A.
 Alpha  occ. eigenvalues --  -20.61890 -20.61839 -20.60640 -20.60630 -15.86912
 Alpha  occ. eigenvalues --  -15.85687 -11.32259 -11.31048 -11.28863 -11.28731
 Alpha  occ. eigenvalues --  -11.28458 -11.27821 -11.27739 -11.27625 -11.27539
 Alpha  occ. eigenvalues --  -11.27336 -11.26682 -11.26489  -1.60925  -1.59712
 Alpha  occ. eigenvalues --   -1.40486  -1.39266  -1.20403  -1.19206  -1.09783
 Alpha  occ. eigenvalues --   -1.08613  -1.05802  -1.04590  -0.96634  -0.95453
 Alpha  occ. eigenvalues --   -0.87192  -0.85989  -0.83468  -0.82271  -0.78543
 Alpha  occ. eigenvalues --   -0.77308  -0.73130  -0.72245  -0.71906  -0.71518
 Alpha  occ. eigenvalues --   -0.71034  -0.70328  -0.66047  -0.65780  -0.64853
 Alpha  occ. eigenvalues --   -0.64567  -0.63139  -0.61913  -0.56263  -0.55173
 Alpha  occ. eigenvalues --   -0.54085  -0.53847  -0.52941  -0.52657  -0.49897
 Alpha  occ. eigenvalues --   -0.49858  -0.48663  -0.48661  -0.45891  -0.44672
 Alpha  occ. eigenvalues --   -0.38347  -0.37415  -0.37202  -0.36192
 Alpha virt. eigenvalues --    0.03945   0.05185   0.10151   0.11409   0.15490
 Alpha virt. eigenvalues --    0.16655   0.19703   0.21900   0.25485   0.26763
 Alpha virt. eigenvalues --    0.27932   0.28994   0.30093   0.30898   0.31456

 Mulliken charges:
               1
     1  C   -0.170353
     2  C   -0.220734
     3  C   -0.180068
     4  C    0.159756
     5  C   -0.170107
     6  C   -0.217294
     7  H    0.229362
     8  H    0.226938
     9  H    0.272474
    10  H    0.278626
    11  H    0.227496
    12  N    0.490316
    13  O   -0.453557
    14  O   -0.469127
    15  C   -0.178159
    16  C   -0.226143
    17  C   -0.171284
    18  C    0.158878
    19  C   -0.171881
    20  C   -0.219612
    21  H    0.224247
    22  H    0.240680
    23  H    0.277174
    24  H    0.274484
    25  H    0.220902
    26  N    0.487961
    27  O   -0.461421
    28  O   -0.459553
 Sum of Mulliken charges =  -0.00000

 Dipole moment (field-independent basis, Debye):
    X=             -6.6549    Y=             -5.6156    Z=             -0.0872  Tot=              8.7080
 Quadrupole moment (field-independent basis, Debye-Ang):
   XX=           -131.6689   YY=           -104.9986   ZZ=           -103.5762
   XY=             14.7798   XZ=              3.7028   YZ=             -2.1051

 Normal termination of Gaussian 16 at Thu May  6 19:26:14 2021.
