 Gaussian 16, Revision A.03,
 Gaussian 16:  EM64L-G16RevA.03 25-Dec-2016

 -------------
 #p 6-31g* mp2
 -------------

 ------------------------------------------------------
 Input file generated by CHIRIPA (05-May-2021 14:53:17)
 ------------------------------------------------------
 Symbolic Z-matrix:
 Charge =  0 Multiplicity = 1

                         Standard orientation:
 ---------------------------------------------------------------------
 Center     Atomic      Atomic             Coordinates (Angstroms)
 Number     Number       Type             X           Y           Z
 ---------------------------------------------------------------------
      1          6           0       -2.827380    1.042195    0.332206
      2          6           0       -1.950149    2.203719   -0.136104
      3          6           0       -1.873270    3.336668    0.887766
      4          1           0       -3.838379    1.416596    0.543512
      5          1           0       -2.433204    0.653677    1.281455
      6          1           0       -2.345054    2.589035   -1.084892
      7          1           0       -0.941173    1.826474   -0.346504
      8          1           0       -1.458506    2.973585    1.833674
      9          1           0       -2.870364    3.740479    1.091091
     10          1           0       -1.241151    4.156523    0.532627
     11          6           0       -2.914099   -0.098163   -0.680607
     12          6           0       -3.791330   -1.259687   -0.212297
     13          6           0       -3.868209   -2.392636   -1.236167
     14          1           0       -3.308275    0.290355   -1.629856
     15          1           0       -1.903100   -0.472565   -0.891913
     16          1           0       -4.800306   -0.882442   -0.001898
     17          1           0       -3.396425   -1.645003    0.736491
     18          1           0       -2.871115   -2.796447   -1.439492
     19          1           0       -4.282973   -2.029554   -2.182076
     20          1           0       -4.500327   -3.212491   -0.881028
     21          6           0        1.097290   -2.282540    1.315612
     22          6           0        2.190126   -2.529839    0.478311
     23          6           0        2.832497   -1.477155   -0.180297
     24          6           0        2.353506   -0.183746    0.022063
     25          6           0        1.267064    0.094779    0.849927
     26          6           0        0.640053   -0.973329    1.498426
     27          1           0        0.604247   -3.106281    1.823309
     28          1           0        2.547389   -3.545573    0.334466
     29          1           0        3.680631   -1.640251   -0.834121
     30          1           0        0.933764    1.118024    0.973615
     31          1           0       -0.208438   -0.778301    2.148098
     32          7           0        3.025424    0.938848   -0.669825
     33          8           0        2.584151    2.069301   -0.474910
     34          8           0        3.980624    0.667028   -1.393941
 ---------------------------------------------------------------------

 SCF Done:  E(RHF) =  -669.535365726     A.U. after   15 cycles
 E2 =    -0.2093348651D+01 EUMP2 =    -0.67162871437716D+03

 The electronic state is 1-A.
 Alpha  occ. eigenvalues --  -20.60838 -20.60833 -15.85887 -11.31269 -11.27840
 Alpha  occ. eigenvalues --  -11.27829 -11.27587 -11.26868 -11.26852 -11.22065
 Alpha  occ. eigenvalues --  -11.21874 -11.21806 -11.21707 -11.21477 -11.21288
 Alpha  occ. eigenvalues --   -1.59909  -1.39462  -1.19451  -1.08846  -1.08814
 Alpha  occ. eigenvalues --   -1.04857  -1.03883  -0.96327  -0.95670  -0.87341
 Alpha  occ. eigenvalues --   -0.86251  -0.82500  -0.79939  -0.78630  -0.77551
 Alpha  occ. eigenvalues --   -0.72106  -0.71231  -0.70566  -0.65523  -0.65089
 Alpha  occ. eigenvalues --   -0.64868  -0.62263  -0.61204  -0.59678  -0.57917
 Alpha  occ. eigenvalues --   -0.55657  -0.55342  -0.53182  -0.52999  -0.52948
 Alpha  occ. eigenvalues --   -0.52716  -0.50290  -0.48867  -0.48860  -0.48241
 Alpha  occ. eigenvalues --   -0.46987  -0.46169  -0.46094  -0.44852  -0.44131
 Alpha  occ. eigenvalues --   -0.37424  -0.36425
 Alpha virt. eigenvalues --    0.04942   0.11089   0.16372   0.19057   0.23119
 Alpha virt. eigenvalues --    0.23430   0.25032   0.26474   0.27337   0.28469
 Alpha virt. eigenvalues --    0.29658   0.30761   0.31270   0.31562   0.31753

 Mulliken charges:
               1
     1  C   -0.297533
     2  C   -0.307260
     3  C   -0.476595
     4  H    0.152137
     5  H    0.137906
     6  H    0.157288
     7  H    0.156082
     8  H    0.147098
     9  H    0.156274
    10  H    0.169971
    11  C   -0.301091
    12  C   -0.298095
    13  C   -0.476042
    14  H    0.152717
    15  H    0.153194
    16  H    0.153506
    17  H    0.144421
    18  H    0.154685
    19  H    0.157842
    20  H    0.159839
    21  C   -0.171526
    22  C   -0.218414
    23  C   -0.170591
    24  C    0.157854
    25  C   -0.173995
    26  C   -0.220557
    27  H    0.226307
    28  H    0.223931
    29  H    0.275974
    30  H    0.281052
    31  H    0.225931
    32  N    0.488463
    33  O   -0.460929
    34  O   -0.459846
 Sum of Mulliken charges =  -0.00000

 Dipole moment (field-independent basis, Debye):
    X=             -2.3439    Y=             -3.8799    Z=              2.3023  Tot=              5.0841
 Quadrupole moment (field-independent basis, Debye-Ang):
   XX=           -103.5626   YY=            -91.7341   ZZ=            -94.7029
   XY=            -12.0656   XZ=              4.7584   YZ=              0.0634

 Normal termination of Gaussian 16 at Wed May  5 18:46:09 2021.
