 Gaussian 16, Revision A.03,
 Gaussian 16:  EM64L-G16RevA.03 25-Dec-2016

 -------------
 #p 6-31g* mp2
 -------------

 ------------------------------------------------------
 Input file generated by CHIRIPA (05-May-2021 14:51:11)
 ------------------------------------------------------
 Symbolic Z-matrix:
 Charge =  0 Multiplicity = 1

                         Standard orientation:
 ---------------------------------------------------------------------
 Center     Atomic      Atomic             Coordinates (Angstroms)
 Number     Number       Type             X           Y           Z
 ---------------------------------------------------------------------
      1          6           0        2.984445   -0.353934   -0.431953
      2          6           0        4.263009    0.251297    0.148525
      3          6           0        4.850215    1.352057   -0.735393
      4          1           0        3.198531   -0.758750   -1.430570
      5          1           0        2.240158    0.442458   -0.570488
      6          1           0        5.004181   -0.546226    0.287217
      7          1           0        4.045899    0.654549    1.145956
      8          1           0        4.131012    2.167381   -0.864211
      9          1           0        5.094739    0.959783   -1.727829
     10          1           0        5.763639    1.770780   -0.301587
     11          6           0        2.385486   -1.455773    0.440359
     12          6           0        1.106922   -2.061003   -0.140120
     13          6           0        0.519716   -3.161763    0.743798
     14          1           0        3.129772   -2.252165    0.578893
     15          1           0        2.171400   -1.050956    1.438976
     16          1           0        1.324032   -2.464255   -1.137550
     17          1           0        0.365749   -1.263480   -0.278811
     18          1           0        0.275191   -2.769490    1.736235
     19          1           0        1.238919   -3.977087    0.872616
     20          1           0       -0.393708   -3.580487    0.309993
     21          6           0       -3.347206    0.567577    0.172191
     22          6           0       -3.702746   -0.593522   -0.757015
     23          6           0       -5.030305   -1.258116   -0.391367
     24          1           0       -3.302447    0.200496    1.206692
     25          1           0       -4.153059    1.313871    0.139933
     26          1           0       -2.895817   -1.336755   -0.724070
     27          1           0       -3.746476   -0.223674   -1.789446
     28          1           0       -5.850340   -0.534576   -0.442682
     29          1           0       -4.994846   -1.653982    0.628748
     30          1           0       -5.264976   -2.085442   -1.068362
     31          6           0       -2.022725    1.242129   -0.180597
     32          6           0       -1.667184    2.403228    0.748609
     33          6           0       -0.339626    3.067823    0.382961
     34          1           0       -1.216871    0.495835   -0.148339
     35          1           0       -2.067484    1.609210   -1.215098
     36          1           0       -1.623455    2.033379    1.781041
     37          1           0       -2.474114    3.146461    0.715664
     38          1           0       -0.375084    3.463688   -0.637154
     39          1           0        0.480409    2.344283    0.434277
     40          1           0       -0.104955    3.895148    1.059956
 ---------------------------------------------------------------------

 SCF Done:  E(RHF) =  -470.733343816     A.U. after   11 cycles
 E2 =    -0.1583818027D+01 EUMP2 =    -0.47231716184298D+03

 The electronic state is 1-A.
 Alpha  occ. eigenvalues --  -11.21660 -11.21635 -11.21616 -11.21606 -11.21438
 Alpha  occ. eigenvalues --  -11.21434 -11.21378 -11.21372 -11.21151 -11.21129
 Alpha  occ. eigenvalues --  -11.21079 -11.21055  -1.08487  -1.08443  -1.03568
 Alpha  occ. eigenvalues --   -1.03555  -0.96026  -0.95997  -0.87049  -0.87006
 Alpha  occ. eigenvalues --   -0.79642  -0.79613  -0.78372  -0.78185  -0.65281
 Alpha  occ. eigenvalues --   -0.64933  -0.60968  -0.60959  -0.59390  -0.59370
 Alpha  occ. eigenvalues --   -0.57657  -0.57587  -0.55395  -0.55210  -0.52716
 Alpha  occ. eigenvalues --   -0.52693  -0.52494  -0.52382  -0.50069  -0.49846
 Alpha  occ. eigenvalues --   -0.47984  -0.47929  -0.46822  -0.46653  -0.46117
 Alpha  occ. eigenvalues --   -0.45789  -0.45785  -0.45194  -0.43822  -0.43807
 Alpha virt. eigenvalues --    0.19457   0.22106   0.24052   0.24397   0.25418
 Alpha virt. eigenvalues --    0.26902   0.27058   0.27328   0.27856   0.29537
 Alpha virt. eigenvalues --    0.30898   0.31606   0.31671   0.31778   0.32080

 Mulliken charges:
               1
     1  C   -0.303203
     2  C   -0.299479
     3  C   -0.475987
     4  H    0.150094
     5  H    0.153424
     6  H    0.151973
     7  H    0.151892
     8  H    0.155970
     9  H    0.155117
    10  H    0.160245
    11  C   -0.297578
    12  C   -0.310179
    13  C   -0.475661
    14  H    0.149910
    15  H    0.149091
    16  H    0.152683
    17  H    0.160480
    18  H    0.154778
    19  H    0.155732
    20  H    0.160322
    21  C   -0.297542
    22  C   -0.300945
    23  C   -0.475768
    24  H    0.149588
    25  H    0.149726
    26  H    0.152966
    27  H    0.152048
    28  H    0.155220
    29  H    0.155355
    30  H    0.160315
    31  C   -0.308822
    32  C   -0.298919
    33  C   -0.479653
    34  H    0.158779
    35  H    0.149977
    36  H    0.151759
    37  H    0.152435
    38  H    0.155741
    39  H    0.157369
    40  H    0.160750
 Sum of Mulliken charges =  -0.00000

 Dipole moment (field-independent basis, Debye):
    X=             -0.0053    Y=              0.0056    Z=             -0.0113  Tot=              0.0136
 Quadrupole moment (field-independent basis, Debye-Ang):
   XX=            -85.3586   YY=            -84.8379   ZZ=            -84.4412
   XY=             -1.7295   XZ=              0.4308   YZ=              0.4648

 Normal termination of Gaussian 16 at Wed May  5 19:52:21 2021.
