 Gaussian 16, Revision A.03,
 Gaussian 16:  EM64L-G16RevA.03 25-Dec-2016

 -------------
 #p 6-31g* mp2
 -------------

 ------------------------------------------------------
 Input file generated by CHIRIPA (05-May-2021 14:57:24)
 ------------------------------------------------------
 Symbolic Z-matrix:
 Charge =  0 Multiplicity = 1

                         Standard orientation:
 ---------------------------------------------------------------------
 Center     Atomic      Atomic             Coordinates (Angstroms)
 Number     Number       Type             X           Y           Z
 ---------------------------------------------------------------------
      1          6           0        4.129628   -1.629882   -0.871055
      2          6           0        4.305563   -0.351221   -1.410124
      3          6           0        3.654213    0.751473   -0.849448
      4          6           0        2.830542    0.538312    0.254824
      5          6           0        2.635052   -0.723293    0.814671
      6          6           0        3.296402   -1.811516    0.237667
      7          1           0        4.639496   -2.480860   -1.312943
      8          1           0        4.952057   -0.207184   -2.271138
      9          1           0        3.772592    1.752272   -1.246696
     10          1           0        1.984268   -0.835501    1.673338
     11          1           0        3.157900   -2.803398    0.658421
     12          7           0        2.135693    1.698025    0.857029
     13          8           0        1.415380    1.483740    1.829587
     14          8           0        2.324541    2.799332    0.345078
     15          6           0       -5.048001    0.999193   -0.517312
     16          6           0       -5.056007   -0.088980    0.361513
     17          6           0       -3.896660   -0.842067    0.569661
     18          6           0       -2.741757   -0.477339   -0.120602
     19          6           0       -2.702052    0.601374   -1.002697
     20          6           0       -3.873120    1.340297   -1.195417
     21          1           0       -5.953162    1.578707   -0.673015
     22          1           0       -5.966987   -0.356187    0.889492
     23          1           0       -3.874863   -1.689313    1.244283
     24          1           0       -1.778682    0.843494   -1.514735
     25          1           0       -3.863968    2.184882   -1.878526
     26          7           0       -1.508204   -1.267100    0.091589
     27          8           0       -0.503617   -0.925306   -0.528588
     28          8           0       -1.569290   -2.212954    0.874062
 ---------------------------------------------------------------------

 SCF Done:  E(RHF) =  -868.339612292     A.U. after   16 cycles
 E2 =    -0.2599566926D+01 EUMP2 =    -0.87093917921761D+03

 The electronic state is 1-A.
 Alpha  occ. eigenvalues --  -20.60848 -20.60838 -20.59881 -20.59861 -15.85869
 Alpha  occ. eigenvalues --  -15.84916 -11.31003 -11.29934 -11.27573 -11.27537
 Alpha  occ. eigenvalues --  -11.27283 -11.26626 -11.26550 -11.26513 -11.26451
 Alpha  occ. eigenvalues --  -11.26317 -11.25591 -11.25413  -1.59907  -1.58950
 Alpha  occ. eigenvalues --   -1.39469  -1.38514  -1.19161  -1.18124  -1.08607
 Alpha  occ. eigenvalues --   -1.07606  -1.04538  -1.03497  -0.95482  -0.94490
 Alpha  occ. eigenvalues --   -0.85951  -0.84936  -0.82327  -0.81344  -0.77394
 Alpha  occ. eigenvalues --   -0.76405  -0.72125  -0.71213  -0.71153  -0.70294
 Alpha  occ. eigenvalues --   -0.70228  -0.69313  -0.64829  -0.64555  -0.63816
 Alpha  occ. eigenvalues --   -0.63553  -0.61894  -0.60876  -0.55071  -0.54099
 Alpha  occ. eigenvalues --   -0.52869  -0.52641  -0.51831  -0.51632  -0.48876
 Alpha  occ. eigenvalues --   -0.48835  -0.47921  -0.47885  -0.44944  -0.43987
 Alpha  occ. eigenvalues --   -0.37135  -0.36131  -0.36098  -0.35005
 Alpha virt. eigenvalues --    0.05125   0.06138   0.11535   0.12616   0.16678
 Alpha virt. eigenvalues --    0.17662   0.21640   0.22532   0.27559   0.28446
 Alpha virt. eigenvalues --    0.28524   0.29391   0.31186   0.32023   0.32731

 Mulliken charges:
               1
     1  C   -0.170130
     2  C   -0.219950
     3  C   -0.172513
     4  C    0.159090
     5  C   -0.147983
     6  C   -0.216509
     7  H    0.221244
     8  H    0.217492
     9  H    0.269578
    10  H    0.276991
    11  H    0.223517
    12  N    0.488464
    13  O   -0.462873
    14  O   -0.468275
    15  C   -0.169905
    16  C   -0.218551
    17  C   -0.170091
    18  C    0.160045
    19  C   -0.167238
    20  C   -0.218055
    21  H    0.225590
    22  H    0.222849
    23  H    0.274265
    24  H    0.276062
    25  H    0.224504
    26  N    0.490955
    27  O   -0.464105
    28  O   -0.464469
 Sum of Mulliken charges =  -0.00000

 Dipole moment (field-independent basis, Debye):
    X=             -2.1951    Y=             -1.4410    Z=             -2.7926  Tot=              3.8332
 Quadrupole moment (field-independent basis, Debye-Ang):
   XX=            -67.0936   YY=           -109.6112   ZZ=           -102.4497
   XY=            -13.7121   XZ=             -5.9191   YZ=             -6.9516

 Normal termination of Gaussian 16 at Thu May  6 14:42:01 2021.
