 Gaussian 16, Revision A.03,
 Gaussian 16:  EM64L-G16RevA.03 25-Dec-2016

 -------------
 #p 6-31g* mp2
 -------------

 ------------------------------------------------------
 Input file generated by CHIRIPA (05-May-2021 14:55:20)
 ------------------------------------------------------
 Symbolic Z-matrix:
 Charge =  0 Multiplicity = 1

                         Standard orientation:
 ---------------------------------------------------------------------
 Center     Atomic      Atomic             Coordinates (Angstroms)
 Number     Number       Type             X           Y           Z
 ---------------------------------------------------------------------
      1          6           0       -3.040063    2.200357    0.461716
      2          6           0       -2.074386    1.703978   -0.420099
      3          6           0       -2.004056    0.335877   -0.699204
      4          6           0       -2.919201   -0.511185   -0.076078
      5          6           0       -3.892789   -0.047063    0.807102
      6          6           0       -3.944588    1.324796    1.071427
      7          1           0       -3.087499    3.264591    0.672791
      8          1           0       -1.370631    2.381613   -0.895057
      9          1           0       -1.266575   -0.075256   -1.377812
     10          1           0       -4.580738   -0.747201    1.265306
     11          1           0       -4.695605    1.707476    1.756682
     12          7           0       -2.854555   -1.961521   -0.363731
     13          8           0       -3.672273   -2.686982    0.198126
     14          8           0       -1.987393   -2.345373   -1.145603
     15          6           0        3.625729    1.070948   -0.177295
     16          6           0        2.151337    1.472922   -0.126605
     17          6           0        1.918338    2.921304   -0.557530
     18          1           0        4.205344    1.744854    0.468339
     19          1           0        4.003124    1.215707   -1.199064
     20          1           0        1.776467    1.326138    0.894445
     21          1           0        1.575137    0.797861   -0.772286
     22          1           0        2.265619    3.078500   -1.583828
     23          1           0        2.468094    3.609777    0.092372
     24          1           0        0.857637    3.187496   -0.513776
     25          6           0        3.874701   -0.374240    0.250689
     26          6           0        5.349094   -0.776215    0.199999
     27          6           0        5.582091   -2.224596    0.630924
     28          1           0        3.497305   -0.519000    1.272458
     29          1           0        3.295086   -1.048146   -0.394946
     30          1           0        5.925292   -0.101154    0.845679
     31          1           0        5.723962   -0.629430   -0.821052
     32          1           0        5.032336   -2.913069   -0.018980
     33          1           0        5.234810   -2.381791    1.657221
     34          1           0        6.642793   -2.490788    0.587168
 ---------------------------------------------------------------------

 SCF Done:  E(RHF) =  -669.535453097     A.U. after   15 cycles
 E2 =    -0.2091474276D+01 EUMP2 =    -0.67162692737289D+03

 The electronic state is 1-A.
 Alpha  occ. eigenvalues --  -20.60754 -20.60749 -15.85807 -11.31167 -11.27743
 Alpha  occ. eigenvalues --  -11.27737 -11.27482 -11.26756 -11.26728 -11.22168
 Alpha  occ. eigenvalues --  -11.21882 -11.21719 -11.21661 -11.21490 -11.21025
 Alpha  occ. eigenvalues --   -1.59829  -1.39383  -1.19342  -1.08742  -1.08710
 Alpha  occ. eigenvalues --   -1.04746  -1.03856  -0.96313  -0.95574  -0.87333
 Alpha  occ. eigenvalues --   -0.86143  -0.82406  -0.79931  -0.78473  -0.77455
 Alpha  occ. eigenvalues --   -0.72026  -0.71151  -0.70453  -0.65341  -0.64994
 Alpha  occ. eigenvalues --   -0.64784  -0.62156  -0.61238  -0.59710  -0.57905
 Alpha  occ. eigenvalues --   -0.55579  -0.55246  -0.53201  -0.53056  -0.52878
 Alpha  occ. eigenvalues --   -0.52530  -0.50232  -0.48786  -0.48781  -0.48235
 Alpha  occ. eigenvalues --   -0.46954  -0.46024  -0.45916  -0.44789  -0.44099
 Alpha  occ. eigenvalues --   -0.37322  -0.36334
 Alpha virt. eigenvalues --    0.05068   0.11253   0.16492   0.19719   0.22861
 Alpha virt. eigenvalues --    0.23980   0.25497   0.26241   0.26834   0.28329
 Alpha virt. eigenvalues --    0.28934   0.29785   0.31265   0.31529   0.32311

 Mulliken charges:
               1
     1  C   -0.172118
     2  C   -0.221435
     3  C   -0.172178
     4  C    0.158565
     5  C   -0.170886
     6  C   -0.218589
     7  H    0.225601
     8  H    0.229767
     9  H    0.275995
    10  H    0.275531
    11  H    0.223333
    12  N    0.488147
    13  O   -0.460521
    14  O   -0.460643
    15  C   -0.298757
    16  C   -0.300385
    17  C   -0.478635
    18  H    0.150242
    19  H    0.150289
    20  H    0.155408
    21  H    0.149064
    22  H    0.157748
    23  H    0.159373
    24  H    0.149281
    25  C   -0.299544
    26  C   -0.300020
    27  C   -0.476189
    28  H    0.150621
    29  H    0.153707
    30  H    0.151196
    31  H    0.152031
    32  H    0.157907
    33  H    0.155760
    34  H    0.160331
 Sum of Mulliken charges =  -0.00000

 Dipole moment (field-independent basis, Debye):
    X=             -0.1044    Y=              5.0457    Z=              1.0550  Tot=              5.1559
 Quadrupole moment (field-independent basis, Debye-Ang):
   XX=            -90.4198   YY=           -101.5626   ZZ=            -92.7031
   XY=            -13.9747   XZ=             -5.7453   YZ=             -0.7675

 Normal termination of Gaussian 16 at Thu May  6 02:57:09 2021.
