 Gaussian 16, Revision A.03,
 Gaussian 16:  EM64L-G16RevA.03 25-Dec-2016

 -------------
 #p 6-31g* mp2
 -------------

 ------------------------------------------------------
 Input file generated by CHIRIPA (05-May-2021 14:53:11)
 ------------------------------------------------------
 Symbolic Z-matrix:
 Charge =  0 Multiplicity = 1

                         Standard orientation:
 ---------------------------------------------------------------------
 Center     Atomic      Atomic             Coordinates (Angstroms)
 Number     Number       Type             X           Y           Z
 ---------------------------------------------------------------------
      1          6           0        3.124542    1.017681    0.363124
      2          6           0        2.502050    2.055183   -0.571798
      3          6           0        2.457314    3.454132    0.043614
      4          1           0        2.553265    0.989097    1.301085
      5          1           0        4.142647    1.335998    0.626810
      6          1           0        1.485923    1.734308   -0.834747
      7          1           0        3.074760    2.081163   -1.507717
      8          1           0        3.466724    3.799057    0.290025
      9          1           0        1.868860    3.450232    0.966819
     10          1           0        2.008593    4.180022   -0.641655
     11          6           0        3.176314   -0.385779   -0.238000
     12          6           0        3.798806   -1.423281    0.696921
     13          6           0        3.843542   -2.822230    0.081509
     14          1           0        2.158209   -0.704096   -0.501687
     15          1           0        3.747591   -0.357195   -1.175961
     16          1           0        3.226096   -1.449261    1.632840
     17          1           0        4.814932   -1.102406    0.959870
     18          1           0        4.431996   -2.818330   -0.841696
     19          1           0        2.834132   -3.167156   -0.164902
     20          1           0        4.292263   -3.548120    0.766778
     21          6           0       -1.875088   -2.689896   -0.280774
     22          6           0       -3.151457   -2.314182    0.150783
     23          6           0       -3.487289   -0.963512    0.282913
     24          6           0       -2.517942   -0.010651   -0.026457
     25          6           0       -1.237739   -0.353355   -0.458804
     26          6           0       -0.923979   -1.710010   -0.583656
     27          1           0       -1.622779   -3.741453   -0.380588
     28          1           0       -3.892111   -3.073007    0.386709
     29          1           0       -4.467890   -0.644739    0.614914
     30          1           0       -0.520599    0.425908   -0.686578
     31          1           0        0.068055   -1.998869   -0.919028
     32          7           0       -2.861789    1.422411    0.109570
     33          8           0       -1.989910    2.242612   -0.169240
     34          8           0       -3.996663    1.698308    0.492423
 ---------------------------------------------------------------------

 SCF Done:  E(RHF) =  -669.535145019     A.U. after   15 cycles
 E2 =    -0.2092905652D+01 EUMP2 =    -0.67162805067094D+03

 The electronic state is 1-A.
 Alpha  occ. eigenvalues --  -20.60786 -20.60781 -15.85836 -11.31193 -11.27765
 Alpha  occ. eigenvalues --  -11.27749 -11.27503 -11.26778 -11.26755 -11.22192
 Alpha  occ. eigenvalues --  -11.22055 -11.21801 -11.21773 -11.21681 -11.20835
 Alpha  occ. eigenvalues --   -1.59860  -1.39414  -1.19367  -1.08878  -1.08762
 Alpha  occ. eigenvalues --   -1.04772  -1.03865  -0.96311  -0.95600  -0.87324
 Alpha  occ. eigenvalues --   -0.86171  -0.82438  -0.79967  -0.78697  -0.77470
 Alpha  occ. eigenvalues --   -0.72057  -0.71182  -0.70487  -0.65557  -0.65013
 Alpha  occ. eigenvalues --   -0.64800  -0.62109  -0.61245  -0.59712  -0.57910
 Alpha  occ. eigenvalues --   -0.55616  -0.55275  -0.53098  -0.52973  -0.52901
 Alpha  occ. eigenvalues --   -0.52703  -0.50252  -0.48817  -0.48813  -0.48255
 Alpha  occ. eigenvalues --   -0.47010  -0.46201  -0.46096  -0.44821  -0.44136
 Alpha  occ. eigenvalues --   -0.37347  -0.36367
 Alpha virt. eigenvalues --    0.05041   0.11262   0.16469   0.18677   0.22555
 Alpha virt. eigenvalues --    0.23224   0.24758   0.26808   0.26893   0.28069
 Alpha virt. eigenvalues --    0.28962   0.31079   0.31389   0.31878   0.32399

 Mulliken charges:
               1
     1  C   -0.299713
     2  C   -0.306539
     3  C   -0.474296
     4  H    0.152602
     5  H    0.152313
     6  H    0.153174
     7  H    0.152041
     8  H    0.152709
     9  H    0.161364
    10  H    0.166272
    11  C   -0.301077
    12  C   -0.300222
    13  C   -0.475291
    14  H    0.138651
    15  H    0.152207
    16  H    0.154109
    17  H    0.155931
    18  H    0.157390
    19  H    0.146017
    20  H    0.163366
    21  C   -0.170698
    22  C   -0.219139
    23  C   -0.169635
    24  C    0.156424
    25  C   -0.180751
    26  C   -0.228634
    27  H    0.226006
    28  H    0.223527
    29  H    0.275685
    30  H    0.291909
    31  H    0.229593
    32  N    0.486545
    33  O   -0.461731
    34  O   -0.460111
 Sum of Mulliken charges =  -0.00000

 Dipole moment (field-independent basis, Debye):
    X=              1.3222    Y=             -4.8956    Z=             -0.4003  Tot=              5.0868
 Quadrupole moment (field-independent basis, Debye-Ang):
   XX=            -95.3018   YY=            -95.5303   ZZ=            -95.0072
   XY=             14.6399   XZ=             -0.5850   YZ=             -0.7260

 Normal termination of Gaussian 16 at Thu May  6 02:29:40 2021.
