 Gaussian 16, Revision A.03,
 Gaussian 16:  EM64L-G16RevA.03 25-Dec-2016

 -------------
 #p 6-31g* mp2
 -------------

 ------------------------------------------------------
 Input file generated by CHIRIPA (05-May-2021 14:53:17)
 ------------------------------------------------------
 Symbolic Z-matrix:
 Charge =  0 Multiplicity = 1

                         Standard orientation:
 ---------------------------------------------------------------------
 Center     Atomic      Atomic             Coordinates (Angstroms)
 Number     Number       Type             X           Y           Z
 ---------------------------------------------------------------------
      1          6           0        5.380201   -0.307998    0.318986
      2          6           0        6.152637   -0.890323   -0.865169
      3          6           0        7.310031   -1.790175   -0.431004
      4          1           0        6.071342    0.262228    0.954684
      5          1           0        4.994357   -1.130932    0.936480
      6          1           0        6.535734   -0.066551   -1.481004
      7          1           0        5.459538   -1.459069   -1.498225
      8          1           0        6.941428   -2.631225    0.165123
      9          1           0        8.023738   -1.230795    0.182443
     10          1           0        7.848542   -2.195696   -1.293221
     11          6           0        4.220081    0.593760   -0.098964
     12          6           0        3.447646    1.176086    1.085192
     13          6           0        2.290252    2.075938    0.651026
     14          1           0        4.605925    1.416694   -0.716458
     15          1           0        3.528940    0.023535   -0.734662
     16          1           0        4.140744    1.744832    1.718247
     17          1           0        3.064548    0.352314    1.701026
     18          1           0        1.576544    1.516558    0.037580
     19          1           0        2.658854    2.916988    0.054899
     20          1           0        1.751740    2.481459    1.513243
     21          6           0       -2.624563    2.110326   -0.488433
     22          6           0       -4.015181    2.001092   -0.592203
     23          6           0       -4.649516    0.774968   -0.371325
     24          6           0       -3.858924   -0.326437   -0.047036
     25          6           0       -2.471448   -0.249528    0.063814
     26          6           0       -1.858486    0.986648   -0.161333
     27          1           0       -2.140098    3.066713   -0.661674
     28          1           0       -4.612655    2.872076   -0.846084
     29          1           0       -5.724351    0.662233   -0.445076
     30          1           0       -1.902493   -1.135452    0.318463
     31          1           0       -0.778331    1.068528   -0.080055
     32          7           0       -4.519153   -1.629800    0.189058
     33          8           0       -3.800154   -2.585209    0.473434
     34          8           0       -5.743139   -1.671288    0.085260
 ---------------------------------------------------------------------

 SCF Done:  E(RHF) =  -669.535574880     A.U. after   15 cycles
 E2 =    -0.2090712633D+01 EUMP2 =    -0.67162628751273D+03

 The electronic state is 1-A.
 Alpha  occ. eigenvalues --  -20.60728 -20.60723 -15.85781 -11.31134 -11.27702
 Alpha  occ. eigenvalues --  -11.27693 -11.27430 -11.26716 -11.26669 -11.22374
 Alpha  occ. eigenvalues --  -11.22181 -11.22000 -11.21960 -11.21821 -11.21344
 Alpha  occ. eigenvalues --   -1.59804  -1.39358  -1.19302  -1.09000  -1.08698
 Alpha  occ. eigenvalues --   -1.04704  -1.04136  -0.96608  -0.95536  -0.87634
 Alpha  occ. eigenvalues --   -0.86101  -0.82370  -0.80209  -0.78772  -0.77421
 Alpha  occ. eigenvalues --   -0.71999  -0.71127  -0.70409  -0.65643  -0.64953
 Alpha  occ. eigenvalues --   -0.64721  -0.62103  -0.61498  -0.59987  -0.58189
 Alpha  occ. eigenvalues --   -0.55930  -0.55191  -0.53329  -0.53083  -0.53033
 Alpha  occ. eigenvalues --   -0.52732  -0.50535  -0.48760  -0.48755  -0.48510
 Alpha  occ. eigenvalues --   -0.47223  -0.46326  -0.46221  -0.44766  -0.44370
 Alpha  occ. eigenvalues --   -0.37282  -0.36308
 Alpha virt. eigenvalues --    0.05114   0.11342   0.16611   0.20029   0.22511
 Alpha virt. eigenvalues --    0.23718   0.25397   0.26381   0.27129   0.28266
 Alpha virt. eigenvalues --    0.28690   0.30036   0.31000   0.31508   0.32128

 Mulliken charges:
               1
     1  C   -0.298948
     2  C   -0.300136
     3  C   -0.476100
     4  H    0.150714
     5  H    0.150949
     6  H    0.152128
     7  H    0.152620
     8  H    0.156263
     9  H    0.155575
    10  H    0.161510
    11  C   -0.298896
    12  C   -0.299433
    13  C   -0.482563
    14  H    0.150420
    15  H    0.148938
    16  H    0.155666
    17  H    0.153824
    18  H    0.147925
    19  H    0.158999
    20  H    0.162149
    21  C   -0.173589
    22  C   -0.218531
    23  C   -0.171355
    24  C    0.158933
    25  C   -0.173630
    26  C   -0.226204
    27  H    0.226326
    28  H    0.223173
    29  H    0.275351
    30  H    0.275523
    31  H    0.235641
    32  N    0.488072
    33  O   -0.460665
    34  O   -0.460650
 Sum of Mulliken charges =  -0.00000

 Dipole moment (field-independent basis, Debye):
    X=              2.5536    Y=              4.6135    Z=             -0.8027  Tot=              5.3338
 Quadrupole moment (field-independent basis, Debye-Ang):
   XX=           -108.4073   YY=            -97.1147   ZZ=            -95.3896
   XY=            -19.6983   XZ=              4.0347   YZ=             -0.2522

 Normal termination of Gaussian 16 at Thu May  6 20:32:07 2021.
