 Gaussian 16, Revision A.03,
 Gaussian 16:  EM64L-G16RevA.03 25-Dec-2016

 -------------
 #p 6-31g* mp2
 -------------

 ------------------------------------------------------
 Input file generated by CHIRIPA (05-May-2021 14:57:25)
 ------------------------------------------------------
 Symbolic Z-matrix:
 Charge =  0 Multiplicity = 1

                         Standard orientation:
 ---------------------------------------------------------------------
 Center     Atomic      Atomic             Coordinates (Angstroms)
 Number     Number       Type             X           Y           Z
 ---------------------------------------------------------------------
      1          6           0        3.315907   -2.378664   -0.211171
      2          6           0        4.342102   -1.629196    0.373417
      3          6           0        4.295991   -0.231952    0.361888
      4          6           0        3.203961    0.385856   -0.245625
      5          6           0        2.166063   -0.333137   -0.836478
      6          6           0        2.233072   -1.729388   -0.813192
      7          1           0        3.359845   -3.463691   -0.197649
      8          1           0        5.184264   -2.130743    0.841666
      9          1           0        5.076782    0.372721    0.807033
     10          1           0        1.339393    0.195173   -1.295743
     11          1           0        1.434685   -2.308871   -1.267968
     12          7           0        3.144083    1.864529   -0.264054
     13          8           0        2.171163    2.384890   -0.805614
     14          8           0        4.071205    2.475154    0.263411
     15          6           0       -5.316766    0.436513   -1.025769
     16          6           0       -4.328390   -0.347600   -1.629759
     17          6           0       -3.159172   -0.674409   -0.936452
     18          6           0       -3.010525   -0.198095    0.365208
     19          6           0       -3.977075    0.585087    0.994253
     20          6           0       -5.138268    0.899538    0.282003
     21          1           0       -6.221924    0.685587   -1.571704
     22          1           0       -4.464314   -0.708576   -2.645271
     23          1           0       -2.377953   -1.279721   -1.379974
     24          1           0       -3.813128    0.930317    2.007838
     25          1           0       -5.904170    1.508670    0.753592
     26          7           0       -1.776974   -0.537533    1.109207
     27          8           0       -1.670037   -0.105566    2.254898
     28          8           0       -0.940412   -1.229122    0.532576
 ---------------------------------------------------------------------

 SCF Done:  E(RHF) =  -868.338636418     A.U. after   16 cycles
 E2 =    -0.2599774977D+01 EUMP2 =    -0.87093841139466D+03

 The electronic state is 1-A.
 Alpha  occ. eigenvalues --  -20.61235 -20.61163 -20.59913 -20.59905 -15.86236
 Alpha  occ. eigenvalues --  -15.84956 -11.31469 -11.30080 -11.28080 -11.27978
 Alpha  occ. eigenvalues --  -11.27721 -11.27027 -11.26972 -11.26665 -11.26588
 Alpha  occ. eigenvalues --  -11.26359 -11.25681 -11.25545  -1.60255  -1.58986
 Alpha  occ. eigenvalues --   -1.39824  -1.38549  -1.19622  -1.18232  -1.09038
 Alpha  occ. eigenvalues --   -1.07688  -1.05013  -1.03598  -0.95902  -0.94564
 Alpha  occ. eigenvalues --   -0.86419  -0.85034  -0.82757  -0.81401  -0.77823
 Alpha  occ. eigenvalues --   -0.76473  -0.72476  -0.71564  -0.71190  -0.70740
 Alpha  occ. eigenvalues --   -0.70293  -0.69392  -0.65287  -0.65018  -0.63902
 Alpha  occ. eigenvalues --   -0.63638  -0.62375  -0.60974  -0.55511  -0.54171
 Alpha  occ. eigenvalues --   -0.53335  -0.53110  -0.51930  -0.51727  -0.49234
 Alpha  occ. eigenvalues --   -0.49183  -0.47952  -0.47923  -0.45257  -0.44008
 Alpha  occ. eigenvalues --   -0.37583  -0.36604  -0.36218  -0.35103
 Alpha virt. eigenvalues --    0.04686   0.06088   0.11048   0.12487   0.16222
 Alpha virt. eigenvalues --    0.17617   0.20980   0.22390   0.26627   0.27512
 Alpha virt. eigenvalues --    0.28814   0.29253   0.30929   0.31759   0.32911

 Mulliken charges:
               1
     1  C   -0.171816
     2  C   -0.218473
     3  C   -0.172107
     4  C    0.156884
     5  C   -0.158710
     6  C   -0.203218
     7  H    0.221760
     8  H    0.219181
     9  H    0.271816
    10  H    0.269593
    11  H    0.221929
    12  N    0.488911
    13  O   -0.464467
    14  O   -0.463370
    15  C   -0.170018
    16  C   -0.217585
    17  C   -0.170367
    18  C    0.159927
    19  C   -0.169298
    20  C   -0.217912
    21  H    0.227019
    22  H    0.223515
    23  H    0.268079
    24  H    0.277450
    25  H    0.225312
    26  N    0.492212
    27  O   -0.453877
    28  O   -0.472368
 Sum of Mulliken charges =  -0.00000

 Dipole moment (field-independent basis, Debye):
    X=             -4.5480    Y=             -4.0160    Z=             -2.4425  Tot=              6.5405
 Quadrupole moment (field-independent basis, Debye-Ang):
   XX=            -73.9986   YY=           -109.5785   ZZ=           -103.2596
   XY=            -20.8021   XZ=              7.5094   YZ=              4.8335

 Normal termination of Gaussian 16 at Fri May  7 08:05:09 2021.
