 Gaussian 16, Revision A.03,
 Gaussian 16:  EM64L-G16RevA.03 25-Dec-2016

 -------------
 #p 6-31g* mp2
 -------------

 ------------------------------------------------------
 Input file generated by CHIRIPA (05-May-2021 14:55:24)
 ------------------------------------------------------
 Symbolic Z-matrix:
 Charge =  0 Multiplicity = 1

                         Standard orientation:
 ---------------------------------------------------------------------
 Center     Atomic      Atomic             Coordinates (Angstroms)
 Number     Number       Type             X           Y           Z
 ---------------------------------------------------------------------
      1          6           0       -4.248626    1.545825    0.073052
      2          6           0       -2.885352    1.700909   -0.198893
      3          6           0       -2.042463    0.587226   -0.260511
      4          6           0       -2.598884   -0.672486   -0.044153
      5          6           0       -3.953049   -0.859520    0.228880
      6          6           0       -4.777191    0.268358    0.285696
      7          1           0       -4.896121    2.416474    0.119053
      8          1           0       -2.472105    2.691799   -0.364451
      9          1           0       -0.983445    0.678592   -0.469200
     10          1           0       -4.335953   -1.860016    0.389534
     11          1           0       -5.835549    0.144910    0.497085
     12          7           0       -1.716478   -1.859006   -0.106844
     13          8           0       -2.231204   -2.958068    0.087466
     14          8           0       -0.526830   -1.667471   -0.349104
     15          6           0        3.993671    0.149844    0.417379
     16          6           0        4.642442   -0.905833   -0.478516
     17          6           0        5.601978   -1.819727    0.284296
     18          1           0        4.780156    0.754134    0.889840
     19          1           0        3.453569   -0.352326    1.231940
     20          1           0        5.180007   -0.401858   -1.291934
     21          1           0        3.854315   -1.507556   -0.949047
     22          1           0        5.075349   -2.348640    1.085241
     23          1           0        6.408573   -1.236658    0.740407
     24          1           0        6.054485   -2.566794   -0.375241
     25          6           0        3.031777    1.071104   -0.330797
     26          6           0        2.383004    2.126781    0.565098
     27          6           0        1.423468    3.040676   -0.197713
     28          1           0        3.571878    1.573275   -1.145358
     29          1           0        2.245291    0.466815   -0.803257
     30          1           0        3.171133    2.728505    1.035629
     31          1           0        1.845441    1.622806    1.378516
     32          1           0        0.616874    2.457607   -0.653824
     33          1           0        1.950099    3.569588   -0.998660
     34          1           0        0.970962    3.787742    0.461824
 ---------------------------------------------------------------------

 SCF Done:  E(RHF) =  -669.535804874     A.U. after   15 cycles
 E2 =    -0.2091629277D+01 EUMP2 =    -0.67162743415095D+03

 The electronic state is 1-A.
 Alpha  occ. eigenvalues --  -20.60851 -20.60845 -15.85897 -11.31209 -11.27775
 Alpha  occ. eigenvalues --  -11.27757 -11.27509 -11.26785 -11.26758 -11.21693
 Alpha  occ. eigenvalues --  -11.21614 -11.21110 -11.21034 -11.20930 -11.20538
 Alpha  occ. eigenvalues --   -1.59919  -1.39475  -1.19378  -1.08784  -1.08166
 Alpha  occ. eigenvalues --   -1.04776  -1.03365  -0.95842  -0.95626  -0.86870
 Alpha  occ. eigenvalues --   -0.86176  -0.82460  -0.79442  -0.77912  -0.77510
 Alpha  occ. eigenvalues --   -0.72119  -0.71238  -0.70503  -0.65035  -0.64874
 Alpha  occ. eigenvalues --   -0.64699  -0.62180  -0.60719  -0.59256  -0.57416
 Alpha  occ. eigenvalues --   -0.55347  -0.55069  -0.53107  -0.52873  -0.52575
 Alpha  occ. eigenvalues --   -0.52258  -0.49802  -0.48870  -0.48864  -0.47750
 Alpha  occ. eigenvalues --   -0.46441  -0.45471  -0.45320  -0.44891  -0.43571
 Alpha  occ. eigenvalues --   -0.37360  -0.36374
 Alpha virt. eigenvalues --    0.05014   0.11274   0.16519   0.19380   0.23006
 Alpha virt. eigenvalues --    0.24160   0.26072   0.26735   0.27590   0.28291
 Alpha virt. eigenvalues --    0.29669   0.30452   0.31481   0.31708   0.32443

 Mulliken charges:
               1
     1  C   -0.170607
     2  C   -0.221302
     3  C   -0.179721
     4  C    0.160283
     5  C   -0.170379
     6  C   -0.218887
     7  H    0.225775
     8  H    0.225392
     9  H    0.284127
    10  H    0.275510
    11  H    0.223545
    12  N    0.488552
    13  O   -0.459744
    14  O   -0.462830
    15  C   -0.297977
    16  C   -0.301625
    17  C   -0.475901
    18  H    0.146353
    19  H    0.154386
    20  H    0.148743
    21  H    0.161357
    22  H    0.157666
    23  H    0.152221
    24  H    0.159946
    25  C   -0.302992
    26  C   -0.300426
    27  C   -0.478253
    28  H    0.147315
    29  H    0.160647
    30  H    0.153134
    31  H    0.154399
    32  H    0.143585
    33  H    0.159406
    34  H    0.158301
 Sum of Mulliken charges =  -0.00000

 Dipole moment (field-independent basis, Debye):
    X=             -3.0847    Y=              4.0731    Z=              0.2362  Tot=              5.1148
 Quadrupole moment (field-independent basis, Debye-Ang):
   XX=            -75.6984   YY=            -99.2996   ZZ=            -95.6062
   XY=             -5.4263   XZ=             -1.8473   YZ=             -0.8146

 Normal termination of Gaussian 16 at Thu May  6 07:56:29 2021.
