 Gaussian 16, Revision A.03,
 Gaussian 16:  EM64L-G16RevA.03 25-Dec-2016

 -------------
 #p 6-31g* mp2
 -------------

 ------------------------------------------------------
 Input file generated by CHIRIPA (05-May-2021 14:55:20)
 ------------------------------------------------------
 Symbolic Z-matrix:
 Charge =  0 Multiplicity = 1

                         Standard orientation:
 ---------------------------------------------------------------------
 Center     Atomic      Atomic             Coordinates (Angstroms)
 Number     Number       Type             X           Y           Z
 ---------------------------------------------------------------------
      1          6           0        1.443742    2.246723    1.225302
      2          6           0        1.310040    0.919048    1.644736
      3          6           0        2.003291   -0.104872    0.992402
      4          6           0        2.825339    0.236187   -0.080541
      5          6           0        2.979308    1.549453   -0.522035
      6          6           0        2.276481    2.557140    0.145160
      7          1           0        0.901489    3.035823    1.737823
      8          1           0        0.664030    0.675034    2.483290
      9          1           0        1.918100   -1.141121    1.296288
     10          1           0        3.630719    1.761724   -1.361095
     11          1           0        2.382236    3.587348   -0.182761
     12          7           0        3.564321   -0.839199   -0.779004
     13          8           0        4.282269   -0.512576   -1.721609
     14          8           0        3.411595   -1.988347   -0.370628
     15          6           0       -3.184812   -1.172015    0.262621
     16          6           0       -1.657307   -1.210038    0.319784
     17          6           0       -1.120795   -2.502301    0.936227
     18          1           0       -3.586447   -1.289733    1.278385
     19          1           0       -3.544622   -2.033057   -0.317498
     20          1           0       -1.300423   -0.348416    0.898453
     21          1           0       -1.259258   -1.092022   -0.696211
     22          1           0       -1.448603   -3.370955    0.356069
     23          1           0       -1.490003   -2.623123    1.959794
     24          1           0       -0.026783   -2.508299    0.967266
     25          6           0       -3.736266    0.113651   -0.351132
     26          6           0       -5.263771    0.151674   -0.408294
     27          6           0       -5.800283    1.443937   -1.024738
     28          1           0       -3.376455    0.974693    0.228988
     29          1           0       -3.334630    0.231370   -1.366896
     30          1           0       -5.661819    0.033659    0.607701
     31          1           0       -5.620654   -0.709948   -0.986964
     32          1           0       -5.431074    1.564759   -2.048304
     33          1           0       -5.472474    2.312590   -0.444579
     34          1           0       -6.894294    1.449934   -1.055776
 ---------------------------------------------------------------------

 SCF Done:  E(RHF) =  -669.534732720     A.U. after   15 cycles
 E2 =    -0.2092945789D+01 EUMP2 =    -0.67162767850901D+03

 The electronic state is 1-A.
 Alpha  occ. eigenvalues --  -20.60792 -20.60786 -15.85843 -11.31207 -11.27775
 Alpha  occ. eigenvalues --  -11.27767 -11.27524 -11.26797 -11.26787 -11.21880
 Alpha  occ. eigenvalues --  -11.21877 -11.21711 -11.21647 -11.21398 -11.21346
 Alpha  occ. eigenvalues --   -1.59865  -1.39419  -1.19386  -1.08784  -1.08731
 Alpha  occ. eigenvalues --   -1.04800  -1.03828  -0.96292  -0.95612  -0.87305
 Alpha  occ. eigenvalues --   -0.86190  -0.82451  -0.79889  -0.78548  -0.77497
 Alpha  occ. eigenvalues --   -0.72063  -0.71187  -0.70506  -0.65387  -0.65038
 Alpha  occ. eigenvalues --   -0.64802  -0.62227  -0.61216  -0.59635  -0.57900
 Alpha  occ. eigenvalues --   -0.55575  -0.55290  -0.53178  -0.53074  -0.52836
 Alpha  occ. eigenvalues --   -0.52575  -0.50219  -0.48821  -0.48818  -0.48198
 Alpha  occ. eigenvalues --   -0.46924  -0.46083  -0.46016  -0.44823  -0.44085
 Alpha  occ. eigenvalues --   -0.37357  -0.36326
 Alpha virt. eigenvalues --    0.05014   0.11146   0.16452   0.20349   0.22776
 Alpha virt. eigenvalues --    0.23951   0.26127   0.26342   0.26999   0.28015
 Alpha virt. eigenvalues --    0.28891   0.29606   0.31255   0.31557   0.31919

 Mulliken charges:
               1
     1  C   -0.171835
     2  C   -0.217930
     3  C   -0.170170
     4  C    0.157849
     5  C   -0.170787
     6  C   -0.218269
     7  H    0.225599
     8  H    0.223930
     9  H    0.279525
    10  H    0.275647
    11  H    0.223561
    12  N    0.487934
    13  O   -0.460196
    14  O   -0.461033
    15  C   -0.298686
    16  C   -0.301790
    17  C   -0.481176
    18  H    0.147929
    19  H    0.152028
    20  H    0.146992
    21  H    0.156501
    22  H    0.161858
    23  H    0.152196
    24  H    0.160651
    25  C   -0.297438
    26  C   -0.299827
    27  C   -0.475653
    28  H    0.145412
    29  H    0.151491
    30  H    0.151462
    31  H    0.153628
    32  H    0.156019
    33  H    0.153379
    34  H    0.161199
 Sum of Mulliken charges =  -0.00000

 Dipole moment (field-independent basis, Debye):
    X=             -2.6129    Y=              3.7676    Z=              2.3827  Tot=              5.1671
 Quadrupole moment (field-independent basis, Debye-Ang):
   XX=           -109.6357   YY=            -91.4276   ZZ=            -93.0887
   XY=             12.3369   XZ=              5.6992   YZ=             -1.2032

 Normal termination of Gaussian 16 at Thu May  6 19:05:36 2021.
