 Gaussian 16, Revision A.03,
 Gaussian 16:  EM64L-G16RevA.03 25-Dec-2016

 -------------
 #p 6-31g* mp2
 -------------

 ------------------------------------------------------
 Input file generated by CHIRIPA (05-May-2021 14:57:26)
 ------------------------------------------------------
 Symbolic Z-matrix:
 Charge =  0 Multiplicity = 1

                         Standard orientation:
 ---------------------------------------------------------------------
 Center     Atomic      Atomic             Coordinates (Angstroms)
 Number     Number       Type             X           Y           Z
 ---------------------------------------------------------------------
      1          6           0       -3.936027    1.987398    0.594852
      2          6           0       -4.651713    0.795648    0.749918
      3          6           0       -4.102336   -0.421471    0.335969
      4          6           0       -2.829141   -0.410114   -0.231601
      5          6           0       -2.091188    0.760575   -0.399534
      6          6           0       -2.660298    1.966096    0.021631
      7          1           0       -4.370461    2.928381    0.919221
      8          1           0       -5.642661    0.809179    1.194760
      9          1           0       -4.634427   -1.358804    0.444159
     10          1           0       -1.105462    0.715334   -0.846430
     11          1           0       -2.102184    2.890082   -0.100037
     12          7           0       -2.237095   -1.692485   -0.673650
     13          8           0       -1.113637   -1.655672   -1.170764
     14          8           0       -2.907719   -2.710138   -0.514645
     15          6           0        3.392224   -2.214888    0.727525
     16          6           0        4.382052   -1.435441    0.119886
     17          6           0        4.135209   -0.096984   -0.199723
     18          6           0        2.881714    0.432108    0.103759
     19          6           0        1.875079   -0.318772    0.708866
     20          6           0        2.144098   -1.655053    1.019560
     21          1           0        3.592591   -3.253788    0.972343
     22          1           0        5.352285   -1.867563   -0.108070
     23          1           0        4.883461    0.529117   -0.670399
     24          1           0        0.917606    0.139945    0.923904
     25          1           0        1.373493   -2.258005    1.491433
     26          7           0        2.608655    1.847919   -0.229879
     27          8           0        1.496132    2.290448    0.047790
     28          8           0        3.512324    2.488297   -0.762735
 ---------------------------------------------------------------------

 SCF Done:  E(RHF) =  -868.340899950     A.U. after   16 cycles
 E2 =    -0.2599906023D+01 EUMP2 =    -0.87094080597310D+03

 The electronic state is 1-A.
 Alpha  occ. eigenvalues --  -20.60997 -20.60990 -20.60981 -20.60922 -15.86010
 Alpha  occ. eigenvalues --  -15.85983 -11.31100 -11.30908 -11.27652 -11.27490
 Alpha  occ. eigenvalues --  -11.27437 -11.27419 -11.27273 -11.27067 -11.26631
 Alpha  occ. eigenvalues --  -11.26421 -11.26384 -11.26282  -1.60069  -1.60019
 Alpha  occ. eigenvalues --   -1.39626  -1.39593  -1.19230  -1.19032  -1.08682
 Alpha  occ. eigenvalues --   -1.08509  -1.04552  -1.04365  -0.95564  -0.95417
 Alpha  occ. eigenvalues --   -0.85983  -0.85794  -0.82402  -0.82251  -0.77539
 Alpha  occ. eigenvalues --   -0.77301  -0.72262  -0.72197  -0.71400  -0.71314
 Alpha  occ. eigenvalues --   -0.70324  -0.70148  -0.64863  -0.64692  -0.64555
 Alpha  occ. eigenvalues --   -0.64345  -0.61953  -0.61656  -0.55081  -0.54896
 Alpha  occ. eigenvalues --   -0.52955  -0.52710  -0.52636  -0.52413  -0.49037
 Alpha  occ. eigenvalues --   -0.48971  -0.48959  -0.48919  -0.45107  -0.45069
 Alpha  occ. eigenvalues --   -0.37219  -0.36979  -0.36150  -0.35898
 Alpha virt. eigenvalues --    0.04851   0.05225   0.11351   0.11718   0.16469
 Alpha virt. eigenvalues --    0.16806   0.21422   0.22109   0.26990   0.27889
 Alpha virt. eigenvalues --    0.28357   0.29127   0.31208   0.31421   0.32111

 Mulliken charges:
               1
     1  C   -0.171358
     2  C   -0.218419
     3  C   -0.172647
     4  C    0.156072
     5  C   -0.180041
     6  C   -0.220170
     7  H    0.226765
     8  H    0.222661
     9  H    0.273492
    10  H    0.283492
    11  H    0.238426
    12  N    0.486726
    13  O   -0.464002
    14  O   -0.461343
    15  C   -0.169699
    16  C   -0.218375
    17  C   -0.171244
    18  C    0.156239
    19  C   -0.164392
    20  C   -0.210690
    21  H    0.226780
    22  H    0.222556
    23  H    0.273540
    24  H    0.269614
    25  H    0.227916
    26  N    0.490256
    27  O   -0.474748
    28  O   -0.457408
 Sum of Mulliken charges =  -0.00000

 Dipole moment (field-independent basis, Debye):
    X=             -1.0572    Y=             -0.4691    Z=              2.7216  Tot=              2.9572
 Quadrupole moment (field-independent basis, Debye-Ang):
   XX=            -80.1258   YY=           -112.2824   ZZ=           -105.6780
   XY=            -24.3423   XZ=             -3.8762   YZ=             -2.9286

 Normal termination of Gaussian 16 at Fri May  7 06:37:42 2021.
