 Gaussian 16, Revision A.03,
 Gaussian 16:  EM64L-G16RevA.03 25-Dec-2016

 -------------
 #p 6-31g* mp2
 -------------

 ------------------------------------------------------
 Input file generated by CHIRIPA (05-May-2021 14:55:21)
 ------------------------------------------------------
 Symbolic Z-matrix:
 Charge =  0 Multiplicity = 1

                         Standard orientation:
 ---------------------------------------------------------------------
 Center     Atomic      Atomic             Coordinates (Angstroms)
 Number     Number       Type             X           Y           Z
 ---------------------------------------------------------------------
      1          6           0       -5.098808    0.782377    0.389793
      2          6           0       -4.027173    1.680071    0.437381
      3          6           0       -2.725742    1.247146    0.166456
      4          6           0       -2.531221   -0.096460   -0.150048
      5          6           0       -3.578272   -1.015099   -0.205508
      6          6           0       -4.871338   -0.559977    0.069066
      7          1           0       -6.106542    1.127305    0.601671
      8          1           0       -4.200859    2.723132    0.686180
      9          1           0       -1.877902    1.920719    0.196195
     10          1           0       -3.373837   -2.048846   -0.456490
     11          1           0       -5.701675   -1.259380    0.031365
     12          7           0       -1.157881   -0.566528   -0.438795
     13          8           0       -1.012929   -1.755337   -0.715130
     14          8           0       -0.252414    0.262741   -0.383313
     15          6           0        3.619642   -0.687912   -0.129788
     16          6           0        3.038816   -1.752694    0.801268
     17          6           0        3.226553   -3.172411    0.265589
     18          1           0        3.145081   -0.774669   -1.116810
     19          1           0        4.690105   -0.885881   -0.279160
     20          1           0        1.970068   -1.551973    0.949943
     21          1           0        3.514676   -1.663269    1.786243
     22          1           0        4.289964   -3.397066    0.134109
     23          1           0        2.736580   -3.285138   -0.706943
     24          1           0        2.804056   -3.917653    0.946744
     25          6           0        3.439721    0.736520    0.392082
     26          6           0        4.020547    1.801302   -0.538975
     27          6           0        3.832810    3.221019   -0.003295
     28          1           0        2.369258    0.934489    0.541454
     29          1           0        3.914281    0.823276    1.379104
     30          1           0        3.544687    1.711877   -1.523950
     31          1           0        5.089295    1.600581   -0.687650
     32          1           0        4.322782    3.333746    0.969237
     33          1           0        2.769398    3.445675    0.128185
     34          1           0        4.255307    3.966260   -0.684450
 ---------------------------------------------------------------------

 SCF Done:  E(RHF) =  -669.536815801     A.U. after   15 cycles
 E2 =    -0.2091880542D+01 EUMP2 =    -0.67162869634291D+03

 The electronic state is 1-A.
 Alpha  occ. eigenvalues --  -20.61154 -20.61148 -15.86165 -11.31414 -11.27967
 Alpha  occ. eigenvalues --  -11.27962 -11.27690 -11.26955 -11.26945 -11.20403
 Alpha  occ. eigenvalues --  -11.20175 -11.19928 -11.19795 -11.19732 -11.19599
 Alpha  occ. eigenvalues --   -1.60198  -1.39756  -1.19573  -1.08991  -1.06917
 Alpha  occ. eigenvalues --   -1.04957  -1.02156  -0.95845  -0.94621  -0.86361
 Alpha  occ. eigenvalues --   -0.85656  -0.82683  -0.78235  -0.77743  -0.76720
 Alpha  occ. eigenvalues --   -0.72387  -0.71503  -0.70681  -0.65232  -0.64962
 Alpha  occ. eigenvalues --   -0.63498  -0.62305  -0.59535  -0.58029  -0.56244
 Alpha  occ. eigenvalues --   -0.55464  -0.53889  -0.53293  -0.53047  -0.51389
 Alpha  occ. eigenvalues --   -0.51076  -0.49154  -0.49138  -0.48558  -0.46568
 Alpha  occ. eigenvalues --   -0.45255  -0.45182  -0.44284  -0.44032  -0.42369
 Alpha  occ. eigenvalues --   -0.37547  -0.36554
 Alpha virt. eigenvalues --    0.04751   0.11102   0.16255   0.21212   0.24365
 Alpha virt. eigenvalues --    0.25596   0.27161   0.27773   0.28398   0.29002
 Alpha virt. eigenvalues --    0.29382   0.30910   0.32286   0.32693   0.32958

 Mulliken charges:
               1
     1  C   -0.170293
     2  C   -0.218562
     3  C   -0.170416
     4  C    0.157880
     5  C   -0.170320
     6  C   -0.218628
     7  H    0.226491
     8  H    0.224339
     9  H    0.275646
    10  H    0.276177
    11  H    0.224271
    12  N    0.492816
    13  O   -0.458362
    14  O   -0.464820
    15  C   -0.294472
    16  C   -0.301710
    17  C   -0.474682
    18  H    0.157040
    19  H    0.140551
    20  H    0.166412
    21  H    0.142245
    22  H    0.147758
    23  H    0.161386
    24  H    0.154725
    25  C   -0.305604
    26  C   -0.298311
    27  C   -0.474541
    28  H    0.170764
    29  H    0.140602
    30  H    0.153719
    31  H    0.147012
    32  H    0.151901
    33  H    0.153435
    34  H    0.155549
 Sum of Mulliken charges =  -0.00000

 Dipole moment (field-independent basis, Debye):
    X=             -5.3622    Y=              1.6208    Z=              0.9130  Tot=              5.6757
 Quadrupole moment (field-independent basis, Debye-Ang):
   XX=            -71.0749   YY=            -92.8192   ZZ=            -95.8413
   XY=             -2.0045   XZ=             -1.5765   YZ=              0.4067

 Normal termination of Gaussian 16 at Thu May  6 14:08:32 2021.
