 Gaussian 16, Revision A.03,
 Gaussian 16:  EM64L-G16RevA.03 25-Dec-2016

 -------------
 #p 6-31g* mp2
 -------------

 ------------------------------------------------------
 Input file generated by CHIRIPA (05-May-2021 14:51:07)
 ------------------------------------------------------
 Symbolic Z-matrix:
 Charge =  0 Multiplicity = 1

                         Standard orientation:
 ---------------------------------------------------------------------
 Center     Atomic      Atomic             Coordinates (Angstroms)
 Number     Number       Type             X           Y           Z
 ---------------------------------------------------------------------
      1          6           0        3.130807   -0.146425   -0.187828
      2          6           0        2.586069   -1.551308    0.072072
      3          6           0        1.091428   -1.670548   -0.227304
      4          1           0        2.573860    0.575154    0.425424
      5          1           0        2.943198    0.123885   -1.236222
      6          1           0        2.775885   -1.819432    1.119304
      7          1           0        3.144506   -2.269650   -0.541727
      8          1           0        0.888053   -1.429107   -1.275610
      9          1           0        0.517338   -0.976332    0.394858
     10          1           0        0.722922   -2.682950   -0.034675
     11          6           0        4.623673   -0.011404    0.106876
     12          6           0        5.168411    1.393479   -0.153023
     13          6           0        6.663052    1.512719    0.146352
     14          1           0        4.811282   -0.281714    1.155270
     15          1           0        5.180620   -0.732984   -0.506375
     16          1           0        4.609974    2.111821    0.460775
     17          1           0        4.978595    1.661603   -1.200255
     18          1           0        7.237142    0.818503   -0.475810
     19          1           0        6.866426    1.271278    1.194659
     20          1           0        7.031557    2.525121   -0.046276
     21          6           0       -3.914101   -0.651366   -0.180347
     22          6           0       -2.812438   -1.523536    0.422682
     23          6           0       -2.899519   -2.981846   -0.028476
     24          1           0       -4.893404   -1.064700    0.097259
     25          1           0       -3.853035   -0.701355   -1.276325
     26          1           0       -2.874697   -1.470821    1.517196
     27          1           0       -1.835644   -1.107968    0.143767
     28          1           0       -2.814979   -3.053847   -1.117635
     29          1           0       -3.859935   -3.418760    0.263597
     30          1           0       -2.102628   -3.587373    0.414427
     31          6           0       -3.840379    0.809196    0.261299
     32          6           0       -4.942042    1.681365   -0.341731
     33          6           0       -4.854961    3.139675    0.109427
     34          1           0       -3.901445    0.859184    1.357276
     35          1           0       -2.861075    1.222529   -0.016308
     36          1           0       -5.918836    1.265797   -0.062815
     37          1           0       -4.879783    1.628650   -1.436244
     38          1           0       -3.894545    3.576590   -0.182645
     39          1           0       -4.939501    3.211676    1.198587
     40          1           0       -5.651852    3.745202   -0.333475
 ---------------------------------------------------------------------

 SCF Done:  E(RHF) =  -470.732944144     A.U. after   11 cycles
 E2 =    -0.1582801210D+01 EUMP2 =    -0.47231574535370D+03

 The electronic state is 1-A.
 Alpha  occ. eigenvalues --  -11.21619 -11.21616 -11.21567 -11.21441 -11.21426
 Alpha  occ. eigenvalues --  -11.21366 -11.21347 -11.21276 -11.21093 -11.21082
 Alpha  occ. eigenvalues --  -11.21048 -11.20985  -1.08452  -1.08361  -1.03565
 Alpha  occ. eigenvalues --   -1.03447  -0.96024  -0.95900  -0.87030  -0.86933
 Alpha  occ. eigenvalues --   -0.79683  -0.79472  -0.78281  -0.78156  -0.65091
 Alpha  occ. eigenvalues --   -0.64989  -0.60997  -0.60827  -0.59440  -0.59223
 Alpha  occ. eigenvalues --   -0.57619  -0.57530  -0.55309  -0.55196  -0.52749
 Alpha  occ. eigenvalues --   -0.52552  -0.52485  -0.52301  -0.50017  -0.49812
 Alpha  occ. eigenvalues --   -0.48081  -0.47732  -0.46738  -0.46456  -0.45881
 Alpha  occ. eigenvalues --   -0.45739  -0.45683  -0.45480  -0.43797  -0.43710
 Alpha virt. eigenvalues --    0.22070   0.22952   0.23549   0.24768   0.25897
 Alpha virt. eigenvalues --    0.26691   0.27073   0.27155   0.27827   0.29047
 Alpha virt. eigenvalues --    0.30229   0.30852   0.31601   0.31744   0.32449

 Mulliken charges:
               1
     1  C   -0.298506
     2  C   -0.300237
     3  C   -0.478521
     4  H    0.149689
     5  H    0.149353
     6  H    0.152105
     7  H    0.151926
     8  H    0.154664
     9  H    0.157218
    10  H    0.162403
    11  C   -0.298260
    12  C   -0.299659
    13  C   -0.475719
    14  H    0.149621
    15  H    0.149713
    16  H    0.151974
    17  H    0.151881
    18  H    0.155200
    19  H    0.155231
    20  H    0.160297
    21  C   -0.297524
    22  C   -0.307907
    23  C   -0.475307
    24  H    0.149087
    25  H    0.149160
    26  H    0.150458
    27  H    0.163190
    28  H    0.154892
    29  H    0.154418
    30  H    0.160134
    31  C   -0.298281
    32  C   -0.299539
    33  C   -0.475685
    34  H    0.149211
    35  H    0.149252
    36  H    0.151915
    37  H    0.151878
    38  H    0.155085
    39  H    0.155048
    40  H    0.160142
 Sum of Mulliken charges =  -0.00000

 Dipole moment (field-independent basis, Debye):
    X=              0.0433    Y=             -0.0039    Z=             -0.0038  Tot=              0.0436
 Quadrupole moment (field-independent basis, Debye-Ang):
   XX=            -85.7472   YY=            -85.9816   ZZ=            -83.2954
   XY=             -0.1506   XZ=             -0.8371   YZ=             -0.2012

 Normal termination of Gaussian 16 at Wed May  5 21:16:53 2021.
