 Gaussian 16, Revision A.03,
 Gaussian 16:  EM64L-G16RevA.03 25-Dec-2016

 -------------
 #p 6-31g* mp2
 -------------

 ------------------------------------------------------
 Input file generated by CHIRIPA (05-May-2021 14:53:16)
 ------------------------------------------------------
 Symbolic Z-matrix:
 Charge =  0 Multiplicity = 1

                         Standard orientation:
 ---------------------------------------------------------------------
 Center     Atomic      Atomic             Coordinates (Angstroms)
 Number     Number       Type             X           Y           Z
 ---------------------------------------------------------------------
      1          6           0        4.768223   -0.202415   -0.277183
      2          6           0        5.441897   -1.145055    0.720604
      3          6           0        6.735716   -1.753215    0.178416
      4          1           0        4.556400   -0.751351   -1.204946
      5          1           0        5.469141    0.601139   -0.542530
      6          1           0        4.739429   -1.945820    0.985048
      7          1           0        5.651967   -0.593861    1.646170
      8          1           0        7.457018   -0.967389   -0.068165
      9          1           0        6.539295   -2.327029   -0.733043
     10          1           0        7.200652   -2.423741    0.907860
     11          6           0        3.473577    0.413454    0.250381
     12          6           0        2.799903    1.356094   -0.747405
     13          6           0        1.506084    1.964253   -0.205217
     14          1           0        2.772659   -0.390101    0.515729
     15          1           0        3.685399    0.962390    1.178145
     16          1           0        2.589833    0.804900   -1.672971
     17          1           0        3.502371    2.156859   -1.011849
     18          1           0        1.702504    2.538068    0.706242
     19          1           0        0.784782    1.178427    0.041364
     20          1           0        1.041147    2.634779   -0.934661
     21          6           0       -2.106832    2.173882    0.202879
     22          6           0       -2.000606    1.439875   -0.983068
     23          6           0       -2.612981    0.188611   -1.100902
     24          6           0       -3.327017   -0.300569   -0.008132
     25          6           0       -3.451025    0.406786    1.186673
     26          6           0       -2.830426    1.655908    1.282062
     27          1           0       -1.627931    3.145062    0.285698
     28          1           0       -1.439292    1.839653   -1.822799
     29          1           0       -2.546780   -0.400770   -2.007360
     30          1           0       -4.017295   -0.017938    2.006652
     31          1           0       -2.914604    2.223733    2.204306
     32          7           0       -3.979664   -1.624093   -0.120997
     33          8           0       -4.603053   -2.032938    0.856177
     34          8           0       -3.855461   -2.227565   -1.184498
 ---------------------------------------------------------------------

 SCF Done:  E(RHF) =  -669.534548960     A.U. after   15 cycles
 E2 =    -0.2092209288D+01 EUMP2 =    -0.67162675824798D+03

 The electronic state is 1-A.
 Alpha  occ. eigenvalues --  -20.60750 -20.60745 -15.85804 -11.31158 -11.27727
 Alpha  occ. eigenvalues --  -11.27714 -11.27433 -11.26733 -11.26702 -11.22171
 Alpha  occ. eigenvalues --  -11.21832 -11.21814 -11.21801 -11.21678 -11.21248
 Alpha  occ. eigenvalues --   -1.59827  -1.39380  -1.19336  -1.08833  -1.08720
 Alpha  occ. eigenvalues --   -1.04740  -1.03955  -0.96434  -0.95555  -0.87467
 Alpha  occ. eigenvalues --   -0.86120  -0.82393  -0.80035  -0.78609  -0.77445
 Alpha  occ. eigenvalues --   -0.72022  -0.71151  -0.70425  -0.65455  -0.64982
 Alpha  occ. eigenvalues --   -0.64746  -0.62101  -0.61346  -0.59815  -0.58024
 Alpha  occ. eigenvalues --   -0.55743  -0.55217  -0.53387  -0.53052  -0.52772
 Alpha  occ. eigenvalues --   -0.52684  -0.50318  -0.48780  -0.48777  -0.48338
 Alpha  occ. eigenvalues --   -0.47038  -0.46161  -0.46060  -0.44789  -0.44220
 Alpha  occ. eigenvalues --   -0.37234  -0.36319
 Alpha virt. eigenvalues --    0.05073   0.11295   0.16532   0.20534   0.22602
 Alpha virt. eigenvalues --    0.23980   0.26219   0.26306   0.27110   0.27792
 Alpha virt. eigenvalues --    0.28602   0.30394   0.31105   0.31409   0.31837

 Mulliken charges:
               1
     1  C   -0.298673
     2  C   -0.300132
     3  C   -0.475972
     4  H    0.150593
     5  H    0.149525
     6  H    0.153460
     7  H    0.151842
     8  H    0.155020
     9  H    0.155957
    10  H    0.161331
    11  C   -0.299155
    12  C   -0.299664
    13  C   -0.480844
    14  H    0.151976
    15  H    0.149662
    16  H    0.151927
    17  H    0.152431
    18  H    0.154028
    19  H    0.166198
    20  H    0.147722
    21  C   -0.167743
    22  C   -0.216611
    23  C   -0.173181
    24  C    0.158245
    25  C   -0.171291
    26  C   -0.219486
    27  H    0.227223
    28  H    0.224650
    29  H    0.275267
    30  H    0.275436
    31  H    0.223391
    32  N    0.488101
    33  O   -0.460560
    34  O   -0.460674
 Sum of Mulliken charges =  -0.00000

 Dipole moment (field-independent basis, Debye):
    X=              2.3821    Y=              4.6187    Z=              0.4392  Tot=              5.2154
 Quadrupole moment (field-independent basis, Debye-Ang):
   XX=           -110.6770   YY=            -98.0471   ZZ=            -90.4519
   XY=            -15.8720   XZ=             -2.7284   YZ=              0.6071

 Normal termination of Gaussian 16 at Thu May  6 17:13:42 2021.
