 Gaussian 16, Revision A.03,
 Gaussian 16:  EM64L-G16RevA.03 25-Dec-2016

 -------------
 #p 6-31g* mp2
 -------------

 ------------------------------------------------------
 Input file generated by CHIRIPA (05-May-2021 14:53:18)
 ------------------------------------------------------
 Symbolic Z-matrix:
 Charge =  0 Multiplicity = 1

                         Standard orientation:
 ---------------------------------------------------------------------
 Center     Atomic      Atomic             Coordinates (Angstroms)
 Number     Number       Type             X           Y           Z
 ---------------------------------------------------------------------
      1          6           0        3.623562    0.068943   -0.135468
      2          6           0        3.174549   -1.309507    0.350584
      3          6           0        4.272544   -2.366386    0.227263
      4          1           0        3.946480   -0.005874   -1.182880
      5          1           0        4.503996    0.384539    0.441274
      6          1           0        2.294388   -1.621804   -0.225961
      7          1           0        2.852482   -1.231361    1.396903
      8          1           0        5.149900   -2.080992    0.816667
      9          1           0        4.588635   -2.473653   -0.815417
     10          1           0        3.930107   -3.344133    0.580260
     11          6           0        2.536803    1.136183   -0.018503
     12          6           0        2.985816    2.514633   -0.504556
     13          6           0        1.887821    3.571511   -0.381235
     14          1           0        1.656369    0.820586   -0.595245
     15          1           0        2.213885    1.211000    1.028908
     16          1           0        3.307883    2.436487   -1.550875
     17          1           0        3.865977    2.826929    0.071989
     18          1           0        1.571730    3.678778    0.661445
     19          1           0        1.010465    3.286117   -0.970639
     20          1           0        2.230258    4.549259   -0.734232
     21          6           0       -4.075029    1.406338    0.301207
     22          6           0       -4.174115    0.515231   -0.772399
     23          6           0       -3.255118   -0.528506   -0.915944
     24          6           0       -2.245075   -0.652222    0.036840
     25          6           0       -2.119917    0.219491    1.117461
     26          6           0       -3.050052    1.255889    1.241054
     27          1           0       -4.793254    2.214287    0.404967
     28          1           0       -4.969092    0.629650   -1.503812
     29          1           0       -3.308502   -1.232594   -1.737423
     30          1           0       -1.316564    0.079919    1.830595
     31          1           0       -2.970656    1.946444    2.075845
     32          7           0       -1.266278   -1.753296   -0.104563
     33          8           0       -0.385617   -1.840749    0.748328
     34          8           0       -1.398293   -2.508014   -1.065609
 ---------------------------------------------------------------------

 SCF Done:  E(RHF) =  -669.536017871     A.U. after   15 cycles
 E2 =    -0.2091760494D+01 EUMP2 =    -0.67162777836574D+03

 The electronic state is 1-A.
 Alpha  occ. eigenvalues --  -20.60939 -20.60905 -15.85946 -11.31266 -11.27830
 Alpha  occ. eigenvalues --  -11.27822 -11.27565 -11.26834 -11.26822 -11.21280
 Alpha  occ. eigenvalues --  -11.20977 -11.20860 -11.20557 -11.20210 -11.19968
 Alpha  occ. eigenvalues --   -1.59986  -1.39540  -1.19433  -1.08840  -1.07735
 Alpha  occ. eigenvalues --   -1.04827  -1.02795  -0.95682  -0.95320  -0.86347
 Alpha  occ. eigenvalues --   -0.86227  -0.82516  -0.78906  -0.77606  -0.77397
 Alpha  occ. eigenvalues --   -0.72162  -0.71300  -0.70541  -0.65087  -0.64831
 Alpha  occ. eigenvalues --   -0.64379  -0.62174  -0.60197  -0.58726  -0.56873
 Alpha  occ. eigenvalues --   -0.55333  -0.54640  -0.53160  -0.52919  -0.52023
 Alpha  occ. eigenvalues --   -0.51731  -0.49314  -0.48955  -0.48929  -0.47194
 Alpha  occ. eigenvalues --   -0.45959  -0.45340  -0.44933  -0.44471  -0.43063
 Alpha  occ. eigenvalues --   -0.37411  -0.36426
 Alpha virt. eigenvalues --    0.04938   0.11216   0.16425   0.21293   0.23369
 Alpha virt. eigenvalues --    0.25031   0.26776   0.27462   0.27653   0.28489
 Alpha virt. eigenvalues --    0.28819   0.31051   0.32036   0.32204   0.32734

 Mulliken charges:
               1
     1  C   -0.299163
     2  C   -0.300777
     3  C   -0.476133
     4  H    0.147241
     5  H    0.145107
     6  H    0.172002
     7  H    0.151738
     8  H    0.148730
     9  H    0.151696
    10  H    0.163443
    11  C   -0.294880
    12  C   -0.298945
    13  C   -0.474931
    14  H    0.148231
    15  H    0.145669
    16  H    0.152034
    17  H    0.151205
    18  H    0.151023
    19  H    0.153641
    20  H    0.158941
    21  C   -0.170538
    22  C   -0.218645
    23  C   -0.171017
    24  C    0.157702
    25  C   -0.169968
    26  C   -0.218335
    27  H    0.225995
    28  H    0.223681
    29  H    0.275629
    30  H    0.276149
    31  H    0.223917
    32  N    0.487788
    33  O   -0.458103
    34  O   -0.460129
 Sum of Mulliken charges =  -0.00000

 Dipole moment (field-independent basis, Debye):
    X=             -3.6579    Y=              3.7180    Z=              0.5065  Tot=              5.2402
 Quadrupole moment (field-independent basis, Debye-Ang):
   XX=            -79.9548   YY=           -101.0079   ZZ=            -90.6629
   XY=             -5.4036   XZ=              1.2673   YZ=              1.5311

 Normal termination of Gaussian 16 at Wed May  5 18:48:18 2021.
