 Gaussian 16, Revision A.03,
 Gaussian 16:  EM64L-G16RevA.03 25-Dec-2016

 -------------
 #p 6-31g* mp2
 -------------

 ------------------------------------------------------
 Input file generated by CHIRIPA (05-May-2021 14:51:11)
 ------------------------------------------------------
 Symbolic Z-matrix:
 Charge =  0 Multiplicity = 1

                         Standard orientation:
 ---------------------------------------------------------------------
 Center     Atomic      Atomic             Coordinates (Angstroms)
 Number     Number       Type             X           Y           Z
 ---------------------------------------------------------------------
      1          6           0        4.182785    0.318863   -0.358355
      2          6           0        4.814988    1.419826    0.493810
      3          6           0        5.903693    2.192530   -0.251471
      4          1           0        4.966878   -0.376138   -0.688683
      5          1           0        3.758668    0.766687   -1.267736
      6          1           0        5.236570    0.970245    1.401974
      7          1           0        4.029271    2.112181    0.822307
      8          1           0        5.493512    2.667494   -1.148556
      9          1           0        6.707670    1.519070   -0.565596
     10          1           0        6.342092    2.974640    0.376201
     11          6           0        3.092620   -0.462506    0.372898
     12          6           0        2.460417   -1.563469   -0.479267
     13          6           0        1.371712   -2.336173    0.266014
     14          1           0        3.516737   -0.910329    1.282278
     15          1           0        2.308527    0.232496    0.703226
     16          1           0        3.246134   -2.255823   -0.807764
     17          1           0        2.038835   -1.113888   -1.387431
     18          1           0        0.567735   -1.662713    0.580138
     19          1           0        1.781893   -2.811137    1.163099
     20          1           0        0.933313   -3.118282   -0.361658
     21          6           0       -3.629952    0.826068    0.113078
     22          6           0       -4.968310    1.501800   -0.187203
     23          6           0       -4.936987    3.010614    0.058346
     24          1           0       -3.353089    1.023313    1.157772
     25          1           0       -2.848359    1.283609   -0.509146
     26          1           0       -5.747395    1.042179    0.434400
     27          1           0       -5.242113    1.302763   -1.231249
     28          1           0       -4.180193    3.487960   -0.572529
     29          1           0       -4.688345    3.225896    1.102584
     30          1           0       -5.903855    3.473467   -0.162547
     31          6           0       -3.645452   -0.682426   -0.127621
     32          6           0       -2.307095   -1.358158    0.172660
     33          6           0       -2.338418   -2.866971   -0.072889
     34          1           0       -4.427045   -1.139967    0.494604
     35          1           0       -3.922317   -0.879671   -1.172315
     36          1           0       -2.033292   -1.159120    1.216707
     37          1           0       -1.528010   -0.898537   -0.448942
     38          1           0       -2.587060   -3.082253   -1.117126
     39          1           0       -3.095213   -3.344317    0.557986
     40          1           0       -1.371550   -3.329825    0.148003
 ---------------------------------------------------------------------

 SCF Done:  E(RHF) =  -470.731804936     A.U. after   11 cycles
 E2 =    -0.1583625646D+01 EUMP2 =    -0.47231543058196D+03

 The electronic state is 1-A.
 Alpha  occ. eigenvalues --  -11.21606 -11.21597 -11.21583 -11.21578 -11.21402
 Alpha  occ. eigenvalues --  -11.21397 -11.21339 -11.21338 -11.21079 -11.21069
 Alpha  occ. eigenvalues --  -11.20972 -11.20920  -1.08445  -1.08400  -1.03591
 Alpha  occ. eigenvalues --   -1.03444  -0.96081  -0.95849  -0.87073  -0.86895
 Alpha  occ. eigenvalues --   -0.79640  -0.79551  -0.78283  -0.78197  -0.65094
 Alpha  occ. eigenvalues --   -0.65018  -0.61045  -0.60844  -0.59609  -0.59120
 Alpha  occ. eigenvalues --   -0.57620  -0.57584  -0.55281  -0.55144  -0.53028
 Alpha  occ. eigenvalues --   -0.52503  -0.52392  -0.52112  -0.49914  -0.49858
 Alpha  occ. eigenvalues --   -0.48038  -0.47758  -0.46671  -0.46558  -0.45845
 Alpha  occ. eigenvalues --   -0.45734  -0.45715  -0.45606  -0.43944  -0.43557
 Alpha virt. eigenvalues --    0.21977   0.23084   0.23567   0.25006   0.26395
 Alpha virt. eigenvalues --    0.26574   0.27067   0.27388   0.27752   0.29248
 Alpha virt. eigenvalues --    0.29857   0.30923   0.31426   0.31751   0.32546

 Mulliken charges:
               1
     1  C   -0.298248
     2  C   -0.299637
     3  C   -0.475687
     4  H    0.149655
     5  H    0.149349
     6  H    0.151921
     7  H    0.151968
     8  H    0.155133
     9  H    0.155169
    10  H    0.160251
    11  C   -0.298724
    12  C   -0.299602
    13  C   -0.484323
    14  H    0.149514
    15  H    0.149843
    16  H    0.151745
    17  H    0.151335
    18  H    0.165735
    19  H    0.154417
    20  H    0.160983
    21  C   -0.298302
    22  C   -0.299619
    23  C   -0.475688
    24  H    0.149473
    25  H    0.148976
    26  H    0.152046
    27  H    0.151967
    28  H    0.155032
    29  H    0.155158
    30  H    0.160304
    31  C   -0.297544
    32  C   -0.301764
    33  C   -0.481180
    34  H    0.149632
    35  H    0.149633
    36  H    0.151340
    37  H    0.152423
    38  H    0.153891
    39  H    0.154332
    40  H    0.169093
 Sum of Mulliken charges =  -0.00000

 Dipole moment (field-independent basis, Debye):
    X=              0.0056    Y=             -0.0090    Z=              0.0121  Tot=              0.0161
 Quadrupole moment (field-independent basis, Debye-Ang):
   XX=            -85.0794   YY=            -85.9749   ZZ=            -83.9215
   XY=             -0.8160   XZ=              0.2907   YZ=             -0.2764

 Normal termination of Gaussian 16 at Wed May  5 21:29:27 2021.
