 Gaussian 16, Revision A.03,
 Gaussian 16:  EM64L-G16RevA.03 25-Dec-2016

 -------------
 #p 6-31g* mp2
 -------------

 ------------------------------------------------------
 Input file generated by CHIRIPA (05-May-2021 14:55:20)
 ------------------------------------------------------
 Symbolic Z-matrix:
 Charge =  0 Multiplicity = 1

                         Standard orientation:
 ---------------------------------------------------------------------
 Center     Atomic      Atomic             Coordinates (Angstroms)
 Number     Number       Type             X           Y           Z
 ---------------------------------------------------------------------
      1          6           0        6.055487    0.951564    0.009834
      2          6           0        5.796561   -0.419565    0.107212
      3          6           0        4.482318   -0.896272    0.099142
      4          6           0        3.446397    0.030361   -0.008137
      5          6           0        3.672117    1.402447   -0.106726
      6          6           0        4.994309    1.856599   -0.096636
      7          1           0        7.079510    1.313121    0.016887
      8          1           0        6.618710   -1.124732    0.190010
      9          1           0        4.253407   -1.952463    0.173145
     10          1           0        2.831745    2.081102   -0.188093
     11          1           0        5.192411    2.921991   -0.172407
     12          7           0        2.050859   -0.462368   -0.017749
     13          8           0        1.155783    0.374504   -0.113250
     14          8           0        1.878538   -1.676111    0.070399
     15          6           0       -4.231222   -0.664656   -0.284687
     16          6           0       -2.872052   -0.708764    0.414381
     17          6           0       -1.933698   -1.757661   -0.183199
     18          1           0       -4.700453   -1.656105   -0.223070
     19          1           0       -4.079730   -0.456387   -1.352894
     20          1           0       -3.026151   -0.915517    1.481210
     21          1           0       -2.406086    0.282956    0.351261
     22          1           0       -1.750558   -1.551732   -1.242752
     23          1           0       -2.374145   -2.757014   -0.106384
     24          1           0       -0.967903   -1.772093    0.331479
     25          6           0       -5.180358    0.379041    0.301461
     26          6           0       -6.539528    0.423148   -0.397607
     27          6           0       -7.477882    1.472045    0.199973
     28          1           0       -5.331849    0.170771    1.369669
     29          1           0       -4.711127    1.370489    0.239845
     30          1           0       -7.005494   -0.568571   -0.334487
     31          1           0       -6.385429    0.629901   -1.464436
     32          1           0       -7.037435    2.471399    0.123158
     33          1           0       -7.661022    1.266117    1.259527
     34          1           0       -8.443676    1.486477   -0.314704
 ---------------------------------------------------------------------

 SCF Done:  E(RHF) =  -669.536629850     A.U. after   15 cycles
 E2 =    -0.2091621303D+01 EUMP2 =    -0.67162825115241D+03

 The electronic state is 1-A.
 Alpha  occ. eigenvalues --  -20.61086 -20.61077 -15.86082 -11.31371 -11.27922
 Alpha  occ. eigenvalues --  -11.27919 -11.27652 -11.26919 -11.26909 -11.20827
 Alpha  occ. eigenvalues --  -11.20447 -11.20402 -11.20113 -11.19892 -11.18822
 Alpha  occ. eigenvalues --   -1.60118  -1.39675  -1.19529  -1.08941  -1.07271
 Alpha  occ. eigenvalues --   -1.04918  -1.02232  -0.95790  -0.94661  -0.86320
 Alpha  occ. eigenvalues --   -0.85685  -0.82621  -0.78377  -0.77683  -0.77003
 Alpha  occ. eigenvalues --   -0.72283  -0.71423  -0.70637  -0.65183  -0.64921
 Alpha  occ. eigenvalues --   -0.63920  -0.62264  -0.59646  -0.58148  -0.56256
 Alpha  occ. eigenvalues --   -0.55414  -0.53988  -0.53252  -0.53008  -0.51388
 Alpha  occ. eigenvalues --   -0.51121  -0.49052  -0.48959  -0.48608  -0.46629
 Alpha  occ. eigenvalues --   -0.45457  -0.45096  -0.44547  -0.44440  -0.42420
 Alpha  occ. eigenvalues --   -0.37506  -0.36516
 Alpha virt. eigenvalues --    0.04846   0.11140   0.16356   0.21279   0.23905
 Alpha virt. eigenvalues --    0.25697   0.27202   0.27719   0.28166   0.28583
 Alpha virt. eigenvalues --    0.29399   0.30856   0.32377   0.32593   0.32756

 Mulliken charges:
               1
     1  C   -0.170419
     2  C   -0.218589
     3  C   -0.170653
     4  C    0.159404
     5  C   -0.170744
     6  C   -0.218604
     7  H    0.226267
     8  H    0.224112
     9  H    0.276105
    10  H    0.275911
    11  H    0.224078
    12  N    0.488385
    13  O   -0.458695
    14  O   -0.458228
    15  C   -0.296959
    16  C   -0.300279
    17  C   -0.478311
    18  H    0.145926
    19  H    0.147342
    20  H    0.144921
    21  H    0.157416
    22  H    0.150561
    23  H    0.141465
    24  H    0.187576
    25  C   -0.297027
    26  C   -0.298609
    27  C   -0.474969
    28  H    0.147341
    29  H    0.148342
    30  H    0.150569
    31  H    0.150663
    32  H    0.153968
    33  H    0.154034
    34  H    0.157699
 Sum of Mulliken charges =  -0.00000

 Dipole moment (field-independent basis, Debye):
    X=              5.4685    Y=              1.7805    Z=              0.0442  Tot=              5.7512
 Quadrupole moment (field-independent basis, Debye-Ang):
   XX=            -63.0025   YY=            -90.5425   ZZ=            -95.4586
   XY=              5.1150   XZ=              0.2524   YZ=             -1.2429

 Normal termination of Gaussian 16 at Thu May  6 07:42:50 2021.
