 Gaussian 16, Revision A.03,
 Gaussian 16:  EM64L-G16RevA.03 25-Dec-2016

 -------------
 #p 6-31g* mp2
 -------------

 ------------------------------------------------------
 Input file generated by CHIRIPA (05-May-2021 14:51:08)
 ------------------------------------------------------
 Symbolic Z-matrix:
 Charge =  0 Multiplicity = 1

                         Standard orientation:
 ---------------------------------------------------------------------
 Center     Atomic      Atomic             Coordinates (Angstroms)
 Number     Number       Type             X           Y           Z
 ---------------------------------------------------------------------
      1          6           0        2.497180   -0.676930   -0.008401
      2          6           0        2.592269   -2.042300   -0.690096
      3          6           0        1.305529   -2.858121   -0.561529
      4          1           0        2.256999   -0.820548    1.053970
      5          1           0        1.660175   -0.114480   -0.444826
      6          1           0        3.429709   -2.601468   -0.253472
      7          1           0        2.832440   -1.895422   -1.750927
      8          1           0        0.463860   -2.323935   -1.014122
      9          1           0        1.064523   -3.033992    0.491840
     10          1           0        1.395552   -3.830426   -1.055875
     11          6           0        3.775795    0.150413   -0.128295
     12          6           0        3.680706    1.515783    0.553400
     13          6           0        4.967447    2.331604    0.424833
     14          1           0        4.612801   -0.412037    0.308131
     15          1           0        4.015976    0.294031   -1.190666
     16          1           0        3.440535    1.368905    1.614231
     17          1           0        2.843266    2.074951    0.116777
     18          1           0        5.208452    2.507475   -0.628536
     19          1           0        5.809115    1.797418    0.877427
     20          1           0        4.877423    3.303909    0.919179
     21          6           0       -3.218796   -0.341481    0.527638
     22          6           0       -2.739742   -1.650256   -0.101329
     23          6           0       -2.910895   -2.850971    0.829682
     24          1           0       -2.665174   -0.166030    1.460197
     25          1           0       -4.276818   -0.442512    0.806527
     26          1           0       -1.683315   -1.546316   -0.380210
     27          1           0       -3.294434   -1.822513   -1.032597
     28          1           0       -3.963932   -2.982940    1.098566
     29          1           0       -2.343658   -2.705172    1.754661
     30          1           0       -2.562157   -3.776022    0.360083
     31          6           0       -3.054179    0.867998   -0.390943
     32          6           0       -3.533233    2.176772    0.238025
     33          6           0       -3.362081    3.377488   -0.692986
     34          1           0       -1.996158    0.969029   -0.669830
     35          1           0       -3.607802    0.692547   -1.323501
     36          1           0       -2.978541    2.349031    1.169294
     37          1           0       -4.589660    2.072833    0.516905
     38          1           0       -3.929316    3.231690   -1.617966
     39          1           0       -2.309044    3.509457   -0.961871
     40          1           0       -3.710818    4.302539   -0.223388
 ---------------------------------------------------------------------

 SCF Done:  E(RHF) =  -470.733274778     A.U. after   11 cycles
 E2 =    -0.1582808549D+01 EUMP2 =    -0.47231608332683D+03

 The electronic state is 1-A.
 Alpha  occ. eigenvalues --  -11.21642 -11.21639 -11.21590 -11.21515 -11.21458
 Alpha  occ. eigenvalues --  -11.21396 -11.21382 -11.21314 -11.21100 -11.21088
 Alpha  occ. eigenvalues --  -11.21069 -11.21004  -1.08476  -1.08397  -1.03576
 Alpha  occ. eigenvalues --   -1.03485  -0.96026  -0.95936  -0.87036  -0.86959
 Alpha  occ. eigenvalues --   -0.79668  -0.79528  -0.78308  -0.78197  -0.65127
 Alpha  occ. eigenvalues --   -0.65013  -0.61021  -0.60855  -0.59389  -0.59311
 Alpha  occ. eigenvalues --   -0.57678  -0.57506  -0.55324  -0.55220  -0.52711
 Alpha  occ. eigenvalues --   -0.52638  -0.52440  -0.52366  -0.50044  -0.49825
 Alpha  occ. eigenvalues --   -0.48072  -0.47789  -0.46782  -0.46472  -0.45936
 Alpha  occ. eigenvalues --   -0.45782  -0.45731  -0.45466  -0.43826  -0.43746
 Alpha virt. eigenvalues --    0.21260   0.23169   0.23577   0.24706   0.25469
 Alpha virt. eigenvalues --    0.26767   0.27146   0.27345   0.28364   0.29072
 Alpha virt. eigenvalues --    0.30496   0.31451   0.31836   0.31895   0.32043

 Mulliken charges:
               1
     1  C   -0.298365
     2  C   -0.299568
     3  C   -0.481368
     4  H    0.149553
     5  H    0.148550
     6  H    0.152133
     7  H    0.152076
     8  H    0.160859
     9  H    0.155777
    10  H    0.160591
    11  C   -0.298290
    12  C   -0.299645
    13  C   -0.475743
    14  H    0.149803
    15  H    0.149861
    16  H    0.151911
    17  H    0.151690
    18  H    0.155303
    19  H    0.155287
    20  H    0.160369
    21  C   -0.297602
    22  C   -0.306709
    23  C   -0.475123
    24  H    0.149694
    25  H    0.149291
    26  H    0.158894
    27  H    0.151234
    28  H    0.154661
    29  H    0.154728
    30  H    0.161036
    31  C   -0.298201
    32  C   -0.299640
    33  C   -0.475653
    34  H    0.148663
    35  H    0.149540
    36  H    0.152111
    37  H    0.151991
    38  H    0.155118
    39  H    0.154908
    40  H    0.160272
 Sum of Mulliken charges =  -0.00000

 Dipole moment (field-independent basis, Debye):
    X=              0.0288    Y=             -0.0190    Z=             -0.0017  Tot=              0.0346
 Quadrupole moment (field-independent basis, Debye-Ang):
   XX=            -84.5479   YY=            -85.9993   ZZ=            -84.1839
   XY=             -0.6685   XZ=              0.7055   YZ=              0.2619

 Normal termination of Gaussian 16 at Thu May  6 02:05:33 2021.
