 Gaussian 16, Revision A.03,
 Gaussian 16:  EM64L-G16RevA.03 25-Dec-2016

 -------------
 #p 6-31g* mp2
 -------------

 ------------------------------------------------------
 Input file generated by CHIRIPA (05-May-2021 14:57:21)
 ------------------------------------------------------
 Symbolic Z-matrix:
 Charge =  0 Multiplicity = 1

                         Standard orientation:
 ---------------------------------------------------------------------
 Center     Atomic      Atomic             Coordinates (Angstroms)
 Number     Number       Type             X           Y           Z
 ---------------------------------------------------------------------
      1          6           0        2.151449   -1.564321    0.206276
      2          6           0        3.233699   -1.771213    1.067932
      3          6           0        4.360259   -0.945811    1.003732
      4          6           0        4.370986    0.081586    0.061591
      5          6           0        3.308442    0.313095   -0.810587
      6          6           0        2.192202   -0.524660   -0.728585
      7          1           0        1.280318   -2.210311    0.263063
      8          1           0        3.204812   -2.577847    1.794949
      9          1           0        5.211980   -1.083589    1.658718
     10          1           0        3.366355    1.125415   -1.524870
     11          1           0        1.353167   -0.361637   -1.399024
     12          7           0        5.558162    0.961941   -0.015798
     13          8           0        5.543030    1.860132   -0.854643
     14          8           0        6.481323    0.737102    0.763854
     15          6           0       -6.224839    1.283956    0.747800
     16          6           0       -5.025537    1.978439    0.558357
     17          6           0       -3.883682    1.312444    0.103201
     18          6           0       -3.977186   -0.054481   -0.153828
     19          6           0       -5.157555   -0.774197    0.025132
     20          6           0       -6.286911   -0.087727    0.481054
     21          1           0       -7.107003    1.809270    1.101673
     22          1           0       -4.974401    3.043732    0.764708
     23          1           0       -2.942407    1.825573   -0.052096
     24          1           0       -5.177675   -1.835857   -0.189085
     25          1           0       -7.216961   -0.629641    0.627273
     26          7           0       -2.774973   -0.770378   -0.636086
     27          8           0       -2.883398   -1.974873   -0.855339
     28          8           0       -1.747015   -0.113448   -0.785695
 ---------------------------------------------------------------------

 SCF Done:  E(RHF) =  -868.340743023     A.U. after   16 cycles
 E2 =    -0.2598077592D+01 EUMP2 =    -0.87093882061483D+03

 The electronic state is 1-A.
 Alpha  occ. eigenvalues --  -20.61845 -20.61838 -20.60021 -20.60015 -15.86862
 Alpha  occ. eigenvalues --  -15.85063 -11.31904 -11.30199 -11.28433 -11.28427
 Alpha  occ. eigenvalues --  -11.28112 -11.27374 -11.27361 -11.26769 -11.26665
 Alpha  occ. eigenvalues --  -11.26274 -11.25727 -11.25450  -1.60908  -1.59101
 Alpha  occ. eigenvalues --   -1.40467  -1.38661  -1.20046  -1.18317  -1.09502
 Alpha  occ. eigenvalues --   -1.07724  -1.05398  -1.03675  -0.96391  -0.94612
 Alpha  occ. eigenvalues --   -0.86811  -0.85056  -0.83234  -0.81454  -0.78315
 Alpha  occ. eigenvalues --   -0.76555  -0.73104  -0.72202  -0.71286  -0.71147
 Alpha  occ. eigenvalues --   -0.70423  -0.69361  -0.65702  -0.65396  -0.63944
 Alpha  occ. eigenvalues --   -0.63615  -0.62747  -0.61015  -0.55909  -0.54086
 Alpha  occ. eigenvalues --   -0.53746  -0.53484  -0.52035  -0.51728  -0.49866
 Alpha  occ. eigenvalues --   -0.49829  -0.48057  -0.48015  -0.45939  -0.44120
 Alpha  occ. eigenvalues --   -0.38006  -0.36987  -0.36251  -0.35290
 Alpha virt. eigenvalues --    0.04194   0.05948   0.10673   0.12375   0.15760
 Alpha virt. eigenvalues --    0.17531   0.20849   0.22684   0.26789   0.27681
 Alpha virt. eigenvalues --    0.28565   0.29522   0.30471   0.31886   0.32336

 Mulliken charges:
               1
     1  C   -0.173110
     2  C   -0.219739
     3  C   -0.173431
     4  C    0.157749
     5  C   -0.174425
     6  C   -0.221622
     7  H    0.234415
     8  H    0.219633
     9  H    0.271536
    10  H    0.272360
    11  H    0.242856
    12  N    0.488183
    13  O   -0.463003
    14  O   -0.463663
    15  C   -0.169612
    16  C   -0.218540
    17  C   -0.170390
    18  C    0.157298
    19  C   -0.170447
    20  C   -0.218600
    21  H    0.228223
    22  H    0.226142
    23  H    0.276013
    24  H    0.275929
    25  H    0.225501
    26  N    0.490556
    27  O   -0.460234
    28  O   -0.469578
 Sum of Mulliken charges =  -0.00000

 Dipole moment (field-independent basis, Debye):
    X=             -9.0700    Y=             -0.5918    Z=              1.9228  Tot=              9.2904
 Quadrupole moment (field-independent basis, Debye-Ang):
   XX=           -106.9713   YY=           -101.2150   ZZ=           -103.8731
   XY=            -22.9700   XZ=             -3.8331   YZ=             -2.5117

 Normal termination of Gaussian 16 at Thu May  6 16:07:48 2021.
