 Gaussian 16, Revision A.03,
 Gaussian 16:  EM64L-G16RevA.03 25-Dec-2016

 -------------
 #p 6-31g* mp2
 -------------

 ------------------------------------------------------
 Input file generated by CHIRIPA (05-May-2021 14:55:23)
 ------------------------------------------------------
 Symbolic Z-matrix:
 Charge =  0 Multiplicity = 1

                         Standard orientation:
 ---------------------------------------------------------------------
 Center     Atomic      Atomic             Coordinates (Angstroms)
 Number     Number       Type             X           Y           Z
 ---------------------------------------------------------------------
      1          6           0        1.242987   -1.430246    1.690567
      2          6           0        2.537988   -1.877785    1.409141
      3          6           0        3.373300   -1.145845    0.559986
      4          6           0        2.879001    0.034497    0.007038
      5          6           0        1.593598    0.506554    0.268171
      6          6           0        0.775748   -0.241601    1.120190
      7          1           0        0.600879   -2.005133    2.351324
      8          1           0        2.903513   -2.800539    1.850686
      9          1           0        4.380116   -1.469230    0.325122
     10          1           0        1.257270    1.430235   -0.186926
     11          1           0       -0.229519    0.108384    1.336967
     12          7           0        3.754065    0.817953   -0.893440
     13          8           0        3.294910    1.854598   -1.367972
     14          8           0        4.882526    0.380545   -1.107653
     15          6           0       -3.359355   -0.623310   -0.102387
     16          6           0       -3.822573   -1.485711   -1.276984
     17          6           0       -3.533251   -2.972588   -1.068942
     18          1           0       -2.281379   -0.770769    0.049828
     19          1           0       -3.854822   -0.969314    0.815321
     20          1           0       -3.327434   -1.137294   -2.192439
     21          1           0       -4.899534   -1.336035   -1.426543
     22          1           0       -4.040155   -3.341805   -0.171541
     23          1           0       -2.459121   -3.141934   -0.941790
     24          1           0       -3.872517   -3.570587   -1.920502
     25          6           0       -3.641683    0.865550   -0.295559
     26          6           0       -3.178465    1.727952    0.879038
     27          6           0       -3.467787    3.214830    0.670996
     28          1           0       -3.146216    1.211556   -1.213267
     29          1           0       -4.719658    1.013010   -0.447773
     30          1           0       -2.101503    1.578276    1.028596
     31          1           0       -3.673605    1.379534    1.794494
     32          1           0       -4.541916    3.384175    0.543844
     33          1           0       -2.960883    3.584047   -0.226405
     34          1           0       -3.128520    3.812828    1.522556
 ---------------------------------------------------------------------

 SCF Done:  E(RHF) =  -669.535390501     A.U. after   15 cycles
 E2 =    -0.2091989124D+01 EUMP2 =    -0.67162737962438D+03

 The electronic state is 1-A.
 Alpha  occ. eigenvalues --  -20.60768 -20.60763 -15.85822 -11.31190 -11.27763
 Alpha  occ. eigenvalues --  -11.27758 -11.27496 -11.26769 -11.26726 -11.22536
 Alpha  occ. eigenvalues --  -11.22205 -11.22151 -11.22092 -11.21705 -11.21612
 Alpha  occ. eigenvalues --   -1.59844  -1.39397  -1.19362  -1.09181  -1.08753
 Alpha  occ. eigenvalues --   -1.04767  -1.04218  -0.96641  -0.95589  -0.87657
 Alpha  occ. eigenvalues --   -0.86165  -0.82426  -0.80303  -0.79025  -0.77465
 Alpha  occ. eigenvalues --   -0.72040  -0.71167  -0.70465  -0.65888  -0.65012
 Alpha  occ. eigenvalues --   -0.64721  -0.62135  -0.61593  -0.60012  -0.58264
 Alpha  occ. eigenvalues --   -0.55922  -0.55260  -0.53338  -0.53120  -0.53037
 Alpha  occ. eigenvalues --   -0.52868  -0.50585  -0.48809  -0.48795  -0.48603
 Alpha  occ. eigenvalues --   -0.47344  -0.46509  -0.46431  -0.44802  -0.44479
 Alpha  occ. eigenvalues --   -0.37336  -0.36361
 Alpha virt. eigenvalues --    0.05065   0.11174   0.16515   0.19419   0.22767
 Alpha virt. eigenvalues --    0.23548   0.24835   0.26338   0.27318   0.28033
 Alpha virt. eigenvalues --    0.29353   0.30180   0.31098   0.31416   0.32178

 Mulliken charges:
               1
     1  C   -0.173054
     2  C   -0.218506
     3  C   -0.170845
     4  C    0.158593
     5  C   -0.174098
     6  C   -0.226662
     7  H    0.226928
     8  H    0.223475
     9  H    0.275671
    10  H    0.274965
    11  H    0.236509
    12  N    0.488143
    13  O   -0.460471
    14  O   -0.460486
    15  C   -0.302893
    16  C   -0.299759
    17  C   -0.476622
    18  H    0.145573
    19  H    0.148908
    20  H    0.155279
    21  H    0.154162
    22  H    0.154233
    23  H    0.154804
    24  H    0.163267
    25  C   -0.299109
    26  C   -0.304334
    27  C   -0.476000
    28  H    0.152826
    29  H    0.153660
    30  H    0.143202
    31  H    0.153523
    32  H    0.158494
    33  H    0.158412
    34  H    0.162213
 Sum of Mulliken charges =  -0.00000

 Dipole moment (field-independent basis, Debye):
    X=             -3.2520    Y=             -2.7311    Z=              3.1012  Tot=              5.2584
 Quadrupole moment (field-independent basis, Debye-Ang):
   XX=           -108.6268   YY=            -93.9015   ZZ=            -95.1276
   XY=            -10.9729   XZ=              9.5215   YZ=             -0.4588

 Normal termination of Gaussian 16 at Thu May  6 17:37:00 2021.
