 Gaussian 16, Revision A.03,
 Gaussian 16:  EM64L-G16RevA.03 25-Dec-2016

 -------------
 #p 6-31g* mp2
 -------------

 ------------------------------------------------------
 Input file generated by CHIRIPA (05-May-2021 14:55:24)
 ------------------------------------------------------
 Symbolic Z-matrix:
 Charge =  0 Multiplicity = 1

                         Standard orientation:
 ---------------------------------------------------------------------
 Center     Atomic      Atomic             Coordinates (Angstroms)
 Number     Number       Type             X           Y           Z
 ---------------------------------------------------------------------
      1          6           0       -1.235779   -2.115266    1.021807
      2          6           0       -2.462782   -1.762098    1.592997
      3          6           0       -3.240706   -0.745046    1.031760
      4          6           0       -2.758982   -0.099182   -0.105822
      5          6           0       -1.540704   -0.428208   -0.698132
      6          6           0       -0.779461   -1.448369   -0.119921
      7          1           0       -0.637948   -2.906544    1.464382
      8          1           0       -2.819669   -2.278300    2.479682
      9          1           0       -4.194330   -0.451479    1.453468
     10          1           0       -1.211335    0.104477   -1.581976
     11          1           0        0.173056   -1.720531   -0.565662
     12          7           0       -3.573706    0.979172   -0.708963
     13          8           0       -3.127024    1.532890   -1.711215
     14          8           0       -4.643542    1.250249   -0.168032
     15          6           0        3.250410   -0.394904    0.108142
     16          6           0        3.882065   -1.251454   -0.989728
     17          6           0        3.655014   -2.748285   -0.775865
     18          1           0        3.663165   -0.694484    1.081194
     19          1           0        2.171864   -0.600904    0.149324
     20          1           0        4.958871   -1.042878   -1.029754
     21          1           0        3.467900   -0.949670   -1.960299
     22          1           0        2.584474   -2.976760   -0.757329
     23          1           0        4.083917   -3.070498    0.178504
     24          1           0        4.114865   -3.341895   -1.572122
     25          6           0        3.468837    1.103786   -0.091715
     26          6           0        2.837182    1.960337    1.006156
     27          6           0        3.064232    3.457168    0.792293
     28          1           0        4.547383    1.309787   -0.132896
     29          1           0        3.056081    1.403366   -1.064766
     30          1           0        3.251347    1.658552    1.976728
     31          1           0        1.760375    1.751762    1.046182
     32          1           0        2.635330    3.779381   -0.162076
     33          1           0        4.134773    3.685643    0.773757
     34          1           0        2.604382    4.050778    1.588550
 ---------------------------------------------------------------------

 SCF Done:  E(RHF) =  -669.535316525     A.U. after   15 cycles
 E2 =    -0.2092069191D+01 EUMP2 =    -0.67162738571597D+03

 The electronic state is 1-A.
 Alpha  occ. eigenvalues --  -20.60795 -20.60790 -15.85850 -11.31227 -11.27810
 Alpha  occ. eigenvalues --  -11.27801 -11.27538 -11.26807 -11.26794 -11.22379
 Alpha  occ. eigenvalues --  -11.22104 -11.22042 -11.21931 -11.21852 -11.21248
 Alpha  occ. eigenvalues --   -1.59871  -1.39424  -1.19405  -1.09040  -1.08791
 Alpha  occ. eigenvalues --   -1.04813  -1.04101  -0.96560  -0.95625  -0.87574
 Alpha  occ. eigenvalues --   -0.86210  -0.82462  -0.80177  -0.78827  -0.77504
 Alpha  occ. eigenvalues --   -0.72068  -0.71194  -0.70502  -0.65780  -0.65055
 Alpha  occ. eigenvalues --   -0.64760  -0.62187  -0.61465  -0.59939  -0.58154
 Alpha  occ. eigenvalues --   -0.55877  -0.55299  -0.53241  -0.53141  -0.52978
 Alpha  occ. eigenvalues --   -0.52910  -0.50520  -0.48838  -0.48822  -0.48472
 Alpha  occ. eigenvalues --   -0.47207  -0.46347  -0.46256  -0.44827  -0.44348
 Alpha  occ. eigenvalues --   -0.37370  -0.36396
 Alpha virt. eigenvalues --    0.05026   0.11132   0.16433   0.18938   0.22880
 Alpha virt. eigenvalues --    0.23583   0.25538   0.26590   0.27250   0.28407
 Alpha virt. eigenvalues --    0.28877   0.30100   0.31112   0.31660   0.31945

 Mulliken charges:
               1
     1  C   -0.172367
     2  C   -0.218598
     3  C   -0.170560
     4  C    0.158773
     5  C   -0.173329
     6  C   -0.221816
     7  H    0.226474
     8  H    0.223737
     9  H    0.275850
    10  H    0.275861
    11  H    0.230692
    12  N    0.488088
    13  O   -0.460435
    14  O   -0.460279
    15  C   -0.303655
    16  C   -0.301091
    17  C   -0.476462
    18  H    0.151169
    19  H    0.144823
    20  H    0.156603
    21  H    0.152026
    22  H    0.144551
    23  H    0.157787
    24  H    0.165135
    25  C   -0.298253
    26  C   -0.300787
    27  C   -0.476269
    28  H    0.151570
    29  H    0.150286
    30  H    0.151501
    31  H    0.153727
    32  H    0.157744
    33  H    0.155117
    34  H    0.162390
 Sum of Mulliken charges =  -0.00000

 Dipole moment (field-independent basis, Debye):
    X=              2.9660    Y=             -3.7304    Z=              2.1560  Tot=              5.2308
 Quadrupole moment (field-independent basis, Debye-Ang):
   XX=           -107.1756   YY=            -95.6635   ZZ=            -92.7574
   XY=             10.7119   XZ=             -8.7012   YZ=             -0.4344

 Normal termination of Gaussian 16 at Wed May  5 19:06:55 2021.
