 Gaussian 16, Revision A.03,
 Gaussian 16:  EM64L-G16RevA.03 25-Dec-2016

 -------------
 #p 6-31g* mp2
 -------------

 ------------------------------------------------------
 Input file generated by CHIRIPA (05-May-2021 14:55:23)
 ------------------------------------------------------
 Symbolic Z-matrix:
 Charge =  0 Multiplicity = 1

                         Standard orientation:
 ---------------------------------------------------------------------
 Center     Atomic      Atomic             Coordinates (Angstroms)
 Number     Number       Type             X           Y           Z
 ---------------------------------------------------------------------
      1          6           0        0.724451    0.782735    2.124104
      2          6           0        1.777597    1.524937    1.579548
      3          6           0        2.588230    0.979217    0.579742
      4          6           0        2.316144   -0.317399    0.146098
      5          6           0        1.274385   -1.082038    0.668932
      6          6           0        0.476643   -0.516093    1.667863
      7          1           0        0.099739    1.214519    2.900438
      8          1           0        1.972378    2.533861    1.931936
      9          1           0        3.410173    1.531599    0.140763
     10          1           0        1.104766   -2.085288    0.297264
     11          1           0       -0.340548   -1.094824    2.088948
     12          7           0        3.167502   -0.905833   -0.911888
     13          8           0        2.907068   -2.050260   -1.276715
     14          8           0        4.079108   -0.211479   -1.356279
     15          6           0       -2.268635    0.831448   -0.287764
     16          6           0       -2.476417    2.065709   -1.166064
     17          6           0       -1.435459    3.155842   -0.909526
     18          1           0       -2.302185    1.131151    0.768644
     19          1           0       -1.262268    0.428090   -0.466427
     20          1           0       -3.482602    2.465807   -0.986816
     21          1           0       -2.442561    1.763001   -2.220501
     22          1           0       -0.426602    2.779301   -1.107074
     23          1           0       -1.472552    3.486100    0.133620
     24          1           0       -1.602770    4.028927   -1.547953
     25          6           0       -3.301490   -0.267179   -0.532633
     26          6           0       -3.093709   -1.501440    0.345668
     27          6           0       -4.134666   -2.591573    0.089130
     28          1           0       -4.307858    0.136179   -0.353970
     29          1           0       -3.267941   -0.566882   -1.589040
     30          1           0       -3.127565   -1.198732    1.400105
     31          1           0       -2.087524   -1.901538    0.166420
     32          1           0       -4.097574   -2.921831   -0.954017
     33          1           0       -5.143524   -2.215032    0.286678
     34          1           0       -3.967356   -3.464657    0.727558
 ---------------------------------------------------------------------

 SCF Done:  E(RHF) =  -669.534297506     A.U. after   15 cycles
 E2 =    -0.2094855346D+01 EUMP2 =    -0.67162915285272D+03

 The electronic state is 1-A.
 Alpha  occ. eigenvalues --  -20.60802 -20.60797 -15.85854 -11.31232 -11.27770
 Alpha  occ. eigenvalues --  -11.27740 -11.27457 -11.26802 -11.26714 -11.22354
 Alpha  occ. eigenvalues --  -11.21920 -11.21857 -11.21686 -11.21606 -11.21418
 Alpha  occ. eigenvalues --   -1.59878  -1.39431  -1.19385  -1.08936  -1.08741
 Alpha  occ. eigenvalues --   -1.04782  -1.04013  -0.96429  -0.95609  -0.87453
 Alpha  occ. eigenvalues --   -0.86172  -0.82445  -0.80117  -0.78749  -0.77474
 Alpha  occ. eigenvalues --   -0.72070  -0.71203  -0.70474  -0.65546  -0.65018
 Alpha  occ. eigenvalues --   -0.64767  -0.62136  -0.61406  -0.59809  -0.58067
 Alpha  occ. eigenvalues --   -0.55709  -0.55265  -0.53337  -0.53117  -0.52852
 Alpha  occ. eigenvalues --   -0.52759  -0.50375  -0.48834  -0.48827  -0.48402
 Alpha  occ. eigenvalues --   -0.47153  -0.46257  -0.46108  -0.44834  -0.44244
 Alpha  occ. eigenvalues --   -0.37289  -0.36285
 Alpha virt. eigenvalues --    0.04978   0.11215   0.16370   0.20248   0.22874
 Alpha virt. eigenvalues --    0.23470   0.25275   0.25920   0.27478   0.28410
 Alpha virt. eigenvalues --    0.29260   0.29626   0.30884   0.31480   0.32072

 Mulliken charges:
               1
     1  C   -0.168594
     2  C   -0.217100
     3  C   -0.172888
     4  C    0.159223
     5  C   -0.176300
     6  C   -0.215135
     7  H    0.225095
     8  H    0.224004
     9  H    0.275721
    10  H    0.275290
    11  H    0.228399
    12  N    0.488055
    13  O   -0.460521
    14  O   -0.460215
    15  C   -0.300609
    16  C   -0.299953
    17  C   -0.475550
    18  H    0.139596
    19  H    0.160009
    20  H    0.151115
    21  H    0.154813
    22  H    0.158142
    23  H    0.148642
    24  H    0.161444
    25  C   -0.298022
    26  C   -0.302019
    27  C   -0.475557
    28  H    0.150113
    29  H    0.153568
    30  H    0.144915
    31  H    0.148111
    32  H    0.159315
    33  H    0.157013
    34  H    0.159878
 Sum of Mulliken charges =  -0.00000

 Dipole moment (field-independent basis, Debye):
    X=             -3.0112    Y=              2.0583    Z=              3.6599  Tot=              5.1671
 Quadrupole moment (field-independent basis, Debye-Ang):
   XX=           -107.8608   YY=            -93.4699   ZZ=            -93.7690
   XY=              7.8147   XZ=              7.9625   YZ=             -0.7551

 Normal termination of Gaussian 16 at Thu May  6 12:39:06 2021.
