 Gaussian 16, Revision A.03,
 Gaussian 16:  EM64L-G16RevA.03 25-Dec-2016

 -------------
 #p 6-31g* mp2
 -------------

 ------------------------------------------------------
 Input file generated by CHIRIPA (05-May-2021 14:55:20)
 ------------------------------------------------------
 Symbolic Z-matrix:
 Charge =  0 Multiplicity = 1

                         Standard orientation:
 ---------------------------------------------------------------------
 Center     Atomic      Atomic             Coordinates (Angstroms)
 Number     Number       Type             X           Y           Z
 ---------------------------------------------------------------------
      1          6           0       -1.300580    2.522896   -0.427694
      2          6           0       -2.118263    2.126989    0.635872
      3          6           0       -2.698680    0.855193    0.649996
      4          6           0       -2.438985    0.000938   -0.420563
      5          6           0       -1.628807    0.366192   -1.494570
      6          6           0       -1.058888    1.642785   -1.487652
      7          1           0       -0.853775    3.512721   -0.430493
      8          1           0       -2.307712    2.808402    1.460390
      9          1           0       -3.335674    0.522931    1.460711
     10          1           0       -1.458366   -0.335121   -2.302363
     11          1           0       -0.424281    1.947552   -2.314959
     12          7           0       -3.047890   -1.347995   -0.416749
     13          8           0       -2.803555   -2.081982   -1.371841
     14          8           0       -3.757955   -1.645759    0.541260
     15          6           0        2.364787   -0.641266    0.787807
     16          6           0        1.523348    0.209681    1.739571
     17          6           0        0.269033   -0.515211    2.228467
     18          1           0        1.749206   -0.933653   -0.073886
     19          1           0        2.652692   -1.571781    1.296380
     20          1           0        1.238277    1.138934    1.229826
     21          1           0        2.141059    0.500236    2.599004
     22          1           0        0.537569   -1.433508    2.760652
     23          1           0       -0.370342   -0.791181    1.383695
     24          1           0       -0.317693    0.111243    2.907561
     25          6           0        3.622106    0.069723    0.290444
     26          6           0        4.463545   -0.781223   -0.661320
     27          6           0        5.717860   -0.056330   -1.150216
     28          1           0        3.334202    1.000240   -0.218128
     29          1           0        4.237687    0.362111    1.152136
     30          1           0        3.845834   -1.071779   -1.520754
     31          1           0        4.748617   -1.710475   -0.151575
     32          1           0        6.357236    0.219639   -0.305444
     33          1           0        5.449324    0.861966   -1.682402
     34          1           0        6.304586   -0.682784   -1.829311
 ---------------------------------------------------------------------

 SCF Done:  E(RHF) =  -669.534237802     A.U. after   15 cycles
 E2 =    -0.2094599018D+01 EUMP2 =    -0.67162883681967D+03

 The electronic state is 1-A.
 Alpha  occ. eigenvalues --  -20.60832 -20.60819 -15.85880 -11.31233 -11.27877
 Alpha  occ. eigenvalues --  -11.27827 -11.27634 -11.26896 -11.26866 -11.21789
 Alpha  occ. eigenvalues --  -11.21670 -11.21599 -11.21463 -11.21288 -11.20997
 Alpha  occ. eigenvalues --   -1.59905  -1.39456  -1.19477  -1.08862  -1.08572
 Alpha  occ. eigenvalues --   -1.04875  -1.03648  -0.96104  -0.95681  -0.87120
 Alpha  occ. eigenvalues --   -0.86267  -0.82511  -0.79724  -0.78389  -0.77549
 Alpha  occ. eigenvalues --   -0.72099  -0.71248  -0.70575  -0.65222  -0.65119
 Alpha  occ. eigenvalues --   -0.64871  -0.62215  -0.61103  -0.59481  -0.57718
 Alpha  occ. eigenvalues --   -0.55563  -0.55375  -0.53157  -0.52962  -0.52726
 Alpha  occ. eigenvalues --   -0.52468  -0.50010  -0.48861  -0.48852  -0.48021
 Alpha  occ. eigenvalues --   -0.46789  -0.45913  -0.45878  -0.44849  -0.43922
 Alpha  occ. eigenvalues --   -0.37364  -0.36423
 Alpha virt. eigenvalues --    0.04946   0.11153   0.16387   0.21180   0.22678
 Alpha virt. eigenvalues --    0.24076   0.26340   0.26928   0.27197   0.28004
 Alpha virt. eigenvalues --    0.28273   0.30591   0.31361   0.31671   0.31812

 Mulliken charges:
               1
     1  C   -0.171203
     2  C   -0.215309
     3  C   -0.167344
     4  C    0.156286
     5  C   -0.173024
     6  C   -0.217703
     7  H    0.226460
     8  H    0.224079
     9  H    0.276088
    10  H    0.276089
    11  H    0.223947
    12  N    0.489205
    13  O   -0.460708
    14  O   -0.459630
    15  C   -0.298419
    16  C   -0.300664
    17  C   -0.473527
    18  H    0.149649
    19  H    0.151856
    20  H    0.148772
    21  H    0.149921
    22  H    0.156981
    23  H    0.158240
    24  H    0.153311
    25  C   -0.297418
    26  C   -0.299624
    27  C   -0.475475
    28  H    0.144292
    29  H    0.149888
    30  H    0.151266
    31  H    0.154102
    32  H    0.155621
    33  H    0.152717
    34  H    0.161278
 Sum of Mulliken charges =  -0.00000

 Dipole moment (field-independent basis, Debye):
    X=              2.0446    Y=              4.7400    Z=             -0.0243  Tot=              5.1622
 Quadrupole moment (field-independent basis, Debye-Ang):
   XX=           -105.5232   YY=            -95.0866   ZZ=            -90.7986
   XY=            -12.9887   XZ=             -2.3360   YZ=             -1.1799

 Normal termination of Gaussian 16 at Thu May  6 15:45:24 2021.
