 Gaussian 16, Revision A.03,
 Gaussian 16:  EM64L-G16RevA.03 25-Dec-2016

 -------------
 #p 6-31g* mp2
 -------------

 ------------------------------------------------------
 Input file generated by CHIRIPA (05-May-2021 14:53:16)
 ------------------------------------------------------
 Symbolic Z-matrix:
 Charge =  0 Multiplicity = 1

                         Standard orientation:
 ---------------------------------------------------------------------
 Center     Atomic      Atomic             Coordinates (Angstroms)
 Number     Number       Type             X           Y           Z
 ---------------------------------------------------------------------
      1          6           0       -4.136324    0.870043    0.019331
      2          6           0       -2.660961    0.891796   -0.381688
      3          6           0       -1.949805    2.174556    0.050258
      4          1           0       -4.642871    1.738647   -0.423255
      5          1           0       -4.214541    0.984506    1.109366
      6          1           0       -2.585491    0.775938   -1.470493
      7          1           0       -2.157909    0.022935    0.061747
      8          1           0       -1.995458    2.292873    1.137694
      9          1           0       -2.425469    3.050155   -0.403252
     10          1           0       -0.896342    2.168963   -0.246466
     11          6           0       -4.860859   -0.405980   -0.405570
     12          6           0       -6.336222   -0.427733   -0.004551
     13          6           0       -7.047379   -1.710493   -0.436497
     14          1           0       -4.782643   -0.520443   -1.495605
     15          1           0       -4.354313   -1.274584    0.037016
     16          1           0       -6.839274    0.441128   -0.447986
     17          1           0       -6.411693   -0.311875    1.084254
     18          1           0       -6.571715   -2.586092    0.017013
     19          1           0       -7.001726   -1.828810   -1.523933
     20          1           0       -8.100841   -1.704900   -0.139773
     21          6           0        5.744450   -0.471255   -0.993357
     22          6           0        5.117878   -1.568247   -0.392909
     23          6           0        3.882232   -1.419240    0.243896
     24          6           0        3.298944   -0.153240    0.261495
     25          6           0        3.898196    0.958981   -0.327699
     26          6           0        5.133686    0.786640   -0.958896
     27          1           0        6.704270   -0.596071   -1.485865
     28          1           0        5.589872   -2.546322   -0.418124
     29          1           0        3.375086   -2.251499    0.716727
     30          1           0        3.403099    1.921572   -0.286253
     31          1           0        5.617977    1.640360   -1.424376
     32          7           0        1.990903    0.016858    0.932684
     33          8           0        1.497786    1.142678    0.934417
     34          8           0        1.483545   -0.978860    1.444320
 ---------------------------------------------------------------------

 SCF Done:  E(RHF) =  -669.536053801     A.U. after   15 cycles
 E2 =    -0.2090846521D+01 EUMP2 =    -0.67162690032190D+03

 The electronic state is 1-A.
 Alpha  occ. eigenvalues --  -20.60942 -20.60937 -15.85973 -11.31295 -11.27859
 Alpha  occ. eigenvalues --  -11.27855 -11.27596 -11.26866 -11.26857 -11.20932
 Alpha  occ. eigenvalues --  -11.20557 -11.20519 -11.20369 -11.20283 -11.19459
 Alpha  occ. eigenvalues --   -1.60002  -1.39559  -1.19464  -1.08868  -1.07485
 Alpha  occ. eigenvalues --   -1.04860  -1.02513  -0.95712  -0.94954  -0.86261
 Alpha  occ. eigenvalues --   -0.85977  -0.82543  -0.78619  -0.77597  -0.77268
 Alpha  occ. eigenvalues --   -0.72197  -0.71317  -0.70573  -0.65120  -0.64863
 Alpha  occ. eigenvalues --   -0.64120  -0.62208  -0.59911  -0.58370  -0.56548
 Alpha  occ. eigenvalues --   -0.55364  -0.54255  -0.53192  -0.52952  -0.51626
 Alpha  occ. eigenvalues --   -0.51395  -0.49015  -0.48950  -0.48838  -0.46924
 Alpha  occ. eigenvalues --   -0.45669  -0.44968  -0.44800  -0.44712  -0.42742
 Alpha  occ. eigenvalues --   -0.37442  -0.36462
 Alpha virt. eigenvalues --    0.04905   0.11193   0.16383   0.21319   0.23762
 Alpha virt. eigenvalues --    0.25392   0.27242   0.27556   0.28129   0.28421
 Alpha virt. eigenvalues --    0.29101   0.30865   0.32303   0.32375   0.32634

 Mulliken charges:
               1
     1  C   -0.297435
     2  C   -0.301540
     3  C   -0.475732
     4  H    0.145835
     5  H    0.149943
     6  H    0.144331
     7  H    0.160988
     8  H    0.157621
     9  H    0.143339
    10  H    0.174476
    11  C   -0.297805
    12  C   -0.298944
    13  C   -0.475203
    14  H    0.146763
    15  H    0.150832
    16  H    0.150261
    17  H    0.151805
    18  H    0.154969
    19  H    0.153683
    20  H    0.158181
    21  C   -0.170598
    22  C   -0.218557
    23  C   -0.170685
    24  C    0.158007
    25  C   -0.170813
    26  C   -0.218530
    27  H    0.226005
    28  H    0.223822
    29  H    0.275817
    30  H    0.275713
    31  H    0.223865
    32  N    0.489711
    33  O   -0.460524
    34  O   -0.459601
 Sum of Mulliken charges =  -0.00000

 Dipole moment (field-independent basis, Debye):
    X=              4.9559    Y=             -0.6409    Z=             -2.2663  Tot=              5.4871
 Quadrupole moment (field-independent basis, Debye-Ang):
   XX=            -66.5540   YY=            -90.6851   ZZ=            -95.8837
   XY=             -3.2211   XZ=             -7.1217   YZ=             -1.6467

 Normal termination of Gaussian 16 at Thu May  6 02:44:18 2021.
