 Gaussian 16, Revision A.03,
 Gaussian 16:  EM64L-G16RevA.03 25-Dec-2016

 -------------
 #p 6-31g* mp2
 -------------

 ------------------------------------------------------
 Input file generated by CHIRIPA (05-May-2021 14:51:11)
 ------------------------------------------------------
 Symbolic Z-matrix:
 Charge =  0 Multiplicity = 1

                         Standard orientation:
 ---------------------------------------------------------------------
 Center     Atomic      Atomic             Coordinates (Angstroms)
 Number     Number       Type             X           Y           Z
 ---------------------------------------------------------------------
      1          6           0        3.097730    1.020460   -0.121139
      2          6           0        2.274656    2.073650    0.621374
      3          6           0        2.994607    3.418168    0.729709
      4          1           0        4.057659    0.883425    0.395293
      5          1           0        3.334549    1.392760   -1.127471
      6          1           0        2.038283    1.698899    1.625518
      7          1           0        1.316495    2.208056    0.103223
      8          1           0        3.216638    3.817531   -0.265184
      9          1           0        3.942527    3.305481    1.265760
     10          1           0        2.388360    4.156288    1.264034
     11          6           0        2.391329   -0.329047   -0.237568
     12          6           0        3.214403   -1.382236   -0.980081
     13          6           0        2.494452   -2.726754   -1.088416
     14          1           0        2.154509   -0.701346    0.768764
     15          1           0        1.431399   -0.192011   -0.754000
     16          1           0        4.172563   -1.516642   -0.461930
     17          1           0        3.450775   -1.007485   -1.984225
     18          1           0        1.546532   -2.614067   -1.624467
     19          1           0        2.272421   -3.126117   -0.093523
     20          1           0        3.100698   -3.464874   -1.622741
     21          6           0       -2.664148   -1.082081    0.365699
     22          6           0       -1.285761   -1.415983    0.937138
     23          6           0       -1.140328   -2.892874    1.305153
     24          1           0       -3.434462   -1.356162    1.099485
     25          1           0       -2.844754   -1.701971   -0.523408
     26          1           0       -1.107236   -0.794658    1.824099
     27          1           0       -0.518629   -1.140897    0.201984
     28          1           0       -1.292160   -3.525977    0.424965
     29          1           0       -1.884113   -3.177770    2.056298
     30          1           0       -0.147491   -3.109443    1.711644
     31          6           0       -2.824910    0.390667   -0.006992
     32          6           0       -4.203297    0.724569   -0.578431
     33          6           0       -4.348731    2.201460   -0.946445
     34          1           0       -2.644303    1.010557    0.882116
     35          1           0       -2.054597    0.664748   -0.740778
     36          1           0       -4.970430    0.449483    0.156723
     37          1           0       -4.381821    0.103244   -1.465392
     38          1           0       -3.604946    2.486356   -1.697591
     39          1           0       -4.196898    2.834563   -0.066259
     40          1           0       -5.341566    2.418029   -1.352937
 ---------------------------------------------------------------------

 SCF Done:  E(RHF) =  -470.732841951     A.U. after   11 cycles
 E2 =    -0.1583928818D+01 EUMP2 =    -0.47231677076940D+03

 The electronic state is 1-A.
 Alpha  occ. eigenvalues --  -11.21626 -11.21593 -11.21590 -11.21437 -11.21414
 Alpha  occ. eigenvalues --  -11.21373 -11.21355 -11.21297 -11.21097 -11.21069
 Alpha  occ. eigenvalues --  -11.21067 -11.20996  -1.08464  -1.08369  -1.03556
 Alpha  occ. eigenvalues --   -1.03463  -0.95994  -0.95935  -0.87029  -0.86933
 Alpha  occ. eigenvalues --   -0.79649  -0.79521  -0.78415  -0.78036  -0.65128
 Alpha  occ. eigenvalues --   -0.64974  -0.60961  -0.60869  -0.59427  -0.59240
 Alpha  occ. eigenvalues --   -0.57611  -0.57542  -0.55286  -0.55223  -0.52689
 Alpha  occ. eigenvalues --   -0.52635  -0.52472  -0.52320  -0.49940  -0.49871
 Alpha  occ. eigenvalues --   -0.48031  -0.47808  -0.46757  -0.46576  -0.46129
 Alpha  occ. eigenvalues --   -0.45766  -0.45650  -0.45116  -0.43797  -0.43730
 Alpha virt. eigenvalues --    0.20868   0.22866   0.23347   0.24506   0.25190
 Alpha virt. eigenvalues --    0.26189   0.26902   0.27665   0.29188   0.29564
 Alpha virt. eigenvalues --    0.29929   0.31246   0.31563   0.32116   0.32348

 Mulliken charges:
               1
     1  C   -0.297670
     2  C   -0.299830
     3  C   -0.475705
     4  H    0.149596
     5  H    0.149265
     6  H    0.152058
     7  H    0.152479
     8  H    0.155098
     9  H    0.155089
    10  H    0.160339
    11  C   -0.302015
    12  C   -0.299610
    13  C   -0.477421
    14  H    0.151969
    15  H    0.151676
    16  H    0.152000
    17  H    0.151693
    18  H    0.154961
    19  H    0.157218
    20  H    0.160433
    21  C   -0.298006
    22  C   -0.307572
    23  C   -0.475498
    24  H    0.149227
    25  H    0.148817
    26  H    0.150696
    27  H    0.162495
    28  H    0.155248
    29  H    0.154367
    30  H    0.159689
    31  C   -0.298149
    32  C   -0.299572
    33  C   -0.475645
    34  H    0.149851
    35  H    0.148228
    36  H    0.152111
    37  H    0.151794
    38  H    0.154830
    39  H    0.155228
    40  H    0.160237
 Sum of Mulliken charges =  -0.00000

 Dipole moment (field-independent basis, Debye):
    X=              0.0435    Y=              0.0047    Z=             -0.0033  Tot=              0.0439
 Quadrupole moment (field-independent basis, Debye-Ang):
   XX=            -84.7865   YY=            -86.8602   ZZ=            -83.2555
   XY=             -0.3985   XZ=             -0.0665   YZ=              0.1364

 Normal termination of Gaussian 16 at Wed May  5 23:06:20 2021.
