 Gaussian 16, Revision A.03,
 Gaussian 16:  EM64L-G16RevA.03 25-Dec-2016

 -------------
 #p 6-31g* mp2
 -------------

 ------------------------------------------------------
 Input file generated by CHIRIPA (05-May-2021 14:57:26)
 ------------------------------------------------------
 Symbolic Z-matrix:
 Charge =  0 Multiplicity = 1

                         Standard orientation:
 ---------------------------------------------------------------------
 Center     Atomic      Atomic             Coordinates (Angstroms)
 Number     Number       Type             X           Y           Z
 ---------------------------------------------------------------------
      1          6           0        0.575041   -0.867888    2.057768
      2          6           0        1.154362    0.404219    2.006270
      3          6           0        2.179873    0.681100    1.097307
      4          6           0        2.603492   -0.342211    0.250743
      5          6           0        2.046241   -1.619717    0.277977
      6          6           0        1.022042   -1.874022    1.194979
      7          1           0       -0.221091   -1.074207    2.766995
      8          1           0        0.809226    1.187527    2.675116
      9          1           0        2.645959    1.657034    1.036196
     10          1           0        2.411476   -2.380213   -0.401484
     11          1           0        0.573978   -2.862889    1.232747
     12          7           0        3.688460   -0.061040   -0.715790
     13          8           0        4.043783   -0.979754   -1.450873
     14          8           0        4.162992    1.072732   -0.719974
     15          6           0       -0.607564    2.137904   -0.471623
     16          6           0       -1.669803    2.263414    0.429719
     17          6           0       -2.682167    1.300176    0.472604
     18          6           0       -2.600348    0.219431   -0.404086
     19          6           0       -1.554905    0.066376   -1.313434
     20          6           0       -0.553601    1.041719   -1.338794
     21          1           0        0.174569    2.890872   -0.498131
     22          1           0       -1.714306    3.113670    1.104351
     23          1           0       -3.515893    1.372628    1.160407
     24          1           0       -1.537884   -0.792324   -1.973557
     25          1           0        0.270155    0.941656   -2.039835
     26          7           0       -3.666239   -0.806714   -0.367961
     27          8           0       -3.571072   -1.749461   -1.150781
     28          8           0       -4.576668   -0.648827    0.442487
 ---------------------------------------------------------------------

 SCF Done:  E(RHF) =  -868.336384955     A.U. after   16 cycles
 E2 =    -0.2605381788D+01 EUMP2 =    -0.87094176674322D+03

 The electronic state is 1-A.
 Alpha  occ. eigenvalues --  -20.61436 -20.61413 -20.61238 -20.61229 -15.86473
 Alpha  occ. eigenvalues --  -15.86289 -11.31704 -11.31573 -11.28276 -11.28200
 Alpha  occ. eigenvalues --  -11.28199 -11.28125 -11.27882 -11.27862 -11.27249
 Alpha  occ. eigenvalues --  -11.27179 -11.27161 -11.27037  -1.60515  -1.60320
 Alpha  occ. eigenvalues --   -1.40068  -1.39874  -1.19911  -1.19703  -1.09268
 Alpha  occ. eigenvalues --   -1.09160  -1.05250  -1.05143  -0.96141  -0.95993
 Alpha  occ. eigenvalues --   -0.86665  -0.86535  -0.82975  -0.82829  -0.78048
 Alpha  occ. eigenvalues --   -0.77898  -0.72683  -0.72504  -0.71864  -0.71655
 Alpha  occ. eigenvalues --   -0.71003  -0.70814  -0.65504  -0.65411  -0.65244
 Alpha  occ. eigenvalues --   -0.65141  -0.62610  -0.62496  -0.55711  -0.55641
 Alpha  occ. eigenvalues --   -0.54619  -0.53332  -0.53239  -0.52455  -0.49456
 Alpha  occ. eigenvalues --   -0.49429  -0.49266  -0.49256  -0.45497  -0.45298
 Alpha  occ. eigenvalues --   -0.38413  -0.37849  -0.36693  -0.36043
 Alpha virt. eigenvalues --    0.04217   0.04860   0.10417   0.11146   0.15779
 Alpha virt. eigenvalues --    0.16427   0.20240   0.21554   0.26210   0.26591
 Alpha virt. eigenvalues --    0.27687   0.28793   0.29893   0.30911   0.32196

 Mulliken charges:
               1
     1  C   -0.169560
     2  C   -0.207833
     3  C   -0.177266
     4  C    0.157661
     5  C   -0.175181
     6  C   -0.217304
     7  H    0.229564
     8  H    0.220010
     9  H    0.270118
    10  H    0.276629
    11  H    0.229424
    12  N    0.486027
    13  O   -0.458337
    14  O   -0.463363
    15  C   -0.167513
    16  C   -0.222970
    17  C   -0.174579
    18  C    0.156379
    19  C   -0.169343
    20  C   -0.214516
    21  H    0.227125
    22  H    0.220696
    23  H    0.274146
    24  H    0.276150
    25  H    0.228581
    26  N    0.487201
    27  O   -0.460234
    28  O   -0.461712
 Sum of Mulliken charges =  -0.00000

 Dipole moment (field-independent basis, Debye):
    X=             -0.0630    Y=              2.4833    Z=              3.2699  Tot=              4.1065
 Quadrupole moment (field-independent basis, Debye-Ang):
   XX=           -145.4828   YY=            -97.3513   ZZ=           -100.5627
   XY=            -11.0121   XZ=              4.9768   YZ=              0.7506

 Normal termination of Gaussian 16 at Thu May  6 09:58:46 2021.
