 Gaussian 16, Revision A.03,
 Gaussian 16:  EM64L-G16RevA.03 25-Dec-2016

 -------------
 #p 6-31g* mp2
 -------------

 ------------------------------------------------------
 Input file generated by CHIRIPA (05-May-2021 14:51:13)
 ------------------------------------------------------
 Symbolic Z-matrix:
 Charge =  0 Multiplicity = 1

                         Standard orientation:
 ---------------------------------------------------------------------
 Center     Atomic      Atomic             Coordinates (Angstroms)
 Number     Number       Type             X           Y           Z
 ---------------------------------------------------------------------
      1          6           0        1.891568   -1.150576    0.550025
      2          6           0        1.577248   -2.570409    0.077518
      3          6           0        0.862663   -3.403174    1.142255
      4          1           0        2.511853   -1.201136    1.455362
      5          1           0        0.955945   -0.652420    0.839584
      6          1           0        2.513033   -3.065269   -0.212372
      7          1           0        0.957799   -2.516463   -0.826909
      8          1           0       -0.085482   -2.934768    1.425481
      9          1           0        1.478589   -3.486693    2.043510
     10          1           0        0.647577   -4.414523    0.783406
     11          6           0        2.605935   -0.305745   -0.503383
     12          6           0        2.920254    1.114088   -0.030876
     13          6           0        3.634840    1.946852   -1.095613
     14          1           0        3.541558   -0.803902   -0.792943
     15          1           0        1.985649   -0.255186   -1.408720
     16          1           0        3.539704    1.060141    0.873551
     17          1           0        1.984469    1.608948    0.259013
     18          1           0        3.018914    2.030372   -1.996868
     19          1           0        4.582985    1.478446   -1.378839
     20          1           0        3.849926    2.958201   -0.736765
     21          6           0       -2.211534    1.484850   -0.120625
     22          6           0       -1.357448    2.190447    0.933251
     23          6           0       -1.292648    3.703822    0.725183
     24          1           0       -1.805480    1.702221   -1.118029
     25          1           0       -3.227558    1.902722   -0.098905
     26          1           0       -0.343710    1.770408    0.910493
     27          1           0       -1.765469    1.971215    1.928275
     28          1           0       -2.295007    4.141963    0.768912
     29          1           0       -0.865170    3.940014   -0.254652
     30          1           0       -0.677040    4.188163    1.489578
     31          6           0       -2.285969   -0.028529    0.073984
     32          6           0       -3.140055   -0.734126   -0.979893
     33          6           0       -3.204854   -2.247500   -0.771824
     34          1           0       -1.269944   -0.446400    0.052263
     35          1           0       -2.692023   -0.245899    1.071388
     36          1           0       -2.732034   -0.514894   -1.974916
     37          1           0       -4.153793   -0.314087   -0.957135
     38          1           0       -3.632333   -2.483693    0.208011
     39          1           0       -2.202496   -2.685641   -0.815554
     40          1           0       -3.820463   -2.731841   -1.536219
 ---------------------------------------------------------------------

 SCF Done:  E(RHF) =  -470.732724671     A.U. after   11 cycles
 E2 =    -0.1585293521D+01 EUMP2 =    -0.47231801819251D+03

 The electronic state is 1-A.
 Alpha  occ. eigenvalues --  -11.21654 -11.21650 -11.21642 -11.21636 -11.21468
 Alpha  occ. eigenvalues --  -11.21438 -11.21408 -11.21368 -11.21117 -11.21106
 Alpha  occ. eigenvalues --  -11.21105 -11.21061  -1.08540  -1.08433  -1.03610
 Alpha  occ. eigenvalues --   -1.03538  -0.96049  -0.95989  -0.87066  -0.87004
 Alpha  occ. eigenvalues --   -0.79700  -0.79580  -0.78477  -0.78145  -0.65508
 Alpha  occ. eigenvalues --   -0.64759  -0.61236  -0.60743  -0.59420  -0.59348
 Alpha  occ. eigenvalues --   -0.57666  -0.57601  -0.55475  -0.55148  -0.52730
 Alpha  occ. eigenvalues --   -0.52691  -0.52482  -0.52402  -0.50099  -0.49827
 Alpha  occ. eigenvalues --   -0.48113  -0.47833  -0.46883  -0.46621  -0.46382
 Alpha  occ. eigenvalues --   -0.45818  -0.45792  -0.44951  -0.43837  -0.43808
 Alpha virt. eigenvalues --    0.19214   0.21373   0.24054   0.24670   0.25880
 Alpha virt. eigenvalues --    0.26384   0.26702   0.27385   0.28570   0.30075
 Alpha virt. eigenvalues --    0.30931   0.31522   0.31668   0.31785   0.32204

 Mulliken charges:
               1
     1  C   -0.307394
     2  C   -0.300938
     3  C   -0.477832
     4  H    0.150402
     5  H    0.157168
     6  H    0.152507
     7  H    0.151544
     8  H    0.157927
     9  H    0.155212
    10  H    0.160362
    11  C   -0.297815
    12  C   -0.307522
    13  C   -0.475199
    14  H    0.150052
    15  H    0.148701
    16  H    0.152358
    17  H    0.158898
    18  H    0.154790
    19  H    0.155381
    20  H    0.160565
    21  C   -0.297506
    22  C   -0.310352
    23  C   -0.475533
    24  H    0.149143
    25  H    0.150099
    26  H    0.160629
    27  H    0.152464
    28  H    0.155608
    29  H    0.155209
    30  H    0.160605
    31  C   -0.307423
    32  C   -0.299063
    33  C   -0.478581
    34  H    0.157940
    35  H    0.149702
    36  H    0.151634
    37  H    0.152309
    38  H    0.155424
    39  H    0.157983
    40  H    0.160545
 Sum of Mulliken charges =  -0.00000

 Dipole moment (field-independent basis, Debye):
    X=             -0.0073    Y=              0.0070    Z=              0.0197  Tot=              0.0222
 Quadrupole moment (field-independent basis, Debye-Ang):
   XX=            -83.5145   YY=            -86.3758   ZZ=            -84.7381
   XY=             -0.9031   XZ=              0.1950   YZ=              0.4556

 Normal termination of Gaussian 16 at Wed May  5 16:50:34 2021.
