 Gaussian 16, Revision A.03,
 Gaussian 16:  EM64L-G16RevA.03 25-Dec-2016

 -------------
 #p 6-31g* mp2
 -------------

 ------------------------------------------------------
 Input file generated by CHIRIPA (05-May-2021 14:57:21)
 ------------------------------------------------------
 Symbolic Z-matrix:
 Charge =  0 Multiplicity = 1

                         Standard orientation:
 ---------------------------------------------------------------------
 Center     Atomic      Atomic             Coordinates (Angstroms)
 Number     Number       Type             X           Y           Z
 ---------------------------------------------------------------------
      1          6           0        1.537556    2.767166    0.249542
      2          6           0        2.669989    2.304419    0.927762
      3          6           0        3.111872    0.989098    0.756827
      4          6           0        2.394195    0.159948   -0.103836
      5          6           0        1.262285    0.591535   -0.793621
      6          6           0        0.838551    1.910757   -0.607474
      7          1           0        1.201340    3.790454    0.388237
      8          1           0        3.214810    2.967288    1.593960
      9          1           0        3.985353    0.604861    1.269478
     10          1           0        0.739881   -0.092744   -1.451096
     11          1           0       -0.041248    2.267407   -1.135488
     12          7           0        2.852390   -1.234588   -0.292849
     13          8           0        2.202640   -1.945231   -1.056687
     14          8           0        3.852598   -1.590577    0.326420
     15          6           0       -3.115196    1.956201   -0.404633
     16          6           0       -2.589442    1.171899   -1.436609
     17          6           0       -2.145083   -0.129299   -1.183673
     18          6           0       -2.241675   -0.616586    0.118830
     19          6           0       -2.760663    0.140214    1.168208
     20          6           0       -3.198981    1.438768    0.892194
     21          1           0       -3.458038    2.965976   -0.610083
     22          1           0       -2.523160    1.571133   -2.444708
     23          1           0       -1.733796   -0.758202   -1.963891
     24          1           0       -2.813956   -0.285289    2.162957
     25          1           0       -3.606842    2.045590    1.695601
     26          7           0       -1.774450   -1.992707    0.398817
     27          8           0       -1.870338   -2.398768    1.554912
     28          8           0       -1.321197   -2.639192   -0.543126
 ---------------------------------------------------------------------

 SCF Done:  E(RHF) =  -868.333303344     A.U. after   16 cycles
 E2 =    -0.2606276163D+01 EUMP2 =    -0.87093957950659D+03

 The electronic state is 1-A.
 Alpha  occ. eigenvalues --  -20.60923 -20.60838 -20.60309 -20.60240 -15.85933
 Alpha  occ. eigenvalues --  -15.85331 -11.31756 -11.30978 -11.28397 -11.28340
 Alpha  occ. eigenvalues --  -11.28212 -11.27547 -11.27543 -11.27517 -11.27446
 Alpha  occ. eigenvalues --  -11.27366 -11.26652 -11.26569  -1.59943  -1.59348
 Alpha  occ. eigenvalues --   -1.39483  -1.38891  -1.20001  -1.19162  -1.09302
 Alpha  occ. eigenvalues --   -1.08515  -1.05496  -1.04590  -0.96054  -0.95307
 Alpha  occ. eigenvalues --   -0.86861  -0.85983  -0.82885  -0.82130  -0.77863
 Alpha  occ. eigenvalues --   -0.77130  -0.72145  -0.71562  -0.71282  -0.71104
 Alpha  occ. eigenvalues --   -0.70664  -0.70286  -0.65625  -0.65490  -0.64813
 Alpha  occ. eigenvalues --   -0.64615  -0.62835  -0.61982  -0.55937  -0.55174
 Alpha  occ. eigenvalues --   -0.53894  -0.53556  -0.52816  -0.52569  -0.48939
 Alpha  occ. eigenvalues --   -0.48886  -0.48332  -0.48288  -0.44812  -0.44177
 Alpha  occ. eigenvalues --   -0.38041  -0.37180  -0.37128  -0.36035
 Alpha virt. eigenvalues --    0.04625   0.05413   0.10292   0.11526   0.16053
 Alpha virt. eigenvalues --    0.16835   0.20139   0.22001   0.25740   0.26893
 Alpha virt. eigenvalues --    0.28237   0.29071   0.29903   0.31088   0.31815

 Mulliken charges:
               1
     1  C   -0.173959
     2  C   -0.218226
     3  C   -0.171328
     4  C    0.159771
     5  C   -0.178413
     6  C   -0.213656
     7  H    0.220890
     8  H    0.221991
     9  H    0.276047
    10  H    0.273665
    11  H    0.220324
    12  N    0.487484
    13  O   -0.451627
    14  O   -0.461916
    15  C   -0.173312
    16  C   -0.230749
    17  C   -0.181913
    18  C    0.166710
    19  C   -0.168290
    20  C   -0.216649
    21  H    0.225699
    22  H    0.224209
    23  H    0.280212
    24  H    0.279091
    25  H    0.225250
    26  N    0.486576
    27  O   -0.458930
    28  O   -0.448950
 Sum of Mulliken charges =  -0.00000

 Dipole moment (field-independent basis, Debye):
    X=             -3.3983    Y=              9.3478    Z=             -0.2001  Tot=              9.9483
 Quadrupole moment (field-independent basis, Debye-Ang):
   XX=           -102.9678   YY=           -110.3239   ZZ=            -99.1175
   XY=              2.0890   XZ=              4.8721   YZ=              2.2993

 Normal termination of Gaussian 16 at Thu May  6 12:50:28 2021.
