 Gaussian 16, Revision A.03,
 Gaussian 16:  EM64L-G16RevA.03 25-Dec-2016

 -------------
 #p 6-31g* mp2
 -------------

 ------------------------------------------------------
 Input file generated by CHIRIPA (05-May-2021 14:53:17)
 ------------------------------------------------------
 Symbolic Z-matrix:
 Charge =  0 Multiplicity = 1

                         Standard orientation:
 ---------------------------------------------------------------------
 Center     Atomic      Atomic             Coordinates (Angstroms)
 Number     Number       Type             X           Y           Z
 ---------------------------------------------------------------------
      1          6           0       -2.582994   -0.164539   -0.383333
      2          6           0       -3.683345   -0.587461    0.590500
      3          6           0       -4.073453   -2.058082    0.439225
      4          1           0       -2.920551   -0.351893   -1.411875
      5          1           0       -1.699041   -0.797564   -0.224266
      6          1           0       -4.564475    0.047087    0.430585
      7          1           0       -3.343204   -0.398900    1.616835
      8          1           0       -3.209725   -2.706255    0.619352
      9          1           0       -4.437936   -2.257733   -0.573639
     10          1           0       -4.861473   -2.339030    1.144883
     11          6           0       -2.182142    1.303013   -0.244272
     12          6           0       -1.081791    1.725935   -1.218104
     13          6           0       -0.691682    3.196556   -1.066830
     14          1           0       -3.066094    1.936038   -0.403338
     15          1           0       -1.844585    1.490367    0.784270
     16          1           0       -1.421932    1.537374   -2.244440
     17          1           0       -0.200660    1.091387   -1.058189
     18          1           0       -0.327200    3.396208   -0.053966
     19          1           0       -1.555411    3.844729   -1.246957
     20          1           0        0.096338    3.477504   -1.772487
     21          6           0        1.888052   -2.567212   -1.118742
     22          6           0        1.387318   -2.580611    0.187246
     23          6           0        1.367651   -1.410535    0.952155
     24          6           0        1.858802   -0.239522    0.377015
     25          6           0        2.364098   -0.194077   -0.921408
     26          6           0        2.373988   -1.376088   -1.667933
     27          1           0        1.899531   -3.480791   -1.705802
     28          1           0        1.009286   -3.504199    0.616342
     29          1           0        0.985647   -1.392588    1.965648
     30          1           0        2.734115    0.741934   -1.321895
     31          1           0        2.763456   -1.362714   -2.681925
     32          7           0        1.843158    1.005503    1.177059
     33          8           0        2.281624    2.024223    0.647348
     34          8           0        1.392725    0.939058    2.318695
 ---------------------------------------------------------------------

 SCF Done:  E(RHF) =  -669.535065830     A.U. after   15 cycles
 E2 =    -0.2095659809D+01 EUMP2 =    -0.67163072563867D+03

 The electronic state is 1-A.
 Alpha  occ. eigenvalues --  -20.61004 -20.60980 -15.86003 -11.31319 -11.27919
 Alpha  occ. eigenvalues --  -11.27877 -11.27635 -11.26928 -11.26895 -11.21489
 Alpha  occ. eigenvalues --  -11.21173 -11.21152 -11.21100 -11.20947 -11.20214
 Alpha  occ. eigenvalues --   -1.60047  -1.39601  -1.19525  -1.08919  -1.08137
 Alpha  occ. eigenvalues --   -1.04916  -1.03213  -0.95758  -0.95633  -0.86651
 Alpha  occ. eigenvalues --   -0.86310  -0.82586  -0.79299  -0.77944  -0.77638
 Alpha  occ. eigenvalues --   -0.72231  -0.71419  -0.70614  -0.65173  -0.64907
 Alpha  occ. eigenvalues --   -0.64763  -0.62259  -0.60610  -0.59050  -0.57253
 Alpha  occ. eigenvalues --   -0.55407  -0.54928  -0.53319  -0.52994  -0.52317
 Alpha  occ. eigenvalues --   -0.52063  -0.49588  -0.48999  -0.48987  -0.47612
 Alpha  occ. eigenvalues --   -0.46367  -0.45450  -0.45389  -0.44920  -0.43452
 Alpha  occ. eigenvalues --   -0.37410  -0.36469
 Alpha virt. eigenvalues --    0.04849   0.11074   0.16334   0.21181   0.22947
 Alpha virt. eigenvalues --    0.24434   0.26662   0.27304   0.27725   0.27932
 Alpha virt. eigenvalues --    0.28608   0.30757   0.31873   0.32005   0.32097

 Mulliken charges:
               1
     1  C   -0.300254
     2  C   -0.300022
     3  C   -0.474220
     4  H    0.146958
     5  H    0.147598
     6  H    0.152831
     7  H    0.154031
     8  H    0.149140
     9  H    0.154448
    10  H    0.160450
    11  C   -0.301524
    12  C   -0.307108
    13  C   -0.475322
    14  H    0.149279
    15  H    0.157280
    16  H    0.147067
    17  H    0.150464
    18  H    0.172117
    19  H    0.149739
    20  H    0.157187
    21  C   -0.170323
    22  C   -0.218318
    23  C   -0.171478
    24  C    0.157703
    25  C   -0.173174
    26  C   -0.215846
    27  H    0.226623
    28  H    0.224483
    29  H    0.276135
    30  H    0.276365
    31  H    0.224463
    32  N    0.491204
    33  O   -0.457849
    34  O   -0.460126
 Sum of Mulliken charges =  -0.00000

 Dipole moment (field-independent basis, Debye):
    X=              0.2624    Y=             -4.3377    Z=             -2.7134  Tot=              5.1232
 Quadrupole moment (field-independent basis, Debye-Ang):
   XX=            -94.1715   YY=            -92.7095   ZZ=            -93.8715
   XY=             -7.7974   XZ=             -6.8661   YZ=             -2.9483

 Normal termination of Gaussian 16 at Wed May  5 18:46:24 2021.
