 Gaussian 16, Revision A.03,
 Gaussian 16:  EM64L-G16RevA.03 25-Dec-2016

 -------------
 #p 6-31g* mp2
 -------------

 ------------------------------------------------------
 Input file generated by CHIRIPA (05-May-2021 14:57:26)
 ------------------------------------------------------
 Symbolic Z-matrix:
 Charge =  0 Multiplicity = 1

                         Standard orientation:
 ---------------------------------------------------------------------
 Center     Atomic      Atomic             Coordinates (Angstroms)
 Number     Number       Type             X           Y           Z
 ---------------------------------------------------------------------
      1          6           0       -2.144385   -2.177438   -0.755608
      2          6           0       -1.724141   -1.044142   -1.459566
      3          6           0       -2.277822    0.209407   -1.182803
      4          6           0       -3.254010    0.293692   -0.191217
      5          6           0       -3.693632   -0.816954    0.527454
      6          6           0       -3.126059   -2.060433    0.233911
      7          1           0       -1.708876   -3.147314   -0.977122
      8          1           0       -0.961933   -1.132024   -2.228567
      9          1           0       -1.970944    1.103077   -1.712518
     10          1           0       -4.455268   -0.697880    1.288473
     11          1           0       -3.454361   -2.938856    0.782214
     12          7           0       -3.847521    1.615438    0.110661
     13          8           0       -4.705999    1.663125    0.988943
     14          8           0       -3.442999    2.578709   -0.536724
     15          6           0        5.087039    1.227682   -0.727817
     16          6           0        4.754194    1.369954    0.623291
     17          6           0        3.686351    0.652679    1.170807
     18          6           0        2.969525   -0.201873    0.334629
     19          6           0        3.276637   -0.365155   -1.015301
     20          6           0        4.348501    0.362107   -1.541367
     21          1           0        5.918128    1.788758   -1.144810
     22          1           0        5.325996    2.041446    1.257472
     23          1           0        3.407045    0.743823    2.213447
     24          1           0        2.688121   -1.042173   -1.622518
     25          1           0        4.604726    0.249625   -2.591006
     26          7           0        1.836918   -0.966507    0.902906
     27          8           0        1.221027   -1.712916    0.145154
     28          8           0        1.586520   -0.804938    2.095313
 ---------------------------------------------------------------------

 SCF Done:  E(RHF) =  -868.338496076     A.U. after   16 cycles
 E2 =    -0.2600034562D+01 EUMP2 =    -0.87093853063812D+03

 The electronic state is 1-A.
 Alpha  occ. eigenvalues --  -20.61362 -20.61339 -20.59978 -20.59968 -15.86382
 Alpha  occ. eigenvalues --  -15.85023 -11.31645 -11.30125 -11.28250 -11.28152
 Alpha  occ. eigenvalues --  -11.27891 -11.27203 -11.27144 -11.26700 -11.26679
 Alpha  occ. eigenvalues --  -11.26297 -11.25626 -11.25597  -1.60407  -1.59057
 Alpha  occ. eigenvalues --   -1.39972  -1.38619  -1.19798  -1.18264  -1.09208
 Alpha  occ. eigenvalues --   -1.07681  -1.05188  -1.03659  -0.96069  -0.94572
 Alpha  occ. eigenvalues --   -0.86591  -0.85061  -0.82912  -0.81442  -0.77980
 Alpha  occ. eigenvalues --   -0.76542  -0.72637  -0.71716  -0.71252  -0.70906
 Alpha  occ. eigenvalues --   -0.70374  -0.69353  -0.65458  -0.65188  -0.63926
 Alpha  occ. eigenvalues --   -0.63678  -0.62546  -0.61048  -0.55679  -0.54109
 Alpha  occ. eigenvalues --   -0.53517  -0.53281  -0.51959  -0.51777  -0.49388
 Alpha  occ. eigenvalues --   -0.49339  -0.48019  -0.47982  -0.45399  -0.44086
 Alpha  occ. eigenvalues --   -0.37763  -0.36786  -0.36088  -0.35226
 Alpha virt. eigenvalues --    0.04541   0.06023   0.10868   0.12438   0.16106
 Alpha virt. eigenvalues --    0.17609   0.20858   0.22390   0.26540   0.27455
 Alpha virt. eigenvalues --    0.28610   0.29365   0.30540   0.31499   0.32755

 Mulliken charges:
               1
     1  C   -0.153644
     2  C   -0.206333
     3  C   -0.176280
     4  C    0.158078
     5  C   -0.170575
     6  C   -0.218259
     7  H    0.226557
     8  H    0.216188
     9  H    0.268964
    10  H    0.272320
    11  H    0.221093
    12  N    0.488417
    13  O   -0.462723
    14  O   -0.465333
    15  C   -0.170140
    16  C   -0.217942
    17  C   -0.169854
    18  C    0.159342
    19  C   -0.171723
    20  C   -0.217961
    21  H    0.227501
    22  H    0.225865
    23  H    0.277579
    24  H    0.269145
    25  H    0.223674
    26  N    0.490318
    27  O   -0.468473
    28  O   -0.455801
 Sum of Mulliken charges =  -0.00000

 Dipole moment (field-independent basis, Debye):
    X=              6.4330    Y=             -2.1171    Z=             -2.9220  Tot=              7.3759
 Quadrupole moment (field-independent basis, Debye-Ang):
   XX=            -94.3673   YY=           -107.9976   ZZ=            -99.8934
   XY=             25.9367   XZ=             -3.0735   YZ=              2.4374

 Normal termination of Gaussian 16 at Wed May  5 21:13:55 2021.
