 Gaussian 16, Revision A.03,
 Gaussian 16:  EM64L-G16RevA.03 25-Dec-2016

 -------------
 #p 6-31g* mp2
 -------------

 ------------------------------------------------------
 Input file generated by CHIRIPA (05-May-2021 14:53:13)
 ------------------------------------------------------
 Symbolic Z-matrix:
 Charge =  0 Multiplicity = 1

                         Standard orientation:
 ---------------------------------------------------------------------
 Center     Atomic      Atomic             Coordinates (Angstroms)
 Number     Number       Type             X           Y           Z
 ---------------------------------------------------------------------
      1          6           0       -3.878377    0.761153    0.692754
      2          6           0       -2.427098    1.143757    0.400541
      3          6           0       -1.935532    2.303546    1.267169
      4          1           0       -4.521160    1.637765    0.533617
      5          1           0       -3.972923    0.492772    1.754087
      6          1           0       -2.335030    1.410005   -0.660238
      7          1           0       -1.787719    0.266080    0.560207
      8          1           0       -1.998592    2.044668    2.329058
      9          1           0       -2.549013    3.195092    1.101678
     10          1           0       -0.895813    2.560544    1.041790
     11          6           0       -4.384237   -0.396791   -0.165733
     12          6           0       -5.835516   -0.779395    0.126480
     13          6           0       -6.327082   -1.939184   -0.740148
     14          1           0       -4.289690   -0.128409   -1.227066
     15          1           0       -3.741453   -1.273403   -0.006596
     16          1           0       -6.474895    0.098282   -0.033186
     17          1           0       -5.927584   -1.045643    1.187259
     18          1           0       -5.713600   -2.830730   -0.574657
     19          1           0       -6.264021   -1.680306   -1.802037
     20          1           0       -7.366801   -2.196182   -0.514769
     21          6           0        1.215820    1.064419   -1.134570
     22          6           0        1.074581   -0.217077   -0.592039
     23          6           0        2.182339   -0.895099   -0.074636
     24          6           0        3.422073   -0.258992   -0.116084
     25          6           0        3.594960    1.017057   -0.650028
     26          6           0        2.473341    1.676317   -1.161786
     27          1           0        0.349903    1.583835   -1.534309
     28          1           0        0.099190   -0.694732   -0.569578
     29          1           0        2.101380   -1.887840    0.351192
     30          1           0        4.580109    1.467424   -0.658449
     31          1           0        2.586004    2.671476   -1.582513
     32          7           0        4.602144   -0.966853    0.428679
     33          8           0        5.683518   -0.384675    0.380370
     34          8           0        4.423364   -2.090449    0.893660
 ---------------------------------------------------------------------

 SCF Done:  E(RHF) =  -669.535305696     A.U. after   15 cycles
 E2 =    -0.2092222349D+01 EUMP2 =    -0.67162752804429D+03

 The electronic state is 1-A.
 Alpha  occ. eigenvalues --  -20.60745 -20.60740 -15.85798 -11.31163 -11.27729
 Alpha  occ. eigenvalues --  -11.27715 -11.27448 -11.26746 -11.26697 -11.22738
 Alpha  occ. eigenvalues --  -11.22245 -11.22216 -11.22147 -11.21935 -11.21591
 Alpha  occ. eigenvalues --   -1.59821  -1.39374  -1.19332  -1.09268  -1.08722
 Alpha  occ. eigenvalues --   -1.04736  -1.04328  -0.96739  -0.95557  -0.87755
 Alpha  occ. eigenvalues --   -0.86133  -0.82392  -0.80446  -0.79084  -0.77438
 Alpha  occ. eigenvalues --   -0.72016  -0.71143  -0.70434  -0.65909  -0.64980
 Alpha  occ. eigenvalues --   -0.64746  -0.62130  -0.61690  -0.60120  -0.58368
 Alpha  occ. eigenvalues --   -0.56012  -0.55212  -0.53457  -0.53215  -0.52980
 Alpha  occ. eigenvalues --   -0.52828  -0.50671  -0.48823  -0.48772  -0.48675
 Alpha  occ. eigenvalues --   -0.47458  -0.46600  -0.46516  -0.44780  -0.44577
 Alpha  occ. eigenvalues --   -0.37292  -0.36328
 Alpha virt. eigenvalues --    0.05064   0.11233   0.16479   0.19876   0.22472
 Alpha virt. eigenvalues --    0.23751   0.24614   0.25727   0.26837   0.28136
 Alpha virt. eigenvalues --    0.28957   0.29872   0.31016   0.31472   0.31770

 Mulliken charges:
               1
     1  C   -0.298032
     2  C   -0.305220
     3  C   -0.477810
     4  H    0.152427
     5  H    0.153334
     6  H    0.144327
     7  H    0.149943
     8  H    0.160448
     9  H    0.157292
    10  H    0.160735
    11  C   -0.298857
    12  C   -0.300196
    13  C   -0.476231
    14  H    0.148578
    15  H    0.147191
    16  H    0.153372
    17  H    0.153820
    18  H    0.155661
    19  H    0.155339
    20  H    0.162592
    21  C   -0.172599
    22  C   -0.219816
    23  C   -0.171991
    24  C    0.158736
    25  C   -0.170867
    26  C   -0.219627
    27  H    0.228992
    28  H    0.227134
    29  H    0.275336
    30  H    0.275490
    31  H    0.223442
    32  N    0.488055
    33  O   -0.460482
    34  O   -0.460516
 Sum of Mulliken charges =  -0.00000

 Dipole moment (field-independent basis, Debye):
    X=             -4.3377    Y=              2.5142    Z=             -1.8448  Tot=              5.3423
 Quadrupole moment (field-independent basis, Debye-Ang):
   XX=           -121.3823   YY=            -93.4238   ZZ=            -94.5066
   XY=             11.6816   XZ=             -7.2035   YZ=             -1.7238

 Normal termination of Gaussian 16 at Wed May  5 20:10:59 2021.
