 Gaussian 16, Revision A.03,
 Gaussian 16:  EM64L-G16RevA.03 25-Dec-2016

 -------------
 #p 6-31g* mp2
 -------------

 ------------------------------------------------------
 Input file generated by CHIRIPA (05-May-2021 14:55:20)
 ------------------------------------------------------
 Symbolic Z-matrix:
 Charge =  0 Multiplicity = 1

                         Standard orientation:
 ---------------------------------------------------------------------
 Center     Atomic      Atomic             Coordinates (Angstroms)
 Number     Number       Type             X           Y           Z
 ---------------------------------------------------------------------
      1          6           0        4.259473    1.683481    0.399399
      2          6           0        2.922733    1.774682    0.801056
      3          6           0        2.047473    0.702436    0.604187
      4          6           0        2.544819   -0.451147   -0.000116
      5          6           0        3.871298   -0.572518   -0.411230
      6          6           0        4.728662    0.512237   -0.204398
      7          1           0        4.932445    2.521287    0.556202
      8          1           0        2.555590    2.683050    1.270224
      9          1           0        1.007893    0.746124    0.905488
     10          1           0        4.208161   -1.491040   -0.876265
     11          1           0        5.766298    0.438589   -0.517341
     12          7           0        1.627694   -1.592908   -0.213806
     13          8           0        2.090443   -2.598227   -0.748439
     14          8           0        0.463466   -1.460880    0.157382
     15          6           0       -3.585010    1.065525    0.139741
     16          6           0       -2.872204    2.063490   -0.773474
     17          6           0       -3.150388    3.517588   -0.391363
     18          1           0       -4.666676    1.254651    0.105448
     19          1           0       -3.270048    1.239473    1.177978
     20          1           0       -3.187367    1.886806   -1.809847
     21          1           0       -1.792127    1.871843   -0.737150
     22          1           0       -2.819484    3.716771    0.633053
     23          1           0       -4.222652    3.731818   -0.445740
     24          1           0       -2.631095    4.214013   -1.057086
     25          6           0       -3.316680   -0.392319   -0.229605
     26          6           0       -4.029486   -1.390282    0.683609
     27          6           0       -3.751303   -2.844381    0.301500
     28          1           0       -3.631641   -0.566266   -1.267842
     29          1           0       -2.235014   -0.581443   -0.195312
     30          1           0       -5.109564   -1.198636    0.647285
     31          1           0       -3.714323   -1.213598    1.719983
     32          1           0       -2.679039   -3.058611    0.355875
     33          1           0       -4.082206   -3.043564   -0.722917
     34          1           0       -4.270596   -3.540807    0.967222
 ---------------------------------------------------------------------

 SCF Done:  E(RHF) =  -669.536391968     A.U. after   15 cycles
 E2 =    -0.2091429090D+01 EUMP2 =    -0.67162782105843D+03

 The electronic state is 1-A.
 Alpha  occ. eigenvalues --  -20.61015 -20.61005 -15.86047 -11.31337 -11.27900
 Alpha  occ. eigenvalues --  -11.27890 -11.27624 -11.26897 -11.26887 -11.21304
 Alpha  occ. eigenvalues --  -11.20959 -11.20819 -11.20630 -11.20295 -11.19869
 Alpha  occ. eigenvalues --   -1.60069  -1.39628  -1.19501  -1.08910  -1.07721
 Alpha  occ. eigenvalues --   -1.04893  -1.02850  -0.95758  -0.95287  -0.86307
 Alpha  occ. eigenvalues --   -0.86293  -0.82596  -0.78970  -0.77680  -0.77417
 Alpha  occ. eigenvalues --   -0.72275  -0.71379  -0.70610  -0.65162  -0.64896
 Alpha  occ. eigenvalues --   -0.64350  -0.62242  -0.60247  -0.58719  -0.56882
 Alpha  occ. eigenvalues --   -0.55398  -0.54567  -0.53225  -0.52985  -0.52035
 Alpha  occ. eigenvalues --   -0.51693  -0.49242  -0.49026  -0.48999  -0.47263
 Alpha  occ. eigenvalues --   -0.46023  -0.45194  -0.44999  -0.44678  -0.43078
 Alpha  occ. eigenvalues --   -0.37476  -0.36493
 Alpha virt. eigenvalues --    0.04856   0.11150   0.16350   0.20727   0.23073
 Alpha virt. eigenvalues --    0.24993   0.26070   0.27464   0.27746   0.28633
 Alpha virt. eigenvalues --    0.29220   0.31168   0.31842   0.32173   0.32492

 Mulliken charges:
               1
     1  C   -0.170510
     2  C   -0.218480
     3  C   -0.171436
     4  C    0.157911
     5  C   -0.170652
     6  C   -0.218513
     7  H    0.226236
     8  H    0.224269
     9  H    0.275949
    10  H    0.275963
    11  H    0.224006
    12  N    0.494492
    13  O   -0.458188
    14  O   -0.467298
    15  C   -0.297101
    16  C   -0.298466
    17  C   -0.475076
    18  H    0.147408
    19  H    0.145104
    20  H    0.153224
    21  H    0.147519
    22  H    0.151097
    23  H    0.156231
    24  H    0.157366
    25  C   -0.310996
    26  C   -0.297051
    27  C   -0.480205
    28  H    0.146261
    29  H    0.176026
    30  H    0.146125
    31  H    0.149196
    32  H    0.173032
    33  H    0.151862
    34  H    0.154690
 Sum of Mulliken charges =  -0.00000

 Dipole moment (field-independent basis, Debye):
    X=              3.5301    Y=              3.8703    Z=              0.7115  Tot=              5.2865
 Quadrupole moment (field-independent basis, Debye-Ang):
   XX=            -75.9757   YY=            -99.0000   ZZ=            -94.3888
   XY=              6.9631   XZ=              0.8181   YZ=              0.8634

 Normal termination of Gaussian 16 at Thu May  6 12:26:31 2021.
