 Gaussian 16, Revision A.03,
 Gaussian 16:  EM64L-G16RevA.03 25-Dec-2016

 -------------
 #p 6-31g* mp2
 -------------

 ------------------------------------------------------
 Input file generated by CHIRIPA (05-May-2021 14:55:22)
 ------------------------------------------------------
 Symbolic Z-matrix:
 Charge =  0 Multiplicity = 1

                         Standard orientation:
 ---------------------------------------------------------------------
 Center     Atomic      Atomic             Coordinates (Angstroms)
 Number     Number       Type             X           Y           Z
 ---------------------------------------------------------------------
      1          6           0       -4.233025   -1.778616    0.912443
      2          6           0       -3.409312   -1.862338   -0.214947
      3          6           0       -2.725538   -0.735066   -0.679982
      4          6           0       -2.889149    0.465320    0.009652
      5          6           0       -3.702599    0.580637    1.135836
      6          6           0       -4.376786   -0.559545    1.583054
      7          1           0       -4.760474   -2.659323    1.266773
      8          1           0       -3.295781   -2.807771   -0.737739
      9          1           0       -2.081463   -0.771731   -1.550178
     10          1           0       -3.795913    1.536935    1.636041
     11          1           0       -5.015824   -0.491575    2.458872
     12          7           0       -2.170342    1.665547   -0.473229
     13          8           0       -2.331250    2.711401    0.152019
     14          8           0       -1.459645    1.537704   -1.467815
     15          6           0        4.569170   -0.088246   -0.149825
     16          6           0        5.274767   -0.073180    1.206599
     17          6           0        6.713194    0.437758    1.119053
     18          1           0        5.141104   -0.716267   -0.846550
     19          1           0        4.573595    0.927501   -0.568912
     20          1           0        5.267793   -1.088390    1.623633
     21          1           0        4.700983    0.554723    1.900231
     22          1           0        6.735844    1.459582    0.726668
     23          1           0        7.305874   -0.192867    0.448499
     24          1           0        7.198781    0.440153    2.099899
     25          6           0        3.130330   -0.596575   -0.078620
     26          6           0        2.424731   -0.611642   -1.435045
     27          6           0        0.986305   -1.122580   -1.347498
     28          1           0        3.125904   -1.612323    0.340466
     29          1           0        2.558394    0.031445    0.618105
     30          1           0        2.998516   -1.239545   -2.128676
     31          1           0        2.431707    0.403567   -1.852078
     32          1           0        0.393625   -0.491954   -0.676944
     33          1           0        0.963656   -2.144404   -0.955114
     34          1           0        0.500719   -1.124975   -2.328345
 ---------------------------------------------------------------------

 SCF Done:  E(RHF) =  -669.535429008     A.U. after   15 cycles
 E2 =    -0.2092193649D+01 EUMP2 =    -0.67162762265688D+03

 The electronic state is 1-A.
 Alpha  occ. eigenvalues --  -20.60852 -20.60838 -15.85874 -11.31177 -11.27761
 Alpha  occ. eigenvalues --  -11.27704 -11.27497 -11.26759 -11.26733 -11.21313
 Alpha  occ. eigenvalues --  -11.21157 -11.21048 -11.20985 -11.20809 -11.20728
 Alpha  occ. eigenvalues --   -1.59915  -1.39470  -1.19356  -1.08766  -1.08071
 Alpha  occ. eigenvalues --   -1.04748  -1.03185  -0.95706  -0.95564  -0.86713
 Alpha  occ. eigenvalues --   -0.86136  -0.82439  -0.79280  -0.77895  -0.77474
 Alpha  occ. eigenvalues --   -0.72102  -0.71240  -0.70467  -0.65015  -0.64773
 Alpha  occ. eigenvalues --   -0.64668  -0.62111  -0.60555  -0.59026  -0.57267
 Alpha  occ. eigenvalues --   -0.55275  -0.54929  -0.53104  -0.52900  -0.52304
 Alpha  occ. eigenvalues --   -0.52074  -0.49640  -0.48856  -0.48822  -0.47588
 Alpha  occ. eigenvalues --   -0.46289  -0.45455  -0.45349  -0.44758  -0.43453
 Alpha  occ. eigenvalues --   -0.37341  -0.36330
 Alpha virt. eigenvalues --    0.05019   0.11244   0.16491   0.21250   0.23252
 Alpha virt. eigenvalues --    0.24534   0.26531   0.27019   0.27781   0.27911
 Alpha virt. eigenvalues --    0.28900   0.30566   0.31554   0.31742   0.32167

 Mulliken charges:
               1
     1  C   -0.170365
     2  C   -0.220573
     3  C   -0.170858
     4  C    0.156101
     5  C   -0.170677
     6  C   -0.218881
     7  H    0.225568
     8  H    0.223833
     9  H    0.282290
    10  H    0.275339
    11  H    0.223311
    12  N    0.487345
    13  O   -0.459898
    14  O   -0.459083
    15  C   -0.298537
    16  C   -0.299496
    17  C   -0.475616
    18  H    0.148292
    19  H    0.152243
    20  H    0.150105
    21  H    0.152672
    22  H    0.156190
    23  H    0.154374
    24  H    0.159216
    25  C   -0.298842
    26  C   -0.299836
    27  C   -0.477533
    28  H    0.145937
    29  H    0.151826
    30  H    0.148666
    31  H    0.161385
    32  H    0.162120
    33  H    0.146003
    34  H    0.157380
 Sum of Mulliken charges =  -0.00000

 Dipole moment (field-independent basis, Debye):
    X=             -2.5927    Y=             -4.1018    Z=              1.6686  Tot=              5.1314
 Quadrupole moment (field-independent basis, Debye-Ang):
   XX=            -81.1879   YY=            -97.1497   ZZ=            -92.3429
   XY=              9.6744   XZ=             -7.0409   YZ=              3.0238

 Normal termination of Gaussian 16 at Thu May  6 07:49:06 2021.
