 Gaussian 16, Revision A.03,
 Gaussian 16:  EM64L-G16RevA.03 25-Dec-2016

 -------------
 #p 6-31g* mp2
 -------------

 ------------------------------------------------------
 Input file generated by CHIRIPA (05-May-2021 14:51:09)
 ------------------------------------------------------
 Symbolic Z-matrix:
 Charge =  0 Multiplicity = 1

                         Standard orientation:
 ---------------------------------------------------------------------
 Center     Atomic      Atomic             Coordinates (Angstroms)
 Number     Number       Type             X           Y           Z
 ---------------------------------------------------------------------
      1          6           0       -2.123475   -0.614080    0.300416
      2          6           0       -1.933889   -1.666153    1.393662
      3          6           0       -0.484995   -2.139553    1.513633
      4          1           0       -1.791137   -1.029381   -0.660844
      5          1           0       -1.472219    0.245405    0.511476
      6          1           0       -2.586332   -2.522807    1.181349
      7          1           0       -2.266896   -1.248365    2.352398
      8          1           0        0.176487   -1.299564    1.749132
      9          1           0       -0.144764   -2.581247    0.571428
     10          1           0       -0.372164   -2.891331    2.301008
     11          6           0       -3.566689   -0.130956    0.168313
     12          6           0       -3.756275    0.921117   -0.924932
     13          6           0       -5.205169    1.394517   -1.044903
     14          1           0       -4.217944   -0.990441   -0.042746
     15          1           0       -3.899027    0.284345    1.129574
     16          1           0       -3.423268    0.503329   -1.883669
     17          1           0       -3.103832    1.777771   -0.712619
     18          1           0       -5.545400    1.836211   -0.102698
     19          1           0       -5.866651    0.554528   -1.280402
     20          1           0       -5.318000    2.146295   -1.832278
     21          6           0        2.516752   -0.310074   -0.332846
     22          6           0        3.439930   -1.338191   -0.987599
     23          6           0        2.768815   -2.698768   -1.177941
     24          1           0        2.181803   -0.694639    0.640224
     25          1           0        1.614981   -0.192088   -0.949518
     26          1           0        4.340319   -1.453183   -0.370595
     27          1           0        3.772873   -0.951052   -1.959137
     28          1           0        1.881049   -2.605122   -1.811741
     29          1           0        2.451718   -3.110106   -0.214172
     30          1           0        3.446531   -3.418518   -1.647539
     31          6           0        3.173412    1.055110   -0.135884
     32          6           0        2.250234    2.083227    0.518869
     33          6           0        2.921349    3.443803    0.709211
     34          1           0        4.075183    0.937123    0.480788
     35          1           0        3.508361    1.439675   -1.108953
     36          1           0        1.917290    1.696087    1.490408
     37          1           0        1.349845    2.198218   -0.098136
     38          1           0        3.238445    3.855142   -0.254558
     39          1           0        3.809115    3.350157    1.343011
     40          1           0        2.243633    4.163554    1.178808
 ---------------------------------------------------------------------

 SCF Done:  E(RHF) =  -470.732797949     A.U. after   11 cycles
 E2 =    -0.1583833257D+01 EUMP2 =    -0.47231663120561D+03

 The electronic state is 1-A.
 Alpha  occ. eigenvalues --  -11.21624 -11.21600 -11.21564 -11.21557 -11.21383
 Alpha  occ. eigenvalues --  -11.21356 -11.21322 -11.21256 -11.21086 -11.21070
 Alpha  occ. eigenvalues --  -11.21035 -11.20974  -1.08428  -1.08378  -1.03536
 Alpha  occ. eigenvalues --   -1.03482  -0.95963  -0.95950  -0.86988  -0.86967
 Alpha  occ. eigenvalues --   -0.79674  -0.79505  -0.78349  -0.78061  -0.65069
 Alpha  occ. eigenvalues --   -0.65006  -0.60919  -0.60905  -0.59368  -0.59291
 Alpha  occ. eigenvalues --   -0.57600  -0.57550  -0.55358  -0.55132  -0.52669
 Alpha  occ. eigenvalues --   -0.52653  -0.52440  -0.52355  -0.50010  -0.49772
 Alpha  occ. eigenvalues --   -0.48138  -0.47740  -0.46625  -0.46597  -0.46055
 Alpha  occ. eigenvalues --   -0.45710  -0.45615  -0.45267  -0.43762  -0.43755
 Alpha virt. eigenvalues --    0.21352   0.23066   0.23366   0.24196   0.25104
 Alpha virt. eigenvalues --    0.25960   0.26617   0.27561   0.28589   0.29924
 Alpha virt. eigenvalues --    0.30837   0.31390   0.31678   0.31959   0.31999

 Mulliken charges:
               1
     1  C   -0.299306
     2  C   -0.299798
     3  C   -0.481409
     4  H    0.149154
     5  H    0.151174
     6  H    0.151646
     7  H    0.151505
     8  H    0.158263
     9  H    0.159825
    10  H    0.158860
    11  C   -0.298257
    12  C   -0.299608
    13  C   -0.475670
    14  H    0.149492
    15  H    0.149657
    16  H    0.151643
    17  H    0.151791
    18  H    0.155226
    19  H    0.155206
    20  H    0.160156
    21  C   -0.303842
    22  C   -0.299214
    23  C   -0.477934
    24  H    0.156584
    25  H    0.150446
    26  H    0.151577
    27  H    0.151472
    28  H    0.154185
    29  H    0.158685
    30  H    0.159879
    31  C   -0.297968
    32  C   -0.300531
    33  C   -0.475581
    34  H    0.149232
    35  H    0.149428
    36  H    0.150846
    37  H    0.152407
    38  H    0.155443
    39  H    0.155317
    40  H    0.160021
 Sum of Mulliken charges =  -0.00000

 Dipole moment (field-independent basis, Debye):
    X=              0.0125    Y=             -0.0109    Z=              0.0051  Tot=              0.0174
 Quadrupole moment (field-independent basis, Debye-Ang):
   XX=            -85.8533   YY=            -85.4581   ZZ=            -83.6093
   XY=              0.0851   XZ=              0.2129   YZ=              0.1182

 Normal termination of Gaussian 16 at Thu May  6 05:21:13 2021.
