 Gaussian 16, Revision A.03,
 Gaussian 16:  EM64L-G16RevA.03 25-Dec-2016

 -------------
 #p 6-31g* mp2
 -------------

 ------------------------------------------------------
 Input file generated by CHIRIPA (05-May-2021 14:55:22)
 ------------------------------------------------------
 Symbolic Z-matrix:
 Charge =  0 Multiplicity = 1

                         Standard orientation:
 ---------------------------------------------------------------------
 Center     Atomic      Atomic             Coordinates (Angstroms)
 Number     Number       Type             X           Y           Z
 ---------------------------------------------------------------------
      1          6           0        2.200844    2.305566    0.475559
      2          6           0        2.637616    1.572666    1.583985
      3          6           0        3.207181    0.306672    1.418449
      4          6           0        3.325173   -0.198209    0.124439
      5          6           0        2.899488    0.507626   -0.999785
      6          6           0        2.332942    1.771648   -0.810522
      7          1           0        1.759565    3.288255    0.613367
      8          1           0        2.536287    1.984810    2.583943
      9          1           0        3.553681   -0.282219    2.259022
     10          1           0        3.013772    0.070394   -1.984258
     11          1           0        1.994616    2.338574   -1.673178
     12          7           0        3.926548   -1.537416   -0.063366
     13          8           0        4.019292   -1.959941   -1.213805
     14          8           0        4.293775   -2.139205    0.943426
     15          6           0       -3.490835    0.379735   -0.105019
     16          6           0       -2.484268    0.201543   -1.242145
     17          6           0       -1.212066    1.025207   -1.039979
     18          1           0       -3.751061    1.443490   -0.017541
     19          1           0       -3.015598    0.095143    0.843955
     20          1           0       -2.961698    0.485070   -2.188870
     21          1           0       -2.226554   -0.861938   -1.327050
     22          1           0       -0.710449    0.737385   -0.110388
     23          1           0       -1.449770    2.092047   -0.977104
     24          1           0       -0.506408    0.882870   -1.864387
     25          6           0       -4.767876   -0.437357   -0.292784
     26          6           0       -5.774443   -0.259165    0.844343
     27          6           0       -7.046645   -1.082830    0.642177
     28          1           0       -5.243113   -0.152765   -1.241758
     29          1           0       -4.507650   -1.501113   -0.380261
     30          1           0       -6.032157    0.804315    0.929248
     31          1           0       -5.297013   -0.542692    1.791068
     32          1           0       -6.808940   -2.149668    0.579302
     33          1           0       -7.548262   -0.795007   -0.287414
     34          1           0       -7.752303   -0.940493    1.466584
 ---------------------------------------------------------------------

 SCF Done:  E(RHF) =  -669.535202751     A.U. after   15 cycles
 E2 =    -0.2091853263D+01 EUMP2 =    -0.67162705601476D+03

 The electronic state is 1-A.
 Alpha  occ. eigenvalues --  -20.60761 -20.60756 -15.85814 -11.31177 -11.27738
 Alpha  occ. eigenvalues --  -11.27721 -11.27467 -11.26768 -11.26737 -11.21881
 Alpha  occ. eigenvalues --  -11.21787 -11.21665 -11.21566 -11.21484 -11.21211
 Alpha  occ. eigenvalues --   -1.59836  -1.39390  -1.19347  -1.08746  -1.08670
 Alpha  occ. eigenvalues --   -1.04753  -1.03783  -0.96248  -0.95575  -0.87277
 Alpha  occ. eigenvalues --   -0.86139  -0.82410  -0.79854  -0.78483  -0.77458
 Alpha  occ. eigenvalues --   -0.72032  -0.71160  -0.70447  -0.65301  -0.64999
 Alpha  occ. eigenvalues --   -0.64756  -0.62105  -0.61181  -0.59626  -0.57855
 Alpha  occ. eigenvalues --   -0.55552  -0.55243  -0.53382  -0.52898  -0.52705
 Alpha  occ. eigenvalues --   -0.52566  -0.50165  -0.48790  -0.48787  -0.48170
 Alpha  occ. eigenvalues --   -0.46870  -0.46028  -0.45943  -0.44797  -0.44053
 Alpha  occ. eigenvalues --   -0.37292  -0.36302
 Alpha virt. eigenvalues --    0.05063   0.11276   0.16515   0.21076   0.22667
 Alpha virt. eigenvalues --    0.24057   0.26375   0.26608   0.27195   0.28034
 Alpha virt. eigenvalues --    0.28433   0.30461   0.31120   0.31716   0.32363

 Mulliken charges:
               1
     1  C   -0.170788
     2  C   -0.219369
     3  C   -0.171669
     4  C    0.158492
     5  C   -0.172053
     6  C   -0.211817
     7  H    0.225886
     8  H    0.223397
     9  H    0.275408
    10  H    0.275220
    11  H    0.223943
    12  N    0.488056
    13  O   -0.460457
    14  O   -0.460577
    15  C   -0.298467
    16  C   -0.300763
    17  C   -0.475052
    18  H    0.147795
    19  H    0.149658
    20  H    0.151535
    21  H    0.155425
    22  H    0.160556
    23  H    0.148092
    24  H    0.155391
    25  C   -0.298576
    26  C   -0.299735
    27  C   -0.475873
    28  H    0.149712
    29  H    0.151441
    30  H    0.151111
    31  H    0.152054
    32  H    0.156217
    33  H    0.155310
    34  H    0.160500
 Sum of Mulliken charges =  -0.00000

 Dipole moment (field-independent basis, Debye):
    X=             -2.1346    Y=              4.7009    Z=              0.6800  Tot=              5.2074
 Quadrupole moment (field-independent basis, Debye-Ang):
   XX=           -110.3816   YY=            -96.9682   ZZ=            -89.5373
   XY=             15.5574   XZ=              2.8302   YZ=             -0.3394

 Normal termination of Gaussian 16 at Thu May  6 19:13:50 2021.
