 Gaussian 16, Revision A.03,
 Gaussian 16:  EM64L-G16RevA.03 25-Dec-2016

 -------------
 #p 6-31g* mp2
 -------------

 ------------------------------------------------------
 Input file generated by CHIRIPA (05-May-2021 14:57:25)
 ------------------------------------------------------
 Symbolic Z-matrix:
 Charge =  0 Multiplicity = 1

                         Standard orientation:
 ---------------------------------------------------------------------
 Center     Atomic      Atomic             Coordinates (Angstroms)
 Number     Number       Type             X           Y           Z
 ---------------------------------------------------------------------
      1          6           0       -3.561146    2.510758   -0.002309
      2          6           0       -4.820846    1.916090   -0.128985
      3          6           0       -4.948589    0.524359   -0.165267
      4          6           0       -3.790413   -0.245847   -0.071982
      5          6           0       -2.521374    0.316921    0.054994
      6          6           0       -2.417447    1.710686    0.089115
      7          1           0       -3.471163    3.592679    0.025037
      8          1           0       -5.710785    2.534946   -0.200189
      9          1           0       -5.911480    0.037767   -0.262660
     10          1           0       -1.652443   -0.326226    0.123832
     11          1           0       -1.437856    2.169766    0.187564
     12          7           0       -3.913042   -1.720287   -0.109249
     13          8           0       -2.877319   -2.376685   -0.025257
     14          8           0       -5.042561   -2.191635   -0.221745
     15          6           0        6.240109   -0.207886   -0.404351
     16          6           0        5.477776   -1.350581   -0.140500
     17          6           0        4.108474   -1.245723    0.121348
     18          6           0        3.531421    0.023213    0.111297
     19          6           0        4.264171    1.180400   -0.148099
     20          6           0        5.631945    1.051737   -0.407303
     21          1           0        7.303222   -0.298588   -0.606734
     22          1           0        5.947413   -2.330110   -0.137550
     23          1           0        3.494670   -2.113867    0.328688
     24          1           0        3.767873    2.143255   -0.144111
     25          1           0        6.221507    1.940898   -0.611891
     26          7           0        2.082611    0.146823    0.387104
     27          8           0        1.597985    1.276229    0.372399
     28          8           0        1.459093   -0.888040    0.612764
 ---------------------------------------------------------------------

 SCF Done:  E(RHF) =  -868.341414572     A.U. after   16 cycles
 E2 =    -0.2599086566D+01 EUMP2 =    -0.87094050113805D+03

 The electronic state is 1-A.
 Alpha  occ. eigenvalues --  -20.61711 -20.61637 -20.59610 -20.59578 -15.86642
 Alpha  occ. eigenvalues --  -15.84638 -11.31686 -11.29824 -11.28238 -11.28175
 Alpha  occ. eigenvalues --  -11.27903 -11.27171 -11.27129 -11.26491 -11.26163
 Alpha  occ. eigenvalues --  -11.26138 -11.25517 -11.25154  -1.60703  -1.58679
 Alpha  occ. eigenvalues --   -1.40262  -1.38232  -1.19825  -1.17994  -1.09286
 Alpha  occ. eigenvalues --   -1.07449  -1.05176  -1.03329  -0.96172  -0.94299
 Alpha  occ. eigenvalues --   -0.86591  -0.84756  -0.83014  -0.81103  -0.78095
 Alpha  occ. eigenvalues --   -0.76150  -0.72871  -0.71979  -0.70930  -0.70863
 Alpha  occ. eigenvalues --   -0.70003  -0.69123  -0.65482  -0.65178  -0.63634
 Alpha  occ. eigenvalues --   -0.63307  -0.62523  -0.60633  -0.55697  -0.53920
 Alpha  occ. eigenvalues --   -0.53524  -0.53264  -0.51740  -0.51386  -0.49650
 Alpha  occ. eigenvalues --   -0.49605  -0.47628  -0.47601  -0.45726  -0.43677
 Alpha  occ. eigenvalues --   -0.37788  -0.36762  -0.36040  -0.34942
 Alpha virt. eigenvalues --    0.04411   0.06312   0.10898   0.12688   0.15969
 Alpha virt. eigenvalues --    0.17824   0.21047   0.22907   0.27001   0.27874
 Alpha virt. eigenvalues --    0.28978   0.29746   0.30710   0.32014   0.32424

 Mulliken charges:
               1
     1  C   -0.172368
     2  C   -0.219595
     3  C   -0.173269
     4  C    0.156553
     5  C   -0.179084
     6  C   -0.227354
     7  H    0.220586
     8  H    0.217561
     9  H    0.270675
    10  H    0.294352
    11  H    0.241802
    12  N    0.487340
    13  O   -0.457551
    14  O   -0.466862
    15  C   -0.169564
    16  C   -0.218722
    17  C   -0.169666
    18  C    0.157627
    19  C   -0.170375
    20  C   -0.218670
    21  H    0.227592
    22  H    0.226273
    23  H    0.279585
    24  H    0.273949
    25  H    0.224471
    26  N    0.491061
    27  O   -0.471475
    28  O   -0.454870
 Sum of Mulliken charges =  -0.00000

 Dipole moment (field-independent basis, Debye):
    X=              6.3070    Y=              4.6005    Z=             -0.7968  Tot=              7.8471
 Quadrupole moment (field-independent basis, Debye-Ang):
   XX=            -68.8681   YY=           -103.3360   ZZ=           -106.7499
   XY=            -21.6288   XZ=             -3.2180   YZ=             -1.1976

 Normal termination of Gaussian 16 at Fri May  7 06:33:03 2021.
