 Gaussian 16, Revision A.03,
 Gaussian 16:  EM64L-G16RevA.03 25-Dec-2016

 -------------
 #p 6-31g* mp2
 -------------

 ------------------------------------------------------
 Input file generated by CHIRIPA (05-May-2021 14:55:19)
 ------------------------------------------------------
 Symbolic Z-matrix:
 Charge =  0 Multiplicity = 1

                         Standard orientation:
 ---------------------------------------------------------------------
 Center     Atomic      Atomic             Coordinates (Angstroms)
 Number     Number       Type             X           Y           Z
 ---------------------------------------------------------------------
      1          6           0        5.603148    0.707216    0.739765
      2          6           0        4.470715    1.518919    0.616258
      3          6           0        3.251107    0.977464    0.199208
      4          6           0        3.199516   -0.385806   -0.087367
      5          6           0        4.310217   -1.220538    0.026024
      6          6           0        5.519432   -0.657516    0.444774
      7          1           0        6.546532    1.136209    1.064400
      8          1           0        4.532786    2.579116    0.844675
      9          1           0        2.358911    1.582904    0.095067
     10          1           0        4.217332   -2.273932   -0.208819
     11          1           0        6.397270   -1.290301    0.539797
     12          7           0        1.913873   -0.970436   -0.529779
     13          8           0        1.894601   -2.174402   -0.776218
     14          8           0        0.949802   -0.213634   -0.621726
     15          6           0       -3.958433    0.826123   -0.438927
     16          6           0       -2.528120    1.053610    0.051418
     17          6           0       -1.724132    1.967177   -0.874212
     18          1           0       -3.928778    0.393387   -1.448287
     19          1           0       -4.466214    1.796346   -0.529596
     20          1           0       -2.023625    0.083139    0.142458
     21          1           0       -2.561182    1.485676    1.059804
     22          1           0       -2.202050    2.948681   -0.956955
     23          1           0       -1.661438    1.538176   -1.879512
     24          1           0       -0.704739    2.116263   -0.504794
     25          6           0       -4.774766   -0.085127    0.475923
     26          6           0       -6.205079   -0.312613   -0.014422
     27          6           0       -7.009067   -1.226181    0.911209
     28          1           0       -4.266985   -1.055349    0.566593
     29          1           0       -4.804422    0.347609    1.485283
     30          1           0       -6.172017   -0.744680   -1.022808
     31          1           0       -6.709575    0.657857   -0.105462
     32          1           0       -7.071761   -0.797179    1.916509
     33          1           0       -6.531150   -2.207685    0.993951
     34          1           0       -8.028461   -1.375267    0.541790
 ---------------------------------------------------------------------

 SCF Done:  E(RHF) =  -669.535883488     A.U. after   15 cycles
 E2 =    -0.2091435567D+01 EUMP2 =    -0.67162731905522D+03

 The electronic state is 1-A.
 Alpha  occ. eigenvalues --  -20.60940 -20.60931 -15.85970 -11.31294 -11.27861
 Alpha  occ. eigenvalues --  -11.27854 -11.27593 -11.26864 -11.26855 -11.20913
 Alpha  occ. eigenvalues --  -11.20540 -11.20490 -11.20374 -11.20270 -11.19787
 Alpha  occ. eigenvalues --   -1.60003  -1.39559  -1.19462  -1.08867  -1.07485
 Alpha  occ. eigenvalues --   -1.04859  -1.02550  -0.95716  -0.95021  -0.86260
 Alpha  occ. eigenvalues --   -0.86058  -0.82542  -0.78651  -0.77597  -0.77270
 Alpha  occ. eigenvalues --   -0.72208  -0.71315  -0.70572  -0.65123  -0.64863
 Alpha  occ. eigenvalues --   -0.64108  -0.62209  -0.59927  -0.58417  -0.56610
 Alpha  occ. eigenvalues --   -0.55363  -0.54312  -0.53190  -0.52952  -0.51734
 Alpha  occ. eigenvalues --   -0.51462  -0.49015  -0.48962  -0.48903  -0.46955
 Alpha  occ. eigenvalues --   -0.45691  -0.45004  -0.44831  -0.44638  -0.42821
 Alpha  occ. eigenvalues --   -0.37441  -0.36460
 Alpha virt. eigenvalues --    0.04928   0.11195   0.16422   0.20945   0.23730
 Alpha virt. eigenvalues --    0.24556   0.26601   0.27550   0.27666   0.28488
 Alpha virt. eigenvalues --    0.29238   0.30268   0.31556   0.32338   0.32670

 Mulliken charges:
               1
     1  C   -0.170428
     2  C   -0.219161
     3  C   -0.170975
     4  C    0.157233
     5  C   -0.170482
     6  C   -0.218671
     7  H    0.226014
     8  H    0.224074
     9  H    0.277254
    10  H    0.275806
    11  H    0.223801
    12  N    0.494373
    13  O   -0.459621
    14  O   -0.465448
    15  C   -0.298082
    16  C   -0.302829
    17  C   -0.469369
    18  H    0.150458
    19  H    0.144558
    20  H    0.170604
    21  H    0.143093
    22  H    0.143372
    23  H    0.158558
    24  H    0.160402
    25  C   -0.298024
    26  C   -0.298961
    27  C   -0.475275
    28  H    0.152017
    29  H    0.146721
    30  H    0.151969
    31  H    0.149823
    32  H    0.153601
    33  H    0.155513
    34  H    0.158083
 Sum of Mulliken charges =  -0.00000

 Dipole moment (field-independent basis, Debye):
    X=              4.8417    Y=              1.8994    Z=              1.5166  Tot=              5.4176
 Quadrupole moment (field-independent basis, Debye-Ang):
   XX=            -66.8235   YY=            -92.6597   ZZ=            -96.0184
   XY=              2.4348   XZ=              4.9589   YZ=              0.5030

 Normal termination of Gaussian 16 at Thu May  6 06:05:06 2021.
