 Gaussian 16, Revision A.03,
 Gaussian 16:  EM64L-G16RevA.03 25-Dec-2016

 -------------
 #p 6-31g* mp2
 -------------

 ------------------------------------------------------
 Input file generated by CHIRIPA (05-May-2021 14:55:25)
 ------------------------------------------------------
 Symbolic Z-matrix:
 Charge =  0 Multiplicity = 1

                         Standard orientation:
 ---------------------------------------------------------------------
 Center     Atomic      Atomic             Coordinates (Angstroms)
 Number     Number       Type             X           Y           Z
 ---------------------------------------------------------------------
      1          6           0        1.980333    2.105346    0.354557
      2          6           0        1.999263    1.090783    1.317275
      3          6           0        2.841977   -0.014617    1.167368
      4          6           0        3.656225   -0.073435    0.037399
      5          6           0        3.660084    0.921309   -0.939207
      6          6           0        2.809343    2.017526   -0.768631
      7          1           0        1.322574    2.960480    0.479036
      8          1           0        1.356526    1.156333    2.190566
      9          1           0        2.876679   -0.814254    1.897296
     10          1           0        4.312213    0.828016   -1.799115
     11          1           0        2.796743    2.803960   -1.517902
     12          7           0        4.552618   -1.238812   -0.132241
     13          8           0        5.260331   -1.267034   -1.136722
     14          8           0        4.530523   -2.101944    0.742488
     15          6           0       -5.108366   -0.571441   -0.245113
     16          6           0       -6.422721    0.116505    0.125273
     17          6           0       -7.649034   -0.735367   -0.203762
     18          1           0       -5.115236   -0.807825   -1.317969
     19          1           0       -5.042528   -1.531126    0.285986
     20          1           0       -6.485423    1.075243   -0.405298
     21          1           0       -6.412641    0.351451    1.197334
     22          1           0       -7.613552   -1.686710    0.336875
     23          1           0       -7.686748   -0.958805   -1.274862
     24          1           0       -8.577689   -0.224497    0.069135
     25          6           0       -3.873364    0.267741    0.077797
     26          6           0       -2.559009   -0.420204   -0.292588
     27          6           0       -1.332696    0.431667    0.036447
     28          1           0       -3.939202    1.227426   -0.453301
     29          1           0       -3.866493    0.504126    1.150654
     30          1           0       -2.569089   -0.655150   -1.364649
     31          1           0       -2.496307   -1.378943    0.237982
     32          1           0       -1.294981    0.655105    1.107547
     33          1           0       -1.368179    1.383010   -0.504190
     34          1           0       -0.404041   -0.079202   -0.236450
 ---------------------------------------------------------------------

 SCF Done:  E(RHF) =  -669.535013284     A.U. after   15 cycles
 E2 =    -0.2091969661D+01 EUMP2 =    -0.67162698294504D+03

 The electronic state is 1-A.
 Alpha  occ. eigenvalues --  -20.60753 -20.60748 -15.85806 -11.31170 -11.27727
 Alpha  occ. eigenvalues --  -11.27715 -11.27448 -11.26743 -11.26722 -11.21995
 Alpha  occ. eigenvalues --  -11.21888 -11.21786 -11.21676 -11.21607 -11.21301
 Alpha  occ. eigenvalues --   -1.59829  -1.39382  -1.19340  -1.08797  -1.08724
 Alpha  occ. eigenvalues --   -1.04742  -1.03895  -0.96362  -0.95563  -0.87389
 Alpha  occ. eigenvalues --   -0.86127  -0.82397  -0.79968  -0.78599  -0.77448
 Alpha  occ. eigenvalues --   -0.72024  -0.71153  -0.70432  -0.65424  -0.64986
 Alpha  occ. eigenvalues --   -0.64742  -0.62093  -0.61295  -0.59729  -0.57961
 Alpha  occ. eigenvalues --   -0.55679  -0.55215  -0.53529  -0.52866  -0.52755
 Alpha  occ. eigenvalues --   -0.52569  -0.50315  -0.48782  -0.48779  -0.48283
 Alpha  occ. eigenvalues --   -0.46999  -0.46146  -0.46063  -0.44789  -0.44144
 Alpha  occ. eigenvalues --   -0.37258  -0.36309
 Alpha virt. eigenvalues --    0.05071   0.11283   0.16555   0.20855   0.22579
 Alpha virt. eigenvalues --    0.24002   0.25911   0.26499   0.27283   0.27706
 Alpha virt. eigenvalues --    0.28787   0.29882   0.31498   0.31677   0.31786

 Mulliken charges:
               1
     1  C   -0.167637
     2  C   -0.214188
     3  C   -0.173421
     4  C    0.158304
     5  C   -0.171479
     6  C   -0.219192
     7  H    0.226076
     8  H    0.223829
     9  H    0.275406
    10  H    0.275422
    11  H    0.223250
    12  N    0.488101
    13  O   -0.460511
    14  O   -0.460525
    15  C   -0.298512
    16  C   -0.299724
    17  C   -0.475888
    18  H    0.150636
    19  H    0.150599
    20  H    0.151527
    21  H    0.151577
    22  H    0.155873
    23  H    0.155764
    24  H    0.160700
    25  C   -0.298308
    26  C   -0.300926
    27  C   -0.475795
    28  H    0.148262
    29  H    0.148056
    30  H    0.154036
    31  H    0.153738
    32  H    0.145794
    33  H    0.149781
    34  H    0.169376
 Sum of Mulliken charges =  -0.00000

 Dipole moment (field-independent basis, Debye):
    X=             -3.1942    Y=              4.0879    Z=              0.5722  Tot=              5.2193
 Quadrupole moment (field-independent basis, Debye-Ang):
   XX=           -118.9969   YY=            -95.3015   ZZ=            -90.3895
   XY=             15.7856   XZ=              0.3730   YZ=             -2.2821

 Normal termination of Gaussian 16 at Wed May  5 16:07:04 2021.
