 Gaussian 16, Revision A.03,
 Gaussian 16:  EM64L-G16RevA.03 25-Dec-2016

 -------------
 #p 6-31g* mp2
 -------------

 ------------------------------------------------------
 Input file generated by CHIRIPA (05-May-2021 14:55:22)
 ------------------------------------------------------
 Symbolic Z-matrix:
 Charge =  0 Multiplicity = 1

                         Standard orientation:
 ---------------------------------------------------------------------
 Center     Atomic      Atomic             Coordinates (Angstroms)
 Number     Number       Type             X           Y           Z
 ---------------------------------------------------------------------
      1          6           0       -1.678908   -0.000003    0.423889
      2          6           0       -2.380523    1.189838    0.644203
      3          6           0       -3.754290    1.260658    0.394611
      4          6           0       -4.397674    0.117416   -0.076923
      5          6           0       -3.726382   -1.082604   -0.306287
      6          6           0       -2.352889   -1.130433   -0.049817
      7          1           0       -0.611839   -0.046087    0.620449
      8          1           0       -1.859701    2.069314    1.012050
      9          1           0       -4.321937    2.168951    0.556471
     10          1           0       -4.272967   -1.942775   -0.673395
     11          1           0       -1.810572   -2.055825   -0.221828
     12          7           0       -5.851875    0.180221   -0.344796
     13          8           0       -6.395561   -0.840936   -0.759863
     14          8           0       -6.420456    1.249415   -0.134615
     15          6           0        5.831062    0.429850   -0.014336
     16          6           0        7.181556   -0.020668   -0.572177
     17          6           0        8.188885    1.124631   -0.678811
     18          1           0        5.421760    1.221427   -0.656850
     19          1           0        5.983082    0.879163    0.976826
     20          1           0        7.026860   -0.470251   -1.561399
     21          1           0        7.587601   -0.811397    0.071632
     22          1           0        8.372526    1.568984    0.304769
     23          1           0        7.808599    1.912069   -1.337539
     24          1           0        9.147270    0.780323   -1.079823
     25          6           0        4.813428   -0.703937    0.098240
     26          6           0        3.462935   -0.253420    0.656080
     27          6           0        2.455605   -1.398719    0.762714
     28          1           0        4.661410   -1.153251   -0.892922
     29          1           0        5.222731   -1.495515    0.740753
     30          1           0        3.056889    0.537310    0.012273
     31          1           0        3.617630    0.196163    1.645302
     32          1           0        2.835893   -2.186157    1.421444
     33          1           0        2.271965   -1.843071   -0.220865
     34          1           0        1.497221   -1.054411    1.163726
 ---------------------------------------------------------------------

 SCF Done:  E(RHF) =  -669.535554308     A.U. after   15 cycles
 E2 =    -0.2090642369D+01 EUMP2 =    -0.67162619667620D+03

 The electronic state is 1-A.
 Alpha  occ. eigenvalues --  -20.60725 -20.60720 -15.85779 -11.31136 -11.27707
 Alpha  occ. eigenvalues --  -11.27702 -11.27418 -11.26717 -11.26703 -11.22609
 Alpha  occ. eigenvalues --  -11.22346 -11.22162 -11.22117 -11.21997 -11.21504
 Alpha  occ. eigenvalues --   -1.59801  -1.39355  -1.19307  -1.09177  -1.08702
 Alpha  occ. eigenvalues --   -1.04710  -1.04317  -0.96780  -0.95539  -0.87799
 Alpha  occ. eigenvalues --   -0.86105  -0.82374  -0.80388  -0.78944  -0.77422
 Alpha  occ. eigenvalues --   -0.71997  -0.71125  -0.70436  -0.65798  -0.64958
 Alpha  occ. eigenvalues --   -0.64715  -0.62059  -0.61700  -0.60229  -0.58389
 Alpha  occ. eigenvalues --   -0.56050  -0.55244  -0.53460  -0.53176  -0.53039
 Alpha  occ. eigenvalues --   -0.52800  -0.50700  -0.48762  -0.48753  -0.48692
 Alpha  occ. eigenvalues --   -0.47401  -0.46497  -0.46389  -0.44762  -0.44562
 Alpha  occ. eigenvalues --   -0.37284  -0.36317
 Alpha virt. eigenvalues --    0.05111   0.11337   0.16596   0.19578   0.22408
 Alpha virt. eigenvalues --    0.23705   0.25911   0.26057   0.26693   0.27420
 Alpha virt. eigenvalues --    0.28704   0.30217   0.30738   0.31384   0.32385

 Mulliken charges:
               1
     1  C   -0.177306
     2  C   -0.220481
     3  C   -0.170735
     4  C    0.158268
     5  C   -0.170921
     6  C   -0.221573
     7  H    0.236161
     8  H    0.223774
     9  H    0.275353
    10  H    0.275464
    11  H    0.223973
    12  N    0.488010
    13  O   -0.460565
    14  O   -0.460583
    15  C   -0.298900
    16  C   -0.300236
    17  C   -0.476105
    18  H    0.150137
    19  H    0.150365
    20  H    0.152719
    21  H    0.152812
    22  H    0.155721
    23  H    0.155688
    24  H    0.161855
    25  C   -0.298971
    26  C   -0.300373
    27  C   -0.481210
    28  H    0.150888
    29  H    0.151682
    30  H    0.150938
    31  H    0.154166
    32  H    0.161797
    33  H    0.156823
    34  H    0.151362
 Sum of Mulliken charges =  -0.00000

 Dipole moment (field-independent basis, Debye):
    X=              5.3963    Y=             -0.2459    Z=              0.9338  Tot=              5.4820
 Quadrupole moment (field-independent basis, Debye-Ang):
   XX=           -140.0871   YY=            -90.6658   ZZ=            -94.4246
   XY=              0.7648   XZ=             -4.1277   YZ=              1.6383

 Normal termination of Gaussian 16 at Thu May  6 10:56:19 2021.
