 Gaussian 16, Revision A.03,
 Gaussian 16:  EM64L-G16RevA.03 25-Dec-2016

 -------------
 #p 6-31g* mp2
 -------------

 ------------------------------------------------------
 Input file generated by CHIRIPA (05-May-2021 14:51:08)
 ------------------------------------------------------
 Symbolic Z-matrix:
 Charge =  0 Multiplicity = 1

                         Standard orientation:
 ---------------------------------------------------------------------
 Center     Atomic      Atomic             Coordinates (Angstroms)
 Number     Number       Type             X           Y           Z
 ---------------------------------------------------------------------
      1          6           0       -2.916756   -0.573519   -0.019178
      2          6           0       -1.854183   -0.478879    1.076253
      3          6           0       -0.579185   -1.249012    0.731189
      4          1           0       -3.160961   -1.630288   -0.193960
      5          1           0       -2.498659   -0.189582   -0.960020
      6          1           0       -2.274611   -0.861597    2.015073
      7          1           0       -1.612619    0.577798    1.248582
      8          1           0       -0.133774   -0.863048   -0.191438
      9          1           0       -0.799527   -2.310621    0.579409
     10          1           0        0.166864   -1.167891    1.527863
     11          6           0       -4.197232    0.191310    0.311193
     12          6           0       -5.259804    0.096670   -0.784237
     13          6           0       -6.534802    0.866804   -0.439174
     14          1           0       -4.615328   -0.192626    1.252035
     15          1           0       -3.953027    1.248079    0.485976
     16          1           0       -5.501369   -0.960006   -0.956566
     17          1           0       -4.839377    0.479389   -1.723058
     18          1           0       -6.314461    1.928413   -0.287393
     19          1           0       -6.980214    0.480839    0.483453
     20          1           0       -7.280851    0.785683   -1.235848
     21          6           0        3.893874   -0.465989   -0.341386
     22          6           0        3.037395   -1.697750   -0.046097
     23          6           0        3.724920   -3.004653   -0.442468
     24          1           0        4.136385   -0.444138   -1.412673
     25          1           0        4.849440   -0.555617    0.193641
     26          1           0        2.083172   -1.605172   -0.580419
     27          1           0        2.796735   -1.716567    1.024578
     28          1           0        4.668179   -3.123768    0.100371
     29          1           0        3.950561   -3.011740   -1.513746
     30          1           0        3.095092   -3.872333   -0.222675
     31          6           0        3.220114    0.848197    0.049371
     32          6           0        4.076591    2.079959   -0.245919
     33          6           0        3.389068    3.386861    0.150452
     34          1           0        2.264547    0.937825   -0.485657
     35          1           0        2.977602    0.826347    1.120658
     36          1           0        4.317251    2.098776   -1.316594
     37          1           0        5.030816    1.987380    0.288404
     38          1           0        3.163427    3.393948    1.221731
     39          1           0        2.445808    3.505977   -0.392386
     40          1           0        4.018894    4.254542   -0.069340
 ---------------------------------------------------------------------

 SCF Done:  E(RHF) =  -470.732351212     A.U. after   11 cycles
 E2 =    -0.1583311017D+01 EUMP2 =    -0.47231566222842D+03

 The electronic state is 1-A.
 Alpha  occ. eigenvalues --  -11.21597 -11.21590 -11.21549 -11.21442 -11.21392
 Alpha  occ. eigenvalues --  -11.21368 -11.21333 -11.21296 -11.21073 -11.21067
 Alpha  occ. eigenvalues --  -11.20990 -11.20984  -1.08423  -1.08374  -1.03535
 Alpha  occ. eigenvalues --   -1.03450  -0.95966  -0.95929  -0.87031  -0.86907
 Alpha  occ. eigenvalues --   -0.79726  -0.79418  -0.78279  -0.78119  -0.65085
 Alpha  occ. eigenvalues --   -0.64987  -0.60968  -0.60829  -0.59423  -0.59211
 Alpha  occ. eigenvalues --   -0.57579  -0.57533  -0.55260  -0.55227  -0.52771
 Alpha  occ. eigenvalues --   -0.52557  -0.52412  -0.52317  -0.49973  -0.49846
 Alpha  occ. eigenvalues --   -0.47993  -0.47787  -0.46719  -0.46494  -0.45873
 Alpha  occ. eigenvalues --   -0.45723  -0.45705  -0.45391  -0.43773  -0.43662
 Alpha virt. eigenvalues --    0.21716   0.23102   0.23968   0.24433   0.25128
 Alpha virt. eigenvalues --    0.26282   0.26818   0.27670   0.27930   0.29731
 Alpha virt. eigenvalues --    0.30324   0.31160   0.31533   0.32117   0.32170

 Mulliken charges:
               1
     1  C   -0.298373
     2  C   -0.300820
     3  C   -0.475718
     4  H    0.149500
     5  H    0.148983
     6  H    0.151434
     7  H    0.152002
     8  H    0.155768
     9  H    0.154157
    10  H    0.162824
    11  C   -0.298186
    12  C   -0.299597
    13  C   -0.475692
    14  H    0.149537
    15  H    0.149646
    16  H    0.151895
    17  H    0.151780
    18  H    0.155183
    19  H    0.155188
    20  H    0.160205
    21  C   -0.298276
    22  C   -0.303355
    23  C   -0.475415
    24  H    0.148961
    25  H    0.148965
    26  H    0.159452
    27  H    0.151860
    28  H    0.154416
    29  H    0.154467
    30  H    0.160082
    31  C   -0.298821
    32  C   -0.299606
    33  C   -0.475581
    34  H    0.149725
    35  H    0.149414
    36  H    0.151831
    37  H    0.152020
    38  H    0.155137
    39  H    0.154777
    40  H    0.160230
 Sum of Mulliken charges =  -0.00000

 Dipole moment (field-independent basis, Debye):
    X=             -0.0076    Y=             -0.0093    Z=              0.0070  Tot=              0.0139
 Quadrupole moment (field-independent basis, Debye-Ang):
   XX=            -85.8450   YY=            -85.4573   ZZ=            -83.7774
   XY=              1.2130   XZ=              0.4334   YZ=             -0.7467

 Normal termination of Gaussian 16 at Wed May  5 18:06:45 2021.
