 Gaussian 16, Revision A.03,
 Gaussian 16:  EM64L-G16RevA.03 25-Dec-2016

 -------------
 #p 6-31g* mp2
 -------------

 ------------------------------------------------------
 Input file generated by CHIRIPA (05-May-2021 14:57:23)
 ------------------------------------------------------
 Symbolic Z-matrix:
 Charge =  0 Multiplicity = 1

                         Standard orientation:
 ---------------------------------------------------------------------
 Center     Atomic      Atomic             Coordinates (Angstroms)
 Number     Number       Type             X           Y           Z
 ---------------------------------------------------------------------
      1          6           0        3.408254    2.012514   -1.111770
      2          6           0        4.419026    1.381489   -0.379194
      3          6           0        4.180101    0.156663    0.251095
      4          6           0        2.913080   -0.411381    0.127513
      5          6           0        1.885503    0.192664   -0.595331
      6          6           0        2.146942    1.417137   -1.217315
      7          1           0        3.602601    2.963851   -1.598168
      8          1           0        5.399534    1.841541   -0.295523
      9          1           0        4.944501   -0.353615    0.824442
     10          1           0        0.918165   -0.290443   -0.660783
     11          1           0        1.360065    1.904919   -1.785592
     12          7           0        2.648223   -1.707863    0.790376
     13          8           0        1.523464   -2.187622    0.666341
     14          8           0        3.570403   -2.219737    1.421411
     15          6           0       -2.531059    2.256452    1.376829
     16          6           0       -1.741406    1.997781    0.251636
     17          6           0       -1.968270    0.860157   -0.528680
     18          6           0       -2.997884   -0.001327   -0.153138
     19          6           0       -3.801761    0.228952    0.962228
     20          6           0       -3.556907    1.372769    1.727915
     21          1           0       -2.347838    3.142591    1.977316
     22          1           0       -0.944022    2.682308   -0.023403
     23          1           0       -1.372060    0.635690   -1.404788
     24          1           0       -4.589290   -0.471887    1.211309
     25          1           0       -4.171746    1.571118    2.601228
     26          7           0       -3.247577   -1.208956   -0.971480
     27          8           0       -4.160868   -1.952333   -0.619445
     28          8           0       -2.525267   -1.389254   -1.949437
 ---------------------------------------------------------------------

 SCF Done:  E(RHF) =  -868.336186839     A.U. after   16 cycles
 E2 =    -0.2601445601D+01 EUMP2 =    -0.87093763243973D+03

 The electronic state is 1-A.
 Alpha  occ. eigenvalues --  -20.60852 -20.60849 -20.60838 -20.60823 -15.85907
 Alpha  occ. eigenvalues --  -15.85900 -11.31459 -11.31447 -11.28152 -11.28077
 Alpha  occ. eigenvalues --  -11.28056 -11.27952 -11.27884 -11.27759 -11.27215
 Alpha  occ. eigenvalues --  -11.27165 -11.27083 -11.27016  -1.59913  -1.59908
 Alpha  occ. eigenvalues --   -1.39464  -1.39460  -1.19673  -1.19620  -1.09028
 Alpha  occ. eigenvalues --   -1.08972  -1.05176  -1.05026  -0.95836  -0.95782
 Alpha  occ. eigenvalues --   -0.86529  -0.86431  -0.82729  -0.82584  -0.77794
 Alpha  occ. eigenvalues --   -0.77557  -0.72137  -0.72106  -0.71242  -0.71221
 Alpha  occ. eigenvalues --   -0.70879  -0.70643  -0.65346  -0.65277  -0.65241
 Alpha  occ. eigenvalues --   -0.64994  -0.62770  -0.62136  -0.55637  -0.55507
 Alpha  occ. eigenvalues --   -0.53478  -0.53424  -0.53231  -0.53033  -0.48899
 Alpha  occ. eigenvalues --   -0.48890  -0.48873  -0.48853  -0.44830  -0.44824
 Alpha  occ. eigenvalues --   -0.37660  -0.37566  -0.36908  -0.36476
 Alpha virt. eigenvalues --    0.04735   0.05010   0.10819   0.10959   0.16127
 Alpha virt. eigenvalues --    0.16475   0.18708   0.22155   0.24773   0.27044
 Alpha virt. eigenvalues --    0.28019   0.29060   0.30659   0.31398   0.32453

 Mulliken charges:
               1
     1  C   -0.170591
     2  C   -0.219129
     3  C   -0.169327
     4  C    0.158177
     5  C   -0.171892
     6  C   -0.224438
     7  H    0.225545
     8  H    0.224486
     9  H    0.277124
    10  H    0.281418
    11  H    0.215927
    12  N    0.487585
    13  O   -0.455636
    14  O   -0.460514
    15  C   -0.170543
    16  C   -0.215678
    17  C   -0.177147
    18  C    0.164297
    19  C   -0.169001
    20  C   -0.216670
    21  H    0.226317
    22  H    0.218248
    23  H    0.266513
    24  H    0.278179
    25  H    0.225553
    26  N    0.489885
    27  O   -0.456754
    28  O   -0.461934
 Sum of Mulliken charges =  -0.00000

 Dipole moment (field-independent basis, Debye):
    X=              1.6914    Y=              8.6204    Z=              0.7420  Tot=              8.8160
 Quadrupole moment (field-independent basis, Debye-Ang):
   XX=            -96.5632   YY=           -109.6011   ZZ=           -105.0364
   XY=              1.3172   XZ=            -16.6951   YZ=              0.1970

 Normal termination of Gaussian 16 at Fri May  7 01:51:06 2021.
