 Gaussian 16, Revision A.03,
 Gaussian 16:  EM64L-G16RevA.03 25-Dec-2016

 -------------
 #p 6-31g* mp2
 -------------

 ------------------------------------------------------
 Input file generated by CHIRIPA (05-May-2021 14:57:21)
 ------------------------------------------------------
 Symbolic Z-matrix:
 Charge =  0 Multiplicity = 1

                         Standard orientation:
 ---------------------------------------------------------------------
 Center     Atomic      Atomic             Coordinates (Angstroms)
 Number     Number       Type             X           Y           Z
 ---------------------------------------------------------------------
      1          6           0        4.559882    2.049985    0.694645
      2          6           0        3.189719    1.843421    0.885704
      3          6           0        2.573017    0.683584    0.407160
      4          6           0        3.360193   -0.253006   -0.261005
      5          6           0        4.727486   -0.075970   -0.467060
      6          6           0        5.323047    1.091321    0.020062
      7          1           0        5.030740    2.953870    1.069721
      8          1           0        2.594554    2.586217    1.409230
      9          1           0        1.514193    0.498284    0.541221
     10          1           0        5.294642   -0.834505   -0.992775
     11          1           0        6.387335    1.249080   -0.129769
     12          7           0        2.718509   -1.484819   -0.772158
     13          8           0        3.434075   -2.294691   -1.357572
     14          8           0        1.512141   -1.617117   -0.577708
     15          6           0       -4.948050    1.484391   -1.276439
     16          6           0       -5.389056    0.226272   -0.853153
     17          6           0       -4.576291   -0.577033   -0.047758
     18          6           0       -3.322666   -0.088685    0.317251
     19          6           0       -2.855006    1.160335   -0.088379
     20          6           0       -3.684660    1.946592   -0.893377
     21          1           0       -5.585985    2.101797   -1.901935
     22          1           0       -6.369748   -0.135255   -1.149106
     23          1           0       -4.892754   -1.554976    0.294142
     24          1           0       -1.872412    1.493584    0.222863
     25          1           0       -3.339554    2.923250   -1.220618
     26          7           0       -2.453288   -0.930084    1.169676
     27          8           0       -1.353058   -0.476937    1.477553
     28          8           0       -2.888563   -2.026787    1.513790
 ---------------------------------------------------------------------

 SCF Done:  E(RHF) =  -868.337582293     A.U. after   16 cycles
 E2 =    -0.2599757889D+01 EUMP2 =    -0.87093734018194D+03

 The electronic state is 1-A.
 Alpha  occ. eigenvalues --  -20.60539 -20.60533 -20.60062 -20.60005 -15.85589
 Alpha  occ. eigenvalues --  -15.85092 -11.31033 -11.30580 -11.27671 -11.27580
 Alpha  occ. eigenvalues --  -11.27369 -11.27225 -11.27086 -11.27010 -11.26679
 Alpha  occ. eigenvalues --  -11.26626 -11.26270 -11.26230  -1.59574  -1.59118
 Alpha  occ. eigenvalues --   -1.39139  -1.38660  -1.19209  -1.18788  -1.08584
 Alpha  occ. eigenvalues --   -1.08173  -1.04638  -1.04208  -0.95413  -0.94974
 Alpha  occ. eigenvalues --   -0.86032  -0.85601  -0.82259  -0.81800  -0.77300
 Alpha  occ. eigenvalues --   -0.76804  -0.71827  -0.71309  -0.70860  -0.70450
 Alpha  occ. eigenvalues --   -0.70336  -0.69895  -0.64876  -0.64653  -0.64440
 Alpha  occ. eigenvalues --   -0.64220  -0.62002  -0.61529  -0.55136  -0.54733
 Alpha  occ. eigenvalues --   -0.52942  -0.52745  -0.52544  -0.52298  -0.48573
 Alpha  occ. eigenvalues --   -0.48546  -0.48096  -0.48042  -0.44508  -0.44037
 Alpha  occ. eigenvalues --   -0.37181  -0.36805  -0.36239  -0.35823
 Alpha virt. eigenvalues --    0.05260   0.05715   0.11415   0.11827   0.16715
 Alpha virt. eigenvalues --    0.17161   0.21001   0.22067   0.26207   0.27687
 Alpha virt. eigenvalues --    0.28187   0.29280   0.30677   0.31624   0.32126

 Mulliken charges:
               1
     1  C   -0.171074
     2  C   -0.220550
     3  C   -0.176800
     4  C    0.156613
     5  C   -0.171042
     6  C   -0.219395
     7  H    0.222896
     8  H    0.220827
     9  H    0.291324
    10  H    0.274188
    11  H    0.221122
    12  N    0.486553
    13  O   -0.464953
    14  O   -0.452205
    15  C   -0.170909
    16  C   -0.218172
    17  C   -0.170091
    18  C    0.161542
    19  C   -0.167839
    20  C   -0.218052
    21  H    0.224979
    22  H    0.223538
    23  H    0.276694
    24  H    0.268005
    25  H    0.221277
    26  N    0.493961
    27  O   -0.466071
    28  O   -0.456366
 Sum of Mulliken charges =  -0.00000

 Dipole moment (field-independent basis, Debye):
    X=             -1.0784    Y=              7.1123    Z=             -1.1573  Tot=              7.2861
 Quadrupole moment (field-independent basis, Debye-Ang):
   XX=            -64.0856   YY=           -105.7141   ZZ=           -108.7111
   XY=              5.9753   XZ=             12.9829   YZ=              0.0033

 Normal termination of Gaussian 16 at Thu May  6 12:47:33 2021.
