 Gaussian 16, Revision A.03,
 Gaussian 16:  EM64L-G16RevA.03 25-Dec-2016

 -------------
 #p 6-31g* mp2
 -------------

 ------------------------------------------------------
 Input file generated by CHIRIPA (05-May-2021 14:51:13)
 ------------------------------------------------------
 Symbolic Z-matrix:
 Charge =  0 Multiplicity = 1

                         Standard orientation:
 ---------------------------------------------------------------------
 Center     Atomic      Atomic             Coordinates (Angstroms)
 Number     Number       Type             X           Y           Z
 ---------------------------------------------------------------------
      1          6           0       -1.772517    1.151703    0.146446
      2          6           0       -2.105863    2.579857    0.579161
      3          6           0       -0.887773    3.336181    1.110221
      4          1           0       -1.344377    0.607435    0.999332
      5          1           0       -0.993114    1.182977   -0.627471
      6          1           0       -2.885391    2.545966    1.351044
      7          1           0       -2.533437    3.120730   -0.274802
      8          1           0       -0.109181    3.399614    0.343166
      9          1           0       -0.463136    2.821585    1.978250
     10          1           0       -1.148688    4.354807    1.413840
     11          6           0       -2.980070    0.382798   -0.386780
     12          6           0       -2.646723   -1.045356   -0.819495
     13          6           0       -3.864813   -1.801680   -1.350554
     14          1           0       -3.759472    0.351524    0.387138
     15          1           0       -3.408209    0.927066   -1.239665
     16          1           0       -2.219150   -1.586229    0.034468
     17          1           0       -1.867195   -1.011465   -1.591378
     18          1           0       -4.289451   -1.287084   -2.218584
     19          1           0       -4.643405   -1.865113   -0.583500
     20          1           0       -3.603899   -2.820306   -1.654174
     21          6           0        2.796564   -0.129669    0.137300
     22          6           0        3.476837    0.184168   -1.195636
     23          6           0        4.313985    1.462630   -1.145509
     24          1           0        2.158326    0.717221    0.424311
     25          1           0        3.562967   -0.222553    0.919217
     26          1           0        2.709483    0.275065   -1.975074
     27          1           0        4.113381   -0.663647   -1.479603
     28          1           0        5.100186    1.378850   -0.388231
     29          1           0        3.688313    2.322896   -0.886517
     30          1           0        4.791269    1.668005   -2.108774
     31          6           0        1.956022   -1.404833    0.103034
     32          6           0        1.275749   -1.718669    1.435970
     33          6           0        0.438601   -2.997130    1.385842
     34          1           0        1.189620   -1.311948   -0.678883
     35          1           0        2.594260   -2.251722   -0.183978
     36          1           0        0.639206   -0.870854    1.719937
     37          1           0        2.043103   -1.809566    2.215408
     38          1           0        1.064274   -3.857397    1.126851
     39          1           0       -0.347601   -2.913351    0.628564
     40          1           0       -0.038683   -3.202505    2.349108
 ---------------------------------------------------------------------

 SCF Done:  E(RHF) =  -470.733111461     A.U. after   11 cycles
 E2 =    -0.1584541600D+01 EUMP2 =    -0.47231765306111D+03

 The electronic state is 1-A.
 Alpha  occ. eigenvalues --  -11.21684 -11.21668 -11.21574 -11.21543 -11.21496
 Alpha  occ. eigenvalues --  -11.21434 -11.21339 -11.21279 -11.21157 -11.21125
 Alpha  occ. eigenvalues --  -11.21050 -11.21006  -1.08529  -1.08367  -1.03614
 Alpha  occ. eigenvalues --   -1.03486  -0.96057  -0.95937  -0.87079  -0.86949
 Alpha  occ. eigenvalues --   -0.79717  -0.79522  -0.78351  -0.78185  -0.65199
 Alpha  occ. eigenvalues --   -0.64971  -0.61049  -0.60866  -0.59437  -0.59296
 Alpha  occ. eigenvalues --   -0.57699  -0.57524  -0.55347  -0.55233  -0.52745
 Alpha  occ. eigenvalues --   -0.52638  -0.52484  -0.52368  -0.50106  -0.49807
 Alpha  occ. eigenvalues --   -0.48073  -0.47854  -0.46842  -0.46403  -0.46103
 Alpha  occ. eigenvalues --   -0.45831  -0.45559  -0.45422  -0.43862  -0.43737
 Alpha virt. eigenvalues --    0.19814   0.22381   0.23611   0.23793   0.25343
 Alpha virt. eigenvalues --    0.26028   0.27301   0.27569   0.28548   0.30159
 Alpha virt. eigenvalues --    0.30566   0.31200   0.31738   0.31926   0.32060

 Mulliken charges:
               1
     1  C   -0.304522
     2  C   -0.299491
     3  C   -0.476462
     4  H    0.154824
     5  H    0.149847
     6  H    0.152348
     7  H    0.152352
     8  H    0.154966
     9  H    0.155460
    10  H    0.160964
    11  C   -0.297590
    12  C   -0.307702
    13  C   -0.475511
    14  H    0.149864
    15  H    0.150008
    16  H    0.159296
    17  H    0.151863
    18  H    0.155410
    19  H    0.155505
    20  H    0.160628
    21  C   -0.300085
    22  C   -0.299512
    23  C   -0.475614
    24  H    0.151758
    25  H    0.149212
    26  H    0.151131
    27  H    0.151874
    28  H    0.155290
    29  H    0.155025
    30  H    0.160021
    31  C   -0.299281
    32  C   -0.303322
    33  C   -0.481725
    34  H    0.151557
    35  H    0.149182
    36  H    0.155261
    37  H    0.151665
    38  H    0.155195
    39  H    0.161271
    40  H    0.159035
 Sum of Mulliken charges =  -0.00000

 Dipole moment (field-independent basis, Debye):
    X=             -0.0582    Y=              0.0196    Z=             -0.0005  Tot=              0.0614
 Quadrupole moment (field-independent basis, Debye-Ang):
   XX=            -85.0526   YY=            -85.6468   ZZ=            -84.0313
   XY=             -1.4752   XZ=             -0.2148   YZ=             -0.5674

 Normal termination of Gaussian 16 at Thu May  6 02:21:22 2021.
