 Gaussian 16, Revision A.03,
 Gaussian 16:  EM64L-G16RevA.03 25-Dec-2016

 -------------
 #p 6-31g* mp2
 -------------

 ------------------------------------------------------
 Input file generated by CHIRIPA (05-May-2021 14:57:24)
 ------------------------------------------------------
 Symbolic Z-matrix:
 Charge =  0 Multiplicity = 1

                         Standard orientation:
 ---------------------------------------------------------------------
 Center     Atomic      Atomic             Coordinates (Angstroms)
 Number     Number       Type             X           Y           Z
 ---------------------------------------------------------------------
      1          6           0        2.023707    2.423351   -0.534105
      2          6           0        3.347520    2.464526   -0.084276
      3          6           0        4.068968    1.282628    0.108538
      4          6           0        3.432666    0.071596   -0.159439
      5          6           0        2.115053   -0.002230   -0.608589
      6          6           0        1.412776    1.192275   -0.794367
      7          1           0        1.470715    3.346374   -0.681155
      8          1           0        3.824531    3.419160    0.118648
      9          1           0        5.094997    1.285560    0.455921
     10          1           0        1.666458   -0.968982   -0.802423
     11          1           0        0.384809    1.157264   -1.143800
     12          7           0        4.186284   -1.186299    0.040960
     13          8           0        3.602978   -2.240450   -0.202264
     14          8           0        5.346005   -1.094268    0.437463
     15          6           0       -0.994508   -1.043846    0.845478
     16          6           0       -1.631984   -0.037507    1.578572
     17          6           0       -2.914066    0.394200    1.225808
     18          6           0       -3.532165   -0.204962    0.129337
     19          6           0       -2.923165   -1.209772   -0.620840
     20          6           0       -1.640993   -1.625741   -0.249957
     21          1           0        0.001479   -1.373095    1.126550
     22          1           0       -1.132321    0.416193    2.429769
     23          1           0       -3.430638    1.171360    1.775895
     24          1           0       -3.446602   -1.643131   -1.464422
     25          1           0       -1.148337   -2.407477   -0.821118
     26          7           0       -4.889495    0.243737   -0.253709
     27          8           0       -5.412640   -0.300092   -1.223867
     28          8           0       -5.404525    1.130760    0.423471
 ---------------------------------------------------------------------

 SCF Done:  E(RHF) =  -868.337550139     A.U. after   16 cycles
 E2 =    -0.2601814924D+01 EUMP2 =    -0.87093936506357D+03

 The electronic state is 1-A.
 Alpha  occ. eigenvalues --  -20.61562 -20.61527 -20.61259 -20.61254 -15.86595
 Alpha  occ. eigenvalues --  -15.86317 -11.31938 -11.31767 -11.28495 -11.28412
 Alpha  occ. eigenvalues --  -11.28360 -11.28346 -11.28102 -11.28038 -11.27432
 Alpha  occ. eigenvalues --  -11.27390 -11.27358 -11.27323  -1.60621  -1.60336
 Alpha  occ. eigenvalues --   -1.40178  -1.39886  -1.20080  -1.19957  -1.09457
 Alpha  occ. eigenvalues --   -1.09332  -1.05458  -1.05362  -0.96326  -0.96129
 Alpha  occ. eigenvalues --   -0.86861  -0.86732  -0.83153  -0.82942  -0.78215
 Alpha  occ. eigenvalues --   -0.77999  -0.72810  -0.72527  -0.71951  -0.71667
 Alpha  occ. eigenvalues --   -0.71326  -0.70868  -0.65706  -0.65605  -0.65452
 Alpha  occ. eigenvalues --   -0.65281  -0.62828  -0.62667  -0.55982  -0.55778
 Alpha  occ. eigenvalues --   -0.53971  -0.53601  -0.53423  -0.53400  -0.49580
 Alpha  occ. eigenvalues --   -0.49551  -0.49294  -0.49280  -0.45587  -0.45272
 Alpha  occ. eigenvalues --   -0.38200  -0.38015  -0.37049  -0.36740
 Alpha virt. eigenvalues --    0.04079   0.04725   0.10260   0.10791   0.15560
 Alpha virt. eigenvalues --    0.16297   0.19904   0.21520   0.25466   0.27113
 Alpha virt. eigenvalues --    0.27416   0.28619   0.30466   0.30614   0.31324

 Mulliken charges:
               1
     1  C   -0.173070
     2  C   -0.217754
     3  C   -0.171788
     4  C    0.159180
     5  C   -0.180214
     6  C   -0.217032
     7  H    0.229092
     8  H    0.226117
     9  H    0.277189
    10  H    0.267970
    11  H    0.231129
    12  N    0.488416
    13  O   -0.464891
    14  O   -0.456487
    15  C   -0.176673
    16  C   -0.220382
    17  C   -0.172831
    18  C    0.157221
    19  C   -0.171042
    20  C   -0.228231
    21  H    0.234815
    22  H    0.226696
    23  H    0.276707
    24  H    0.277984
    25  H    0.228302
    26  N    0.488010
    27  O   -0.458802
    28  O   -0.459630
 Sum of Mulliken charges =  -0.00000

 Dipole moment (field-independent basis, Debye):
    X=              2.1162    Y=              2.9766    Z=              0.6879  Tot=              3.7164
 Quadrupole moment (field-independent basis, Debye-Ang):
   XX=           -154.0348   YY=           -100.5298   ZZ=           -101.9215
   XY=             22.5805   XZ=             -4.7952   YZ=              2.4059

 Normal termination of Gaussian 16 at Thu May  6 08:14:50 2021.
