 Gaussian 16, Revision A.03,
 Gaussian 16:  EM64L-G16RevA.03 25-Dec-2016

 -------------
 #p 6-31g* mp2
 -------------

 ------------------------------------------------------
 Input file generated by CHIRIPA (05-May-2021 14:51:07)
 ------------------------------------------------------
 Symbolic Z-matrix:
 Charge =  0 Multiplicity = 1

                         Standard orientation:
 ---------------------------------------------------------------------
 Center     Atomic      Atomic             Coordinates (Angstroms)
 Number     Number       Type             X           Y           Z
 ---------------------------------------------------------------------
      1          6           0        3.788948    0.618888    0.242779
      2          6           0        3.967312    1.973736   -0.443193
      3          6           0        4.430963    3.067312    0.519570
      4          1           0        3.062354    0.721825    1.060343
      5          1           0        4.740283    0.322014    0.705622
      6          1           0        3.016295    2.267318   -0.905785
      7          1           0        4.693423    1.867518   -1.259341
      8          1           0        5.391443    2.800307    0.972104
      9          1           0        3.704785    3.202378    1.327669
     10          1           0        4.552050    4.027409    0.008284
     11          6           0        3.325738   -0.484574   -0.706714
     12          6           0        3.147375   -1.839421   -0.020741
     13          6           0        2.683724   -2.932998   -0.983504
     14          1           0        2.374404   -0.187699   -1.169556
     15          1           0        4.052333   -0.587511   -1.524277
     16          1           0        2.421264   -1.733204    0.795407
     17          1           0        4.098392   -2.133004    0.441851
     18          1           0        3.409901   -3.068064   -1.791603
     19          1           0        1.723244   -2.665992   -1.436038
     20          1           0        2.562637   -3.893094   -0.472218
     21          6           0       -3.165713   -0.423190    0.782692
     22          6           0       -1.713756   -0.715119    0.402450
     23          6           0       -0.943277   -1.427654    1.514408
     24          1           0       -3.183205    0.190158    1.693979
     25          1           0       -3.669166   -1.367574    1.031832
     26          1           0       -1.213572    0.229386    0.152765
     27          1           0       -1.699714   -1.327682   -0.508145
     28          1           0       -1.416461   -2.384120    1.759096
     29          1           0       -0.927557   -0.818203    2.423762
     30          1           0        0.092300   -1.626607    1.221395
     31          6           0       -3.948974    0.288876   -0.318758
     32          6           0       -5.400931    0.580804    0.061483
     33          6           0       -6.171410    1.293340   -1.050474
     34          1           0       -3.445521    1.233259   -0.567898
     35          1           0       -3.931482   -0.324471   -1.230045
     36          1           0       -5.414972    1.193367    0.972079
     37          1           0       -5.901114   -0.363701    0.311169
     38          1           0       -6.187130    0.683889   -1.959827
     39          1           0       -5.698226    2.249805   -1.295161
     40          1           0       -7.206987    1.492293   -0.757461
 ---------------------------------------------------------------------

 SCF Done:  E(RHF) =  -470.733365168     A.U. after   11 cycles
 E2 =    -0.1582698001D+01 EUMP2 =    -0.47231606316851D+03

 The electronic state is 1-A.
 Alpha  occ. eigenvalues --  -11.21660 -11.21624 -11.21604 -11.21602 -11.21440
 Alpha  occ. eigenvalues --  -11.21404 -11.21380 -11.21345 -11.21103 -11.21089
 Alpha  occ. eigenvalues --  -11.21078 -11.21074  -1.08468  -1.08431  -1.03578
 Alpha  occ. eigenvalues --   -1.03524  -0.96022  -0.95975  -0.87037  -0.86994
 Alpha  occ. eigenvalues --   -0.79655  -0.79574  -0.78281  -0.78242  -0.65100
 Alpha  occ. eigenvalues --   -0.65080  -0.61005  -0.60959  -0.59412  -0.59292
 Alpha  occ. eigenvalues --   -0.57646  -0.57562  -0.55311  -0.55255  -0.52735
 Alpha  occ. eigenvalues --   -0.52666  -0.52450  -0.52390  -0.49953  -0.49920
 Alpha  occ. eigenvalues --   -0.48012  -0.47862  -0.46662  -0.46623  -0.45829
 Alpha  occ. eigenvalues --   -0.45784  -0.45746  -0.45698  -0.43810  -0.43758
 Alpha virt. eigenvalues --    0.20461   0.23094   0.23733   0.25169   0.26298
 Alpha virt. eigenvalues --    0.26564   0.26827   0.27826   0.27892   0.28815
 Alpha virt. eigenvalues --    0.30469   0.31179   0.31461   0.31777   0.32203

 Mulliken charges:
               1
     1  C   -0.298450
     2  C   -0.299645
     3  C   -0.475705
     4  H    0.149855
     5  H    0.149573
     6  H    0.151836
     7  H    0.151973
     8  H    0.155237
     9  H    0.155117
    10  H    0.160222
    11  C   -0.298578
    12  C   -0.306109
    13  C   -0.476209
    14  H    0.150040
    15  H    0.149777
    16  H    0.156863
    17  H    0.152557
    18  H    0.155393
    19  H    0.155634
    20  H    0.160465
    21  C   -0.298478
    22  C   -0.299154
    23  C   -0.484158
    24  H    0.149746
    25  H    0.149805
    26  H    0.151281
    27  H    0.151923
    28  H    0.155805
    29  H    0.155075
    30  H    0.168058
    31  C   -0.298285
    32  C   -0.299681
    33  C   -0.475731
    34  H    0.149440
    35  H    0.149733
    36  H    0.151978
    37  H    0.152023
    38  H    0.155237
    39  H    0.155191
    40  H    0.160346
 Sum of Mulliken charges =  -0.00000

 Dipole moment (field-independent basis, Debye):
    X=             -0.0031    Y=             -0.0085    Z=             -0.0005  Tot=              0.0090
 Quadrupole moment (field-independent basis, Debye-Ang):
   XX=            -84.2778   YY=            -84.9590   ZZ=            -85.4313
   XY=              0.0810   XZ=             -0.7749   YZ=              0.2592

 Normal termination of Gaussian 16 at Thu May  6 13:11:13 2021.
