 Gaussian 16, Revision A.03,
 Gaussian 16:  EM64L-G16RevA.03 25-Dec-2016

 -------------
 #p 6-31g* mp2
 -------------

 ------------------------------------------------------
 Input file generated by CHIRIPA (05-May-2021 14:55:20)
 ------------------------------------------------------
 Symbolic Z-matrix:
 Charge =  0 Multiplicity = 1

                         Standard orientation:
 ---------------------------------------------------------------------
 Center     Atomic      Atomic             Coordinates (Angstroms)
 Number     Number       Type             X           Y           Z
 ---------------------------------------------------------------------
      1          6           0       -2.392787    2.600700    0.311423
      2          6           0       -2.539283    1.660777    1.336900
      3          6           0       -2.731130    0.308487    1.038481
      4          6           0       -2.771508   -0.070648   -0.302383
      5          6           0       -2.628753    0.841965   -1.346438
      6          6           0       -2.437911    2.189020   -1.024618
      7          1           0       -2.244146    3.649159    0.552331
      8          1           0       -2.504663    1.977623    2.375387
      9          1           0       -2.847368   -0.440221    1.812654
     10          1           0       -2.667727    0.495873   -2.372167
     11          1           0       -2.324436    2.916771   -1.823084
     12          7           0       -2.974077   -1.499486   -0.630693
     13          8           0       -3.005882   -1.807971   -1.820005
     14          8           0       -3.097209   -2.283870    0.307506
     15          6           0        2.744356   -0.281308    0.332546
     16          6           0        2.193039   -0.614899    1.719179
     17          6           0        0.670306   -0.752366    1.732545
     18          1           0        2.287320    0.652776   -0.021787
     19          1           0        2.439885   -1.065897   -0.373932
     20          1           0        2.499626    0.169374    2.423122
     21          1           0        2.651585   -1.548197    2.070333
     22          1           0        0.349336   -1.547909    1.052332
     23          1           0        0.196514    0.179420    1.407126
     24          1           0        0.297517   -0.990951    2.733528
     25          6           0        4.265238   -0.140688    0.303036
     26          6           0        4.816554    0.192904   -1.083598
     27          6           0        6.339288    0.330371   -1.096963
     28          1           0        4.569708    0.643902    1.009513
     29          1           0        4.722274   -1.074771    0.657368
     30          1           0        4.358008    1.126201   -1.434751
     31          1           0        4.509968   -0.591370   -1.787541
     32          1           0        6.813080   -0.601415   -0.771545
     33          1           0        6.660257    1.125915   -0.416750
     34          1           0        6.712076    0.568955   -2.097946
 ---------------------------------------------------------------------

 SCF Done:  E(RHF) =  -669.535123426     A.U. after   15 cycles
 E2 =    -0.2092429125D+01 EUMP2 =    -0.67162755255132D+03

 The electronic state is 1-A.
 Alpha  occ. eigenvalues --  -20.60771 -20.60761 -15.85817 -11.31161 -11.27765
 Alpha  occ. eigenvalues --  -11.27743 -11.27528 -11.26773 -11.26754 -11.21633
 Alpha  occ. eigenvalues --  -11.21584 -11.21416 -11.21352 -11.21106 -11.20973
 Alpha  occ. eigenvalues --   -1.59840  -1.39394  -1.19368  -1.08760  -1.08437
 Alpha  occ. eigenvalues --   -1.04776  -1.03531  -0.95989  -0.95590  -0.87010
 Alpha  occ. eigenvalues --   -0.86161  -0.82426  -0.79607  -0.78253  -0.77465
 Alpha  occ. eigenvalues --   -0.72038  -0.71160  -0.70478  -0.65073  -0.65014
 Alpha  occ. eigenvalues --   -0.64770  -0.62115  -0.60934  -0.59356  -0.57613
 Alpha  occ. eigenvalues --   -0.55309  -0.55277  -0.53301  -0.52872  -0.52652
 Alpha  occ. eigenvalues --   -0.52237  -0.49893  -0.48796  -0.48791  -0.47903
 Alpha  occ. eigenvalues --   -0.46625  -0.45792  -0.45715  -0.44791  -0.43798
 Alpha  occ. eigenvalues --   -0.37350  -0.36295
 Alpha virt. eigenvalues --    0.05065   0.11235   0.16534   0.21329   0.22861
 Alpha virt. eigenvalues --    0.24269   0.26641   0.26944   0.27476   0.27892
 Alpha virt. eigenvalues --    0.28500   0.30711   0.31467   0.31627   0.31853

 Mulliken charges:
               1
     1  C   -0.171305
     2  C   -0.219908
     3  C   -0.166790
     4  C    0.159991
     5  C   -0.170716
     6  C   -0.218981
     7  H    0.225618
     8  H    0.223835
     9  H    0.276571
    10  H    0.275650
    11  H    0.223369
    12  N    0.488022
    13  O   -0.460679
    14  O   -0.460268
    15  C   -0.298518
    16  C   -0.299563
    17  C   -0.482856
    18  H    0.147017
    19  H    0.152724
    20  H    0.148598
    21  H    0.153578
    22  H    0.161914
    23  H    0.157246
    24  H    0.156005
    25  C   -0.298194
    26  C   -0.299571
    27  C   -0.475671
    28  H    0.148009
    29  H    0.150841
    30  H    0.150011
    31  H    0.153531
    32  H    0.155997
    33  H    0.154336
    34  H    0.160159
 Sum of Mulliken charges =  -0.00000

 Dipole moment (field-independent basis, Debye):
    X=              0.6560    Y=              4.9905    Z=              1.1276  Tot=              5.1582
 Quadrupole moment (field-independent basis, Debye-Ang):
   XX=           -100.8259   YY=            -94.8260   ZZ=            -90.8698
   XY=            -14.4503   XZ=             -3.6802   YZ=             -2.5888

 Normal termination of Gaussian 16 at Thu May  6 10:49:59 2021.
