 Gaussian 16, Revision A.03,
 Gaussian 16:  EM64L-G16RevA.03 25-Dec-2016

 -------------
 #p 6-31g* mp2
 -------------

 ------------------------------------------------------
 Input file generated by CHIRIPA (05-May-2021 14:53:13)
 ------------------------------------------------------
 Symbolic Z-matrix:
 Charge =  0 Multiplicity = 1

                         Standard orientation:
 ---------------------------------------------------------------------
 Center     Atomic      Atomic             Coordinates (Angstroms)
 Number     Number       Type             X           Y           Z
 ---------------------------------------------------------------------
      1          6           0       -3.197862   -0.230764    0.050523
      2          6           0       -2.322213   -1.412270    0.469175
      3          6           0       -0.840457   -1.046562    0.561107
      4          1           0       -2.851329    0.148253   -0.920665
      5          1           0       -3.065391    0.588239    0.770994
      6          1           0       -2.457349   -2.229308   -0.251105
      7          1           0       -2.670992   -1.788640    1.439388
      8          1           0       -0.685474   -0.248107    1.293945
      9          1           0       -0.470617   -0.691279   -0.406154
     10          1           0       -0.232808   -1.905728    0.861864
     11          6           0       -4.681783   -0.580661   -0.045805
     12          6           0       -5.557431    0.600845   -0.464456
     13          6           0       -7.039187    0.235137   -0.556389
     14          1           0       -4.814253   -1.399665   -0.766276
     15          1           0       -5.028315   -0.959679    0.925383
     16          1           0       -5.208653    0.977215   -1.434670
     17          1           0       -5.422296    1.417883    0.255823
     18          1           0       -7.409027   -0.120146    0.410872
     19          1           0       -7.194170   -0.563318   -1.289226
     20          1           0       -7.646837    1.094303   -0.857145
     21          6           0        1.730696    2.358043    0.618418
     22          6           0        1.796044    1.269628    1.494549
     23          6           0        2.539501    0.133523    1.161258
     24          6           0        3.208237    0.119639   -0.061807
     25          6           0        3.162498    1.188149   -0.955946
     26          6           0        2.412929    2.313908   -0.601881
     27          1           0        1.150785    3.236578    0.885395
     28          1           0        1.267229    1.301122    2.442920
     29          1           0        2.607183   -0.723125    1.820798
     30          1           0        3.700358    1.127431   -1.894263
     31          1           0        2.363969    3.157713   -1.284260
     32          7           0        3.998538   -1.077628   -0.425644
     33          8           0        4.578653   -1.065101   -1.509131
     34          8           0        4.022896   -2.005902    0.379559
 ---------------------------------------------------------------------

 SCF Done:  E(RHF) =  -669.534561344     A.U. after   15 cycles
 E2 =    -0.2092559634D+01 EUMP2 =    -0.67162712097848D+03

 The electronic state is 1-A.
 Alpha  occ. eigenvalues --  -20.60742 -20.60737 -15.85796 -11.31150 -11.27715
 Alpha  occ. eigenvalues --  -11.27703 -11.27456 -11.26740 -11.26721 -11.21867
 Alpha  occ. eigenvalues --  -11.21794 -11.21684 -11.21608 -11.21291 -11.21262
 Alpha  occ. eigenvalues --   -1.59817  -1.39371  -1.19327  -1.08727  -1.08681
 Alpha  occ. eigenvalues --   -1.04740  -1.03761  -0.96221  -0.95558  -0.87242
 Alpha  occ. eigenvalues --   -0.86133  -0.82397  -0.79836  -0.78506  -0.77440
 Alpha  occ. eigenvalues --   -0.72015  -0.71139  -0.70435  -0.65322  -0.64981
 Alpha  occ. eigenvalues --   -0.64750  -0.62096  -0.61158  -0.59584  -0.57841
 Alpha  occ. eigenvalues --   -0.55523  -0.55231  -0.53423  -0.52911  -0.52765
 Alpha  occ. eigenvalues --   -0.52353  -0.50167  -0.48773  -0.48769  -0.48127
 Alpha  occ. eigenvalues --   -0.46871  -0.46040  -0.45976  -0.44780  -0.44030
 Alpha  occ. eigenvalues --   -0.37294  -0.36234
 Alpha virt. eigenvalues --    0.05095   0.11246   0.16548   0.21018   0.22672
 Alpha virt. eigenvalues --    0.24066   0.26190   0.26728   0.27215   0.28079
 Alpha virt. eigenvalues --    0.28650   0.29838   0.31388   0.31627   0.31865

 Mulliken charges:
               1
     1  C   -0.297347
     2  C   -0.301355
     3  C   -0.474522
     4  H    0.149679
     5  H    0.144998
     6  H    0.154553
     7  H    0.151045
     8  H    0.147389
     9  H    0.158172
    10  H    0.162251
    11  C   -0.298334
    12  C   -0.299521
    13  C   -0.475790
    14  H    0.151226
    15  H    0.149847
    16  H    0.151751
    17  H    0.150209
    18  H    0.155456
    19  H    0.156218
    20  H    0.160289
    21  C   -0.171245
    22  C   -0.215575
    23  C   -0.165610
    24  C    0.158007
    25  C   -0.171821
    26  C   -0.218677
    27  H    0.225304
    28  H    0.222669
    29  H    0.275419
    30  H    0.275316
    31  H    0.223176
    32  N    0.488150
    33  O   -0.460647
    34  O   -0.460680
 Sum of Mulliken charges =  -0.00000

 Dipole moment (field-independent basis, Debye):
    X=             -2.7827    Y=              4.1901    Z=              1.2585  Tot=              5.1850
 Quadrupole moment (field-independent basis, Debye-Ang):
   XX=           -114.3854   YY=            -93.3107   ZZ=            -90.4479
   XY=             13.8374   XZ=              2.9335   YZ=             -1.9863

 Normal termination of Gaussian 16 at Thu May  6 18:45:30 2021.
