 Gaussian 16, Revision A.03,
 Gaussian 16:  EM64L-G16RevA.03 25-Dec-2016

 -------------
 #p 6-31g* mp2
 -------------

 ------------------------------------------------------
 Input file generated by CHIRIPA (05-May-2021 14:53:15)
 ------------------------------------------------------
 Symbolic Z-matrix:
 Charge =  0 Multiplicity = 1

                         Standard orientation:
 ---------------------------------------------------------------------
 Center     Atomic      Atomic             Coordinates (Angstroms)
 Number     Number       Type             X           Y           Z
 ---------------------------------------------------------------------
      1          6           0        3.413731   -0.758567   -0.495260
      2          6           0        2.309867   -1.583813    0.166888
      3          6           0        1.437882   -2.325811   -0.846460
      4          1           0        2.958303   -0.036909   -1.187170
      5          1           0        4.042423   -1.422206   -1.104953
      6          1           0        1.684274   -0.919039    0.776252
      7          1           0        2.767965   -2.303460    0.857445
      8          1           0        2.044037   -3.011647   -1.447132
      9          1           0        0.954189   -1.619360   -1.528786
     10          1           0        0.655326   -2.909351   -0.351538
     11          6           0        4.293874   -0.010961    0.504821
     12          6           0        5.397738    0.814284   -0.157326
     13          6           0        6.269723    1.556283    0.856022
     14          1           0        3.665182    0.652677    1.114514
     15          1           0        4.749302   -0.732619    1.196732
     16          1           0        4.939640    1.533931   -0.847883
     17          1           0        6.023331    0.149510   -0.766690
     18          1           0        6.753416    0.849831    1.538348
     19          1           0        5.663568    2.242118    1.456694
     20          1           0        7.052279    2.139822    0.361100
     21          6           0       -3.328734   -2.153289    0.489495
     22          6           0       -4.170941   -1.205650    1.080419
     23          6           0       -4.003988    0.156656    0.814339
     24          6           0       -2.980045    0.537830   -0.051418
     25          6           0       -2.124713   -0.382303   -0.655614
     26          6           0       -2.310104   -1.739321   -0.375112
     27          1           0       -3.465588   -3.209506    0.701795
     28          1           0       -4.962859   -1.524251    1.752284
     29          1           0       -4.641683    0.911482    1.258186
     30          1           0       -1.344115   -0.034229   -1.321144
     31          1           0       -1.654535   -2.473047   -0.835459
     32          7           0       -2.793540    1.977242   -0.340740
     33          8           0       -1.883993    2.287327   -1.107036
     34          8           0       -3.560436    2.768114    0.204264
 ---------------------------------------------------------------------

 SCF Done:  E(RHF) =  -669.535194502     A.U. after   15 cycles
 E2 =    -0.2091686215D+01 EUMP2 =    -0.67162688071755D+03

 The electronic state is 1-A.
 Alpha  occ. eigenvalues --  -20.60762 -20.60757 -15.85814 -11.31158 -11.27721
 Alpha  occ. eigenvalues --  -11.27707 -11.27447 -11.26739 -11.26660 -11.22082
 Alpha  occ. eigenvalues --  -11.21944 -11.21637 -11.21614 -11.21475 -11.21038
 Alpha  occ. eigenvalues --   -1.59837  -1.39392  -1.19323  -1.08725  -1.08664
 Alpha  occ. eigenvalues --   -1.04723  -1.03830  -0.96315  -0.95562  -0.87352
 Alpha  occ. eigenvalues --   -0.86117  -0.82393  -0.79908  -0.78428  -0.77442
 Alpha  occ. eigenvalues --   -0.72033  -0.71160  -0.70438  -0.65297  -0.64968
 Alpha  occ. eigenvalues --   -0.64751  -0.62156  -0.61178  -0.59702  -0.57893
 Alpha  occ. eigenvalues --   -0.55611  -0.55206  -0.53266  -0.53027  -0.52794
 Alpha  occ. eigenvalues --   -0.52517  -0.50242  -0.48790  -0.48787  -0.48211
 Alpha  occ. eigenvalues --   -0.46906  -0.45986  -0.45868  -0.44802  -0.44063
 Alpha  occ. eigenvalues --   -0.37305  -0.36305
 Alpha virt. eigenvalues --    0.05070   0.11282   0.16513   0.20189   0.22820
 Alpha virt. eigenvalues --    0.23974   0.25770   0.26459   0.26905   0.27837
 Alpha virt. eigenvalues --    0.29285   0.29713   0.31354   0.31602   0.32393

 Mulliken charges:
               1
     1  C   -0.299666
     2  C   -0.299869
     3  C   -0.480229
     4  H    0.153142
     5  H    0.149443
     6  H    0.155758
     7  H    0.153311
     8  H    0.159369
     9  H    0.151114
    10  H    0.154258
    11  C   -0.299001
    12  C   -0.300327
    13  C   -0.476064
    14  H    0.152414
    15  H    0.148933
    16  H    0.154758
    17  H    0.151219
    18  H    0.154357
    19  H    0.156851
    20  H    0.161008
    21  C   -0.172068
    22  C   -0.218392
    23  C   -0.171141
    24  C    0.158934
    25  C   -0.174307
    26  C   -0.219728
    27  H    0.225346
    28  H    0.223216
    29  H    0.275368
    30  H    0.276017
    31  H    0.229270
    32  N    0.488194
    33  O   -0.461042
    34  O   -0.460448
 Sum of Mulliken charges =  -0.00000

 Dipole moment (field-independent basis, Debye):
    X=             -0.5136    Y=             -5.0333    Z=              1.0504  Tot=              5.1673
 Quadrupole moment (field-independent basis, Debye-Ang):
   XX=            -87.9568   YY=           -100.3931   ZZ=            -94.0263
   XY=             13.1344   XZ=             -6.1626   YZ=              1.1280

 Normal termination of Gaussian 16 at Thu May  6 17:09:15 2021.
