 Gaussian 16, Revision A.03,
 Gaussian 16:  EM64L-G16RevA.03 25-Dec-2016

 -------------
 #p 6-31g* mp2
 -------------

 ------------------------------------------------------
 Input file generated by CHIRIPA (05-May-2021 14:55:21)
 ------------------------------------------------------
 Symbolic Z-matrix:
 Charge =  0 Multiplicity = 1

                         Standard orientation:
 ---------------------------------------------------------------------
 Center     Atomic      Atomic             Coordinates (Angstroms)
 Number     Number       Type             X           Y           Z
 ---------------------------------------------------------------------
      1          6           0       -0.580239   -0.789296    0.298007
      2          6           0       -1.251346   -1.091495   -0.891451
      3          6           0       -2.604070   -0.773072   -1.044073
      4          6           0       -3.257748   -0.149956    0.017869
      5          6           0       -2.616700    0.164003    1.215274
      6          6           0       -1.263853   -0.163614    1.345726
      7          1           0        0.470638   -1.040226    0.407956
      8          1           0       -0.722979   -1.577383   -1.706795
      9          1           0       -3.147966   -0.995668   -1.954043
     10          1           0       -3.170128    0.648620    2.010435
     11          1           0       -0.745214    0.072268    2.270615
     12          7           0       -4.689882    0.192011   -0.131969
     13          8           0       -5.243210    0.740758    0.818474
     14          8           0       -5.231943   -0.095178   -1.197019
     15          6           0        4.231891   -0.366775   -0.284442
     16          6           0        3.840905   -1.615156    0.507176
     17          6           0        4.577686   -2.869112    0.035427
     18          1           0        4.024972   -0.536309   -1.349988
     19          1           0        5.316081   -0.210643   -0.197555
     20          1           0        2.757569   -1.768100    0.419958
     21          1           0        4.048600   -1.442560    1.570985
     22          1           0        5.660147   -2.741586    0.138461
     23          1           0        4.361780   -3.068976   -1.019105
     24          1           0        4.283144   -3.749672    0.614841
     25          6           0        3.503700    0.894945    0.175477
     26          6           0        3.894686    2.143327   -0.616141
     27          6           0        3.157905    3.397282   -0.144394
     28          1           0        2.419509    0.738815    0.088589
     29          1           0        3.710618    1.064479    1.241022
     30          1           0        3.686990    1.970731   -1.679950
     31          1           0        4.978022    2.296271   -0.528924
     32          1           0        3.373811    3.597147    0.910140
     33          1           0        2.075444    3.269758   -0.247426
     34          1           0        3.452447    4.277842   -0.723806
 ---------------------------------------------------------------------

 SCF Done:  E(RHF) =  -669.535444707     A.U. after   15 cycles
 E2 =    -0.2091771273D+01 EUMP2 =    -0.67162721597989D+03

 The electronic state is 1-A.
 Alpha  occ. eigenvalues --  -20.60754 -20.60749 -15.85808 -11.31179 -11.27744
 Alpha  occ. eigenvalues --  -11.27737 -11.27451 -11.26763 -11.26748 -11.22797
 Alpha  occ. eigenvalues --  -11.22386 -11.22339 -11.22294 -11.22002 -11.21654
 Alpha  occ. eigenvalues --   -1.59830  -1.39383  -1.19348  -1.09388  -1.08740
 Alpha  occ. eigenvalues --   -1.04750  -1.04408  -0.96827  -0.95577  -0.87843
 Alpha  occ. eigenvalues --   -0.86145  -0.82413  -0.80500  -0.79211  -0.77455
 Alpha  occ. eigenvalues --   -0.72025  -0.71153  -0.70481  -0.66020  -0.64997
 Alpha  occ. eigenvalues --   -0.64747  -0.62097  -0.61812  -0.60210  -0.58447
 Alpha  occ. eigenvalues --   -0.56111  -0.55281  -0.53503  -0.53252  -0.53072
 Alpha  occ. eigenvalues --   -0.52839  -0.50777  -0.48817  -0.48781  -0.48767
 Alpha  occ. eigenvalues --   -0.47547  -0.46710  -0.46638  -0.44788  -0.44673
 Alpha  occ. eigenvalues --   -0.37317  -0.36356
 Alpha virt. eigenvalues --    0.05046   0.11296   0.16433   0.19142   0.22670
 Alpha virt. eigenvalues --    0.23505   0.24846   0.26148   0.27174   0.27318
 Alpha virt. eigenvalues --    0.29584   0.30255   0.30958   0.31159   0.32364

 Mulliken charges:
               1
     1  C   -0.179753
     2  C   -0.222689
     3  C   -0.170718
     4  C    0.158473
     5  C   -0.170646
     6  C   -0.222438
     7  H    0.241302
     8  H    0.223284
     9  H    0.275539
    10  H    0.275605
    11  H    0.224726
    12  N    0.487926
    13  O   -0.460364
    14  O   -0.460463
    15  C   -0.298787
    16  C   -0.305284
    17  C   -0.475492
    18  H    0.150202
    19  H    0.154299
    20  H    0.142986
    21  H    0.155129
    22  H    0.159437
    23  H    0.155941
    24  H    0.162384
    25  C   -0.301925
    26  C   -0.299793
    27  C   -0.476884
    28  H    0.144393
    29  H    0.150685
    30  H    0.153210
    31  H    0.154333
    32  H    0.155387
    33  H    0.156636
    34  H    0.163360
 Sum of Mulliken charges =  -0.00000

 Dipole moment (field-independent basis, Debye):
    X=              5.2687    Y=             -1.1558    Z=              0.5162  Tot=              5.4186
 Quadrupole moment (field-independent basis, Debye-Ang):
   XX=           -126.9120   YY=            -94.9720   ZZ=            -90.1320
   XY=              3.7302   XZ=             -1.1134   YZ=              1.8368

 Normal termination of Gaussian 16 at Thu May  6 17:29:44 2021.
