 Gaussian 16, Revision A.03,
 Gaussian 16:  EM64L-G16RevA.03 25-Dec-2016

 -------------
 #p 6-31g* mp2
 -------------

 ------------------------------------------------------
 Input file generated by CHIRIPA (05-May-2021 14:55:19)
 ------------------------------------------------------
 Symbolic Z-matrix:
 Charge =  0 Multiplicity = 1

                         Standard orientation:
 ---------------------------------------------------------------------
 Center     Atomic      Atomic             Coordinates (Angstroms)
 Number     Number       Type             X           Y           Z
 ---------------------------------------------------------------------
      1          6           0       -0.304978   -0.377611    1.414324
      2          6           0       -0.847732    0.889856    1.178814
      3          6           0       -2.076823    1.025904    0.526607
      4          6           0       -2.739097   -0.131977    0.121645
      5          6           0       -2.224337   -1.408637    0.341766
      6          6           0       -0.993799   -1.520797    0.995787
      7          1           0        0.650372   -0.474018    1.921678
      8          1           0       -0.315006    1.779417    1.502742
      9          1           0       -2.519946    1.994914    0.331467
     10          1           0       -2.778789   -2.276979    0.007127
     11          1           0       -0.574693   -2.506410    1.177344
     12          7           0       -4.041047   -0.000594   -0.569777
     13          8           0       -4.604751   -1.036237   -0.916644
     14          8           0       -4.473159    1.135540   -0.751754
     15          6           0        3.278642   -0.458629   -0.691199
     16          6           0        3.674660   -1.653228    0.177183
     17          6           0        3.765034   -2.956913   -0.616559
     18          1           0        2.311770   -0.665911   -1.169883
     19          1           0        4.011069   -0.345074   -1.502402
     20          1           0        2.942469   -1.763651    0.987318
     21          1           0        4.640610   -1.442997    0.654007
     22          1           0        4.509398   -2.871127   -1.414786
     23          1           0        2.801607   -3.193603   -1.079580
     24          1           0        4.049475   -3.797815    0.023626
     25          6           0        3.184129    0.851923    0.088062
     26          6           0        2.788111    2.046522   -0.780319
     27          6           0        2.697736    3.350209    0.013424
     28          1           0        2.451701    0.738368    0.899266
     29          1           0        4.151000    1.059206    0.566746
     30          1           0        1.822160    1.836293   -1.257143
     31          1           0        3.520303    2.156946   -1.590454
     32          1           0        3.661163    3.586899    0.476445
     33          1           0        1.953374    3.264423    0.811650
     34          1           0        2.413296    4.191110   -0.626763
 ---------------------------------------------------------------------

 SCF Done:  E(RHF) =  -669.535111891     A.U. after   15 cycles
 E2 =    -0.2093351598D+01 EUMP2 =    -0.67162846348891D+03

 The electronic state is 1-A.
 Alpha  occ. eigenvalues --  -20.60804 -20.60799 -15.85859 -11.31245 -11.27820
 Alpha  occ. eigenvalues --  -11.27816 -11.27548 -11.26837 -11.26826 -11.22541
 Alpha  occ. eigenvalues --  -11.22363 -11.22296 -11.22152 -11.21932 -11.21835
 Alpha  occ. eigenvalues --   -1.59880  -1.39432  -1.19424  -1.09297  -1.08805
 Alpha  occ. eigenvalues --   -1.04829  -1.04363  -0.96811  -0.95645  -0.87822
 Alpha  occ. eigenvalues --   -0.86224  -0.82478  -0.80425  -0.79115  -0.77517
 Alpha  occ. eigenvalues --   -0.72076  -0.71203  -0.70576  -0.65970  -0.65074
 Alpha  occ. eigenvalues --   -0.64776  -0.62228  -0.61712  -0.60167  -0.58422
 Alpha  occ. eigenvalues --   -0.56191  -0.55272  -0.53485  -0.53243  -0.53133
 Alpha  occ. eigenvalues --   -0.52905  -0.50758  -0.48841  -0.48830  -0.48737
 Alpha  occ. eigenvalues --   -0.47471  -0.46642  -0.46537  -0.44833  -0.44614
 Alpha  occ. eigenvalues --   -0.37374  -0.36427
 Alpha virt. eigenvalues --    0.04987   0.11103   0.16360   0.18636   0.21887
 Alpha virt. eigenvalues --    0.23217   0.25120   0.25946   0.26369   0.27673
 Alpha virt. eigenvalues --    0.29678   0.30688   0.30940   0.31351   0.31688

 Mulliken charges:
               1
     1  C   -0.172487
     2  C   -0.221271
     3  C   -0.171796
     4  C    0.158539
     5  C   -0.170808
     6  C   -0.220575
     7  H    0.229626
     8  H    0.227365
     9  H    0.276202
    10  H    0.275888
    11  H    0.223994
    12  N    0.488074
    13  O   -0.460275
    14  O   -0.460182
    15  C   -0.300908
    16  C   -0.299322
    17  C   -0.476533
    18  H    0.154523
    19  H    0.153617
    20  H    0.140593
    21  H    0.154874
    22  H    0.159140
    23  H    0.155550
    24  H    0.161218
    25  C   -0.298019
    26  C   -0.302245
    27  C   -0.476281
    28  H    0.138040
    29  H    0.151878
    30  H    0.156506
    31  H    0.155999
    32  H    0.158092
    33  H    0.146055
    34  H    0.164929
 Sum of Mulliken charges =  -0.00000

 Dipole moment (field-independent basis, Debye):
    X=              4.6985    Y=             -0.4569    Z=              2.2706  Tot=              5.2384
 Quadrupole moment (field-independent basis, Debye-Ang):
   XX=           -119.0392   YY=            -90.4378   ZZ=            -95.0700
   XY=              1.3424   XZ=             -6.7439   YZ=             -0.5050

 Normal termination of Gaussian 16 at Thu May  6 19:03:30 2021.
