 Gaussian 16, Revision A.03,
 Gaussian 16:  EM64L-G16RevA.03 25-Dec-2016

 -------------
 #p 6-31g* mp2
 -------------

 ------------------------------------------------------
 Input file generated by CHIRIPA (05-May-2021 14:57:25)
 ------------------------------------------------------
 Symbolic Z-matrix:
 Charge =  0 Multiplicity = 1

                         Standard orientation:
 ---------------------------------------------------------------------
 Center     Atomic      Atomic             Coordinates (Angstroms)
 Number     Number       Type             X           Y           Z
 ---------------------------------------------------------------------
      1          6           0        3.001913   -1.898866    0.952318
      2          6           0        2.840621   -0.795729    1.797063
      3          6           0        2.589756    0.473523    1.267332
      4          6           0        2.506090    0.604091   -0.118035
      5          6           0        2.662182   -0.475661   -0.985826
      6          6           0        2.912336   -1.735599   -0.433987
      7          1           0        3.196515   -2.881233    1.372413
      8          1           0        2.909672   -0.919555    2.874070
      9          1           0        2.460825    1.344591    1.898231
     10          1           0        2.587910   -0.320942   -2.055389
     11          1           0        3.037172   -2.590522   -1.092446
     12          7           0        2.240886    1.942861   -0.690541
     13          8           0        2.171768    2.031481   -1.914472
     14          8           0        2.107159    2.878218    0.095500
     15          6           0       -4.290719    1.332210    0.649493
     16          6           0       -3.189762    1.115332    1.484585
     17          6           0       -2.219021    0.167281    1.147826
     18          6           0       -2.381493   -0.549309   -0.036822
     19          6           0       -3.467183   -0.356078   -0.889598
     20          6           0       -4.425678    0.597109   -0.532848
     21          1           0       -5.040058    2.070674    0.918860
     22          1           0       -3.082361    1.684759    2.403423
     23          1           0       -1.356796   -0.020781    1.776014
     24          1           0       -3.546950   -0.939119   -1.799058
     25          1           0       -5.279658    0.763426   -1.183311
     26          7           0       -1.360295   -1.555687   -0.403915
     27          8           0       -1.526478   -2.173995   -1.453064
     28          8           0       -0.413032   -1.707123    0.364458
 ---------------------------------------------------------------------

 SCF Done:  E(RHF) =  -868.338423835     A.U. after   16 cycles
 E2 =    -0.2601152612D+01 EUMP2 =    -0.87093957644642D+03

 The electronic state is 1-A.
 Alpha  occ. eigenvalues --  -20.60960 -20.60945 -20.60146 -20.60125 -15.85977
 Alpha  occ. eigenvalues --  -15.85177 -11.31173 -11.30175 -11.27735 -11.27717
 Alpha  occ. eigenvalues --  -11.27428 -11.26785 -11.26701 -11.26691 -11.26627
 Alpha  occ. eigenvalues --  -11.26338 -11.25732 -11.25545  -1.60028  -1.59224
 Alpha  occ. eigenvalues --   -1.39587  -1.38788  -1.19328  -1.18281  -1.08758
 Alpha  occ. eigenvalues --   -1.07752  -1.04708  -1.03661  -0.95626  -0.94665
 Alpha  occ. eigenvalues --   -0.86117  -0.85101  -0.82468  -0.81533  -0.77538
 Alpha  occ. eigenvalues --   -0.76628  -0.72237  -0.71412  -0.71347  -0.70537
 Alpha  occ. eigenvalues --   -0.70444  -0.69450  -0.64990  -0.64717  -0.63975
 Alpha  occ. eigenvalues --   -0.63716  -0.62068  -0.61068  -0.55220  -0.54195
 Alpha  occ. eigenvalues --   -0.53042  -0.52807  -0.51955  -0.51805  -0.49000
 Alpha  occ. eigenvalues --   -0.48941  -0.48183  -0.48131  -0.44987  -0.44275
 Alpha  occ. eigenvalues --   -0.37294  -0.36302  -0.36155  -0.35166
 Alpha virt. eigenvalues --    0.04967   0.05909   0.11355   0.12432   0.16520
 Alpha virt. eigenvalues --    0.17506   0.21470   0.22396   0.27350   0.28173
 Alpha virt. eigenvalues --    0.28409   0.29257   0.31011   0.31897   0.32463

 Mulliken charges:
               1
     1  C   -0.158937
     2  C   -0.215160
     3  C   -0.175628
     4  C    0.158361
     5  C   -0.169426
     6  C   -0.200851
     7  H    0.222920
     8  H    0.216809
     9  H    0.267316
    10  H    0.272869
    11  H    0.223416
    12  N    0.487352
    13  O   -0.462427
    14  O   -0.467242
    15  C   -0.169493
    16  C   -0.216610
    17  C   -0.169846
    18  C    0.158151
    19  C   -0.169784
    20  C   -0.217903
    21  H    0.226573
    22  H    0.224046
    23  H    0.272597
    24  H    0.275200
    25  H    0.224008
    26  N    0.489680
    27  O   -0.462614
    28  O   -0.463375
 Sum of Mulliken charges =  -0.00000

 Dipole moment (field-independent basis, Debye):
    X=             -2.8201    Y=             -1.4619    Z=              3.2336  Tot=              4.5328
 Quadrupole moment (field-independent basis, Debye-Ang):
   XX=            -82.9385   YY=           -114.7594   ZZ=            -98.2787
   XY=            -18.5628   XZ=              4.0699   YZ=              4.0759

 Normal termination of Gaussian 16 at Thu May  6 03:33:12 2021.
