 Gaussian 16, Revision A.03,
 Gaussian 16:  EM64L-G16RevA.03 25-Dec-2016

 -------------
 #p 6-31g* mp2
 -------------

 ------------------------------------------------------
 Input file generated by CHIRIPA (05-May-2021 14:57:25)
 ------------------------------------------------------
 Symbolic Z-matrix:
 Charge =  0 Multiplicity = 1

                         Standard orientation:
 ---------------------------------------------------------------------
 Center     Atomic      Atomic             Coordinates (Angstroms)
 Number     Number       Type             X           Y           Z
 ---------------------------------------------------------------------
      1          6           0       -1.084652    1.152403   -0.895679
      2          6           0       -1.010829    0.169666    0.096943
      3          6           0       -2.170232   -0.457517    0.562748
      4          6           0       -3.392306   -0.075772    0.011299
      5          6           0       -3.498500    0.899864   -0.978725
      6          6           0       -2.326063    1.513728   -1.429405
      7          1           0       -0.178937    1.634440   -1.251653
      8          1           0       -0.048099   -0.112956    0.513262
      9          1           0       -2.141882   -1.221397    1.330277
     10          1           0       -4.472596    1.160402   -1.374548
     11          1           0       -2.386414    2.276612   -2.200385
     12          7           0       -4.626613   -0.732692    0.496419
     13          8           0       -5.691105   -0.378481   -0.005605
     14          8           0       -4.506199   -1.589358    1.369494
     15          6           0        2.727725    2.202503    1.144778
     16          6           0        2.466802    2.013836   -0.216415
     17          6           0        2.718466    0.779731   -0.823208
     18          6           0        3.233460   -0.248568   -0.035380
     19          6           0        3.503902   -0.091636    1.323120
     20          6           0        3.244530    1.151017    1.908854
     21          1           0        2.529232    3.164506    1.607970
     22          1           0        2.065435    2.828646   -0.812263
     23          1           0        2.525715    0.606281   -1.874959
     24          1           0        3.903919   -0.922710    1.891206
     25          1           0        3.448135    1.294668    2.966188
     26          7           0        3.503965   -1.559585   -0.666618
     27          8           0        3.957747   -2.449621    0.049313
     28          8           0        3.257084   -1.672301   -1.865360
 ---------------------------------------------------------------------

 SCF Done:  E(RHF) =  -868.336339306     A.U. after   16 cycles
 E2 =    -0.2602724286D+01 EUMP2 =    -0.87093906359142D+03

 The electronic state is 1-A.
 Alpha  occ. eigenvalues --  -20.61711 -20.61705 -20.60804 -20.60797 -15.86778
 Alpha  occ. eigenvalues --  -15.85856 -11.32413 -11.31257 -11.29044 -11.28952
 Alpha  occ. eigenvalues --  -11.28715 -11.28096 -11.27951 -11.27830 -11.27789
 Alpha  occ. eigenvalues --  -11.27572 -11.26890 -11.26780  -1.60786  -1.59878
 Alpha  occ. eigenvalues --   -1.40330  -1.39430  -1.20624  -1.19426  -1.09928
 Alpha  occ. eigenvalues --   -1.08830  -1.06056  -1.04827  -0.96717  -0.95662
 Alpha  occ. eigenvalues --   -0.87400  -0.86229  -0.83562  -0.82484  -0.78572
 Alpha  occ. eigenvalues --   -0.77518  -0.72977  -0.72135  -0.72071  -0.71632
 Alpha  occ. eigenvalues --   -0.71200  -0.70614  -0.66229  -0.66006  -0.65082
 Alpha  occ. eigenvalues --   -0.64858  -0.63360  -0.62187  -0.56451  -0.55453
 Alpha  occ. eigenvalues --   -0.54343  -0.54076  -0.53163  -0.52848  -0.49761
 Alpha  occ. eigenvalues --   -0.49722  -0.48836  -0.48827  -0.45673  -0.44827
 Alpha  occ. eigenvalues --   -0.38609  -0.37652  -0.37399  -0.36418
 Alpha virt. eigenvalues --    0.03943   0.04991   0.09891   0.11288   0.15253
 Alpha virt. eigenvalues --    0.16477   0.19429   0.21834   0.25127   0.26970
 Alpha virt. eigenvalues --    0.27213   0.29124   0.29646   0.31414   0.32284

 Mulliken charges:
               1
     1  C   -0.170540
     2  C   -0.221551
     3  C   -0.171202
     4  C    0.159027
     5  C   -0.170910
     6  C   -0.218907
     7  H    0.216350
     8  H    0.228256
     9  H    0.276505
    10  H    0.275566
    11  H    0.221494
    12  N    0.487985
    13  O   -0.460448
    14  O   -0.459651
    15  C   -0.170091
    16  C   -0.225253
    17  C   -0.177895
    18  C    0.156695
    19  C   -0.172696
    20  C   -0.219069
    21  H    0.231153
    22  H    0.222883
    23  H    0.278057
    24  H    0.280568
    25  H    0.229369
    26  N    0.487880
    27  O   -0.456269
    28  O   -0.457304
 Sum of Mulliken charges =  -0.00000

 Dipole moment (field-independent basis, Debye):
    X=              3.7007    Y=              6.8316    Z=              0.6993  Tot=              7.8010
 Quadrupole moment (field-independent basis, Debye-Ang):
   XX=           -138.6988   YY=           -106.2289   ZZ=            -99.5275
   XY=              4.7308   XZ=             17.1320   YZ=             -4.0677

 Normal termination of Gaussian 16 at Wed May  5 19:32:29 2021.
