 Gaussian 16, Revision A.03,
 Gaussian 16:  EM64L-G16RevA.03 25-Dec-2016

 -------------
 #p 6-31g* mp2
 -------------

 ------------------------------------------------------
 Input file generated by CHIRIPA (05-May-2021 14:57:25)
 ------------------------------------------------------
 Symbolic Z-matrix:
 Charge =  0 Multiplicity = 1

                         Standard orientation:
 ---------------------------------------------------------------------
 Center     Atomic      Atomic             Coordinates (Angstroms)
 Number     Number       Type             X           Y           Z
 ---------------------------------------------------------------------
      1          6           0       -1.917298   -0.546827    1.020181
      2          6           0       -2.997084   -0.396967    1.896608
      3          6           0       -4.289393   -0.194802    1.403033
      4          6           0       -4.466578   -0.147648    0.021124
      5          6           0       -3.411043   -0.293520   -0.877684
      6          6           0       -2.127353   -0.494717   -0.361732
      7          1           0       -0.916749   -0.703498    1.412294
      8          1           0       -2.836921   -0.436995    2.970289
      9          1           0       -5.143225   -0.075752    2.058942
     10          1           0       -3.601983   -0.248974   -1.943037
     11          1           0       -1.290653   -0.610782   -1.044744
     12          7           0       -5.830126    0.065862   -0.513246
     13          8           0       -5.959816    0.103484   -1.734885
     14          8           0       -6.743364    0.191548    0.299671
     15          6           0        2.413751    1.921457   -0.143532
     16          6           0        2.115052    0.585844   -0.432389
     17          6           0        3.119989   -0.385954   -0.416322
     18          6           0        4.418583    0.014754   -0.105876
     19          6           0        4.747728    1.337461    0.186361
     20          6           0        3.726820    2.292348    0.164378
     21          1           0        1.626888    2.669805   -0.158311
     22          1           0        1.096198    0.294921   -0.671856
     23          1           0        2.916581   -1.426998   -0.636027
     24          1           0        5.772777    1.597080    0.421500
     25          1           0        3.961710    3.328863    0.389120
     26          7           0        5.490919   -1.005094   -0.085734
     27          8           0        6.627042   -0.626416    0.190786
     28          8           0        5.174987   -2.163819   -0.346848
 ---------------------------------------------------------------------

 SCF Done:  E(RHF) =  -868.336801541     A.U. after   16 cycles
 E2 =    -0.2599724090D+01 EUMP2 =    -0.87093652563056D+03

 The electronic state is 1-A.
 Alpha  occ. eigenvalues --  -20.61374 -20.61365 -20.61286 -20.61279 -15.86434
 Alpha  occ. eigenvalues --  -15.86346 -11.31922 -11.31842 -11.28586 -11.28488
 Alpha  occ. eigenvalues --  -11.28479 -11.28411 -11.28291 -11.28248 -11.27678
 Alpha  occ. eigenvalues --  -11.27600 -11.27489 -11.27434  -1.60447  -1.60359
 Alpha  occ. eigenvalues --   -1.39997  -1.39908  -1.20125  -1.20048  -1.09492
 Alpha  occ. eigenvalues --   -1.09425  -1.05567  -1.05474  -0.96298  -0.96229
 Alpha  occ. eigenvalues --   -0.86986  -0.86850  -0.83142  -0.83060  -0.78191
 Alpha  occ. eigenvalues --   -0.78063  -0.72647  -0.72561  -0.71774  -0.71685
 Alpha  occ. eigenvalues --   -0.71212  -0.71158  -0.65832  -0.65779  -0.65680
 Alpha  occ. eigenvalues --   -0.65326  -0.62993  -0.62726  -0.56029  -0.55989
 Alpha  occ. eigenvalues --   -0.53868  -0.53830  -0.53735  -0.53467  -0.49419
 Alpha  occ. eigenvalues --   -0.49395  -0.49330  -0.49306  -0.45375  -0.45284
 Alpha  occ. eigenvalues --   -0.38111  -0.38037  -0.37174  -0.37078
 Alpha virt. eigenvalues --    0.04391   0.04472   0.10413   0.10513   0.15807
 Alpha virt. eigenvalues --    0.15925   0.18001   0.21887   0.24537   0.27302
 Alpha virt. eigenvalues --    0.27621   0.28566   0.29579   0.31047   0.31582

 Mulliken charges:
               1
     1  C   -0.172753
     2  C   -0.218546
     3  C   -0.169741
     4  C    0.158870
     5  C   -0.169620
     6  C   -0.224263
     7  H    0.226119
     8  H    0.226376
     9  H    0.278029
    10  H    0.277516
    11  H    0.218192
    12  N    0.487928
    13  O   -0.459134
    14  O   -0.458439
    15  C   -0.171804
    16  C   -0.225259
    17  C   -0.172221
    18  C    0.159061
    19  C   -0.169474
    20  C   -0.218518
    21  H    0.228969
    22  H    0.218491
    23  H    0.275385
    24  H    0.278201
    25  H    0.226479
    26  N    0.488079
    27  O   -0.458116
    28  O   -0.459807
 Sum of Mulliken charges =  -0.00000

 Dipole moment (field-independent basis, Debye):
    X=              1.0281    Y=              2.9284    Z=              1.9081  Tot=              3.6432
 Quadrupole moment (field-independent basis, Debye-Ang):
   XX=           -177.2430   YY=           -102.8966   ZZ=           -100.7846
   XY=             21.5010   XZ=             -9.3526   YZ=              0.5314

 Normal termination of Gaussian 16 at Fri May  7 05:00:59 2021.
