 Gaussian 16, Revision A.03,
 Gaussian 16:  EM64L-G16RevA.03 25-Dec-2016

 -------------
 #p 6-31g* mp2
 -------------

 ------------------------------------------------------
 Input file generated by CHIRIPA (05-May-2021 14:53:18)
 ------------------------------------------------------
 Symbolic Z-matrix:
 Charge =  0 Multiplicity = 1

                         Standard orientation:
 ---------------------------------------------------------------------
 Center     Atomic      Atomic             Coordinates (Angstroms)
 Number     Number       Type             X           Y           Z
 ---------------------------------------------------------------------
      1          6           0       -3.583951   -0.615615   -0.020896
      2          6           0       -4.922647   -1.347354    0.081262
      3          6           0       -4.815779   -2.828803   -0.281618
      4          1           0       -3.194985   -0.717012   -1.043329
      5          1           0       -2.855382   -1.104479    0.640613
      6          1           0       -5.648856   -0.856408   -0.579199
      7          1           0       -5.308564   -1.244041    1.103519
      8          1           0       -4.112087   -3.338741    0.384251
      9          1           0       -4.454313   -2.948906   -1.308029
     10          1           0       -5.784145   -3.332549   -0.201831
     11          6           0       -3.674581    0.866318    0.338811
     12          6           0       -2.335885    1.598057    0.236653
     13          6           0       -2.442753    3.079506    0.599533
     14          1           0       -4.403149    1.355182   -0.322698
     15          1           0       -4.063546    0.967715    1.361244
     16          1           0       -1.949968    1.494744   -0.785604
     17          1           0       -1.609676    1.107112    0.897114
     18          1           0       -2.804219    3.199610    1.625944
     19          1           0       -3.146445    3.589445   -0.066336
     20          1           0       -1.474387    3.583253    0.519746
     21          6           0        4.016096   -2.248483    0.464818
     22          6           0        4.653049   -1.020617    0.672563
     23          6           0        4.008381    0.177226    0.349882
     24          6           0        2.721215    0.109976   -0.181128
     25          6           0        2.060197   -1.097721   -0.399787
     26          6           0        2.723980   -2.283054   -0.069751
     27          1           0        4.524314   -3.174137    0.718341
     28          1           0        5.656504   -0.990734    1.087568
     29          1           0        4.478189    1.141612    0.500406
     30          1           0        1.059708   -1.095540   -0.815040
     31          1           0        2.226872   -3.235183   -0.232168
     32          7           0        2.028616    1.371458   -0.526629
     33          8           0        0.894786    1.285219   -0.993138
     34          8           0        2.632700    2.422559   -0.324382
 ---------------------------------------------------------------------

 SCF Done:  E(RHF) =  -669.535856761     A.U. after   15 cycles
 E2 =    -0.2091441972D+01 EUMP2 =    -0.67162729873274D+03

 The electronic state is 1-A.
 Alpha  occ. eigenvalues --  -20.60909 -20.60885 -15.85928 -11.31260 -11.27826
 Alpha  occ. eigenvalues --  -11.27817 -11.27566 -11.26836 -11.26825 -11.21284
 Alpha  occ. eigenvalues --  -11.20929 -11.20922 -11.20578 -11.20288 -11.19841
 Alpha  occ. eigenvalues --   -1.59961  -1.39517  -1.19430  -1.08834  -1.07766
 Alpha  occ. eigenvalues --   -1.04827  -1.02780  -0.95677  -0.95283  -0.86313
 Alpha  occ. eigenvalues --   -0.86227  -0.82514  -0.78911  -0.77645  -0.77394
 Alpha  occ. eigenvalues --   -0.72152  -0.71273  -0.70538  -0.65086  -0.64830
 Alpha  occ. eigenvalues --   -0.64411  -0.62173  -0.60187  -0.58694  -0.56827
 Alpha  occ. eigenvalues --   -0.55332  -0.54611  -0.53160  -0.52918  -0.51957
 Alpha  occ. eigenvalues --   -0.51706  -0.49278  -0.48918  -0.48913  -0.47207
 Alpha  occ. eigenvalues --   -0.45971  -0.45252  -0.44903  -0.44673  -0.43044
 Alpha  occ. eigenvalues --   -0.37411  -0.36430
 Alpha virt. eigenvalues --    0.04955   0.11221   0.16439   0.21277   0.23368
 Alpha virt. eigenvalues --    0.25041   0.26860   0.27254   0.27625   0.28597
 Alpha virt. eigenvalues --    0.28931   0.31007   0.31986   0.32094   0.32975

 Mulliken charges:
               1
     1  C   -0.296736
     2  C   -0.298704
     3  C   -0.475158
     4  H    0.148926
     5  H    0.144124
     6  H    0.152393
     7  H    0.151341
     8  H    0.151898
     9  H    0.153849
    10  H    0.159479
    11  C   -0.298930
    12  C   -0.295798
    13  C   -0.478291
    14  H    0.147587
    15  H    0.145629
    16  H    0.168357
    17  H    0.146462
    18  H    0.147617
    19  H    0.150817
    20  H    0.171839
    21  C   -0.170671
    22  C   -0.218609
    23  C   -0.170796
    24  C    0.157715
    25  C   -0.171149
    26  C   -0.218664
    27  H    0.225882
    28  H    0.223672
    29  H    0.275727
    30  H    0.276539
    31  H    0.223964
    32  N    0.491713
    33  O   -0.462029
    34  O   -0.459997
 Sum of Mulliken charges =  -0.00000

 Dipole moment (field-independent basis, Debye):
    X=              2.6887    Y=             -4.3451    Z=              1.1094  Tot=              5.2287
 Quadrupole moment (field-independent basis, Debye-Ang):
   XX=            -79.3730   YY=            -96.0602   ZZ=            -94.7550
   XY=             -9.8895   XZ=              4.8839   YZ=              1.1653

 Normal termination of Gaussian 16 at Wed May  5 18:47:51 2021.
