 Gaussian 16, Revision A.03,
 Gaussian 16:  EM64L-G16RevA.03 25-Dec-2016

 -------------
 #p 6-31g* mp2
 -------------

 ------------------------------------------------------
 Input file generated by CHIRIPA (05-May-2021 14:53:14)
 ------------------------------------------------------
 Symbolic Z-matrix:
 Charge =  0 Multiplicity = 1

                         Standard orientation:
 ---------------------------------------------------------------------
 Center     Atomic      Atomic             Coordinates (Angstroms)
 Number     Number       Type             X           Y           Z
 ---------------------------------------------------------------------
      1          6           0       -3.811013    0.684648    0.545742
      2          6           0       -2.945650    1.574405   -0.347266
      3          6           0       -1.972197    2.443368    0.449656
      4          1           0       -4.371780    1.316078    1.248437
      5          1           0       -3.158862    0.042865    1.154190
      6          1           0       -3.599269    2.213342   -0.954850
      7          1           0       -2.387023    0.940796   -1.048046
      8          1           0       -1.296531    1.819510    1.043691
      9          1           0       -2.515664    3.099287    1.137416
     10          1           0       -1.363533    3.071380   -0.208364
     11          6           0       -4.789282   -0.189985   -0.236394
     12          6           0       -5.654645   -1.079743    0.656614
     13          6           0       -6.628099   -1.948706   -0.140308
     14          1           0       -5.441433    0.451797   -0.844842
     15          1           0       -4.228515   -0.821415   -0.939089
     16          1           0       -6.213272   -0.446134    1.357394
     17          1           0       -5.001026   -1.718680    1.264198
     18          1           0       -6.084631   -2.604624   -0.828069
     19          1           0       -7.303765   -1.324848   -0.734343
     20          1           0       -7.236762   -2.576718    0.517712
     21          6           0        1.010875    0.428209   -0.801825
     22          6           0        1.383949   -0.917575   -0.723077
     23          6           0        2.682522   -1.273531   -0.346845
     24          6           0        3.586546   -0.253306   -0.055004
     25          6           0        3.245088    1.096470   -0.124293
     26          6           0        1.940995    1.429172   -0.502709
     27          1           0       -0.000033    0.695692   -1.094940
     28          1           0        0.663702   -1.697058   -0.954803
     29          1           0        2.998031   -2.307505   -0.277790
     30          1           0        3.985167    1.851139    0.112722
     31          1           0        1.654058    2.475152   -0.563018
     32          7           0        4.964209   -0.617831    0.344452
     33          8           0        5.741996    0.299864    0.596483
     34          8           0        5.240148   -1.814339    0.397952
 ---------------------------------------------------------------------

 SCF Done:  E(RHF) =  -669.535222569     A.U. after   15 cycles
 E2 =    -0.2091979306D+01 EUMP2 =    -0.67162720187428D+03

 The electronic state is 1-A.
 Alpha  occ. eigenvalues --  -20.60728 -20.60722 -15.85781 -11.31138 -11.27713
 Alpha  occ. eigenvalues --  -11.27702 -11.27388 -11.26717 -11.26696 -11.22860
 Alpha  occ. eigenvalues --  -11.22340 -11.22286 -11.22263 -11.22178 -11.21628
 Alpha  occ. eigenvalues --   -1.59804  -1.39357  -1.19309  -1.09359  -1.08699
 Alpha  occ. eigenvalues --   -1.04712  -1.04463  -0.96898  -0.95533  -0.87907
 Alpha  occ. eigenvalues --   -0.86105  -0.82374  -0.80540  -0.79122  -0.77424
 Alpha  occ. eigenvalues --   -0.71999  -0.71127  -0.70463  -0.65992  -0.64958
 Alpha  occ. eigenvalues --   -0.64720  -0.62069  -0.61864  -0.60294  -0.58493
 Alpha  occ. eigenvalues --   -0.56263  -0.55045  -0.53608  -0.53307  -0.53030
 Alpha  occ. eigenvalues --   -0.52796  -0.50824  -0.48845  -0.48755  -0.48748
 Alpha  occ. eigenvalues --   -0.47586  -0.46666  -0.46567  -0.44765  -0.44700
 Alpha  occ. eigenvalues --   -0.37266  -0.36321
 Alpha virt. eigenvalues --    0.05093   0.11311   0.16525   0.19257   0.22519
 Alpha virt. eigenvalues --    0.24023   0.25121   0.25991   0.26389   0.27681
 Alpha virt. eigenvalues --    0.29237   0.29556   0.30692   0.31477   0.31794

 Mulliken charges:
               1
     1  C   -0.298823
     2  C   -0.304740
     3  C   -0.483607
     4  H    0.153882
     5  H    0.150585
     6  H    0.157865
     7  H    0.142968
     8  H    0.160348
     9  H    0.163381
    10  H    0.154352
    11  C   -0.298576
    12  C   -0.300382
    13  C   -0.476110
    14  H    0.151548
    15  H    0.147277
    16  H    0.153832
    17  H    0.152562
    18  H    0.154982
    19  H    0.156240
    20  H    0.162566
    21  C   -0.176406
    22  C   -0.222092
    23  C   -0.170757
    24  C    0.158206
    25  C   -0.170836
    26  C   -0.221855
    27  H    0.238795
    28  H    0.222707
    29  H    0.275322
    30  H    0.275448
    31  H    0.224491
    32  N    0.488007
    33  O   -0.460525
    34  O   -0.460656
 Sum of Mulliken charges =  -0.00000

 Dipole moment (field-independent basis, Debye):
    X=             -5.1176    Y=              1.3187    Z=             -1.3138  Tot=              5.4456
 Quadrupole moment (field-independent basis, Debye-Ang):
   XX=           -129.0334   YY=            -90.5159   ZZ=            -95.6010
   XY=              6.0277   XZ=             -5.3086   YZ=              0.6575

 Normal termination of Gaussian 16 at Thu May  6 15:25:37 2021.
