 Gaussian 16, Revision A.03,
 Gaussian 16:  EM64L-G16RevA.03 25-Dec-2016

 -------------
 #p 6-31g* mp2
 -------------

 ------------------------------------------------------
 Input file generated by CHIRIPA (05-May-2021 14:57:24)
 ------------------------------------------------------
 Symbolic Z-matrix:
 Charge =  0 Multiplicity = 1

                         Standard orientation:
 ---------------------------------------------------------------------
 Center     Atomic      Atomic             Coordinates (Angstroms)
 Number     Number       Type             X           Y           Z
 ---------------------------------------------------------------------
      1          6           0       -1.073786    0.694148    0.126390
      2          6           0       -2.010575    1.640848    0.553834
      3          6           0       -3.380363    1.392766    0.424670
      4          6           0       -3.780003    0.182021   -0.138958
      5          6           0       -2.871035   -0.781081   -0.574276
      6          6           0       -1.506244   -0.511669   -0.435310
      7          1           0       -0.011643    0.895148    0.230535
      8          1           0       -1.677611    2.578166    0.990427
      9          1           0       -4.127103    2.108126    0.747249
     10          1           0       -3.233384   -1.706326   -1.005602
     11          1           0       -0.780977   -1.248728   -0.768142
     12          7           0       -5.227491   -0.091902   -0.280886
     13          8           0       -5.553879   -1.166270   -0.780729
     14          8           0       -6.008235    0.772951    0.110400
     15          6           0        5.147900    1.167125   -1.241326
     16          6           0        4.829676    1.541546    0.068278
     17          6           0        3.940822    0.776533    0.829360
     18          6           0        3.386132   -0.361962    0.246747
     19          6           0        3.683356   -0.761058   -1.055434
     20          6           0        4.574735    0.019042   -1.798020
     21          1           0        5.839364    1.767266   -1.825368
     22          1           0        5.273289    2.432666    0.503202
     23          1           0        3.676965    1.043410    1.845515
     24          1           0        3.225188   -1.654602   -1.461733
     25          1           0        4.820038   -0.274148   -2.814835
     26          7           0        2.443806   -1.179834    1.042679
     27          8           0        1.968591   -2.178432    0.506387
     28          8           0        2.198270   -0.806796    2.187752
 ---------------------------------------------------------------------

 SCF Done:  E(RHF) =  -868.338919098     A.U. after   16 cycles
 E2 =    -0.2599778584D+01 EUMP2 =    -0.87093869768262D+03

 The electronic state is 1-A.
 Alpha  occ. eigenvalues --  -20.62029 -20.61994 -20.60244 -20.60237 -15.87033
 Alpha  occ. eigenvalues --  -15.85290 -11.32258 -11.30546 -11.28785 -11.28779
 Alpha  occ. eigenvalues --  -11.28444 -11.27727 -11.27714 -11.27122 -11.27043
 Alpha  occ. eigenvalues --  -11.26828 -11.26146 -11.25965  -1.61086  -1.59320
 Alpha  occ. eigenvalues --   -1.40638  -1.38877  -1.20397  -1.18696  -1.09812
 Alpha  occ. eigenvalues --   -1.08114  -1.05756  -1.04074  -0.96669  -0.94976
 Alpha  occ. eigenvalues --   -0.87159  -0.85479  -0.83491  -0.81806  -0.78576
 Alpha  occ. eigenvalues --   -0.76864  -0.73232  -0.72461  -0.71513  -0.71464
 Alpha  occ. eigenvalues --   -0.70640  -0.69812  -0.66031  -0.65730  -0.64350
 Alpha  occ. eigenvalues --   -0.64055  -0.63096  -0.61420  -0.56229  -0.54627
 Alpha  occ. eigenvalues --   -0.54101  -0.53826  -0.52411  -0.52159  -0.50013
 Alpha  occ. eigenvalues --   -0.49979  -0.48274  -0.48262  -0.46043  -0.44307
 Alpha  occ. eigenvalues --   -0.38361  -0.37356  -0.36662  -0.35665
 Alpha virt. eigenvalues --    0.03893   0.05654   0.10282   0.11990   0.15396
 Alpha virt. eigenvalues --    0.17185   0.20505   0.21864   0.26440   0.27192
 Alpha virt. eigenvalues --    0.27953   0.28317   0.30348   0.30974   0.32072

 Mulliken charges:
               1
     1  C   -0.167027
     2  C   -0.218476
     3  C   -0.172246
     4  C    0.158464
     5  C   -0.172057
     6  C   -0.218277
     7  H    0.219072
     8  H    0.220049
     9  H    0.273127
    10  H    0.274845
    11  H    0.233540
    12  N    0.488124
    13  O   -0.461261
    14  O   -0.462530
    15  C   -0.169804
    16  C   -0.218228
    17  C   -0.174275
    18  C    0.152188
    19  C   -0.172475
    20  C   -0.217929
    21  H    0.229500
    22  H    0.226679
    23  H    0.276898
    24  H    0.275985
    25  H    0.227154
    26  N    0.486252
    27  O   -0.461810
    28  O   -0.455482
 Sum of Mulliken charges =  -0.00000

 Dipole moment (field-independent basis, Debye):
    X=              8.8497    Y=              3.7892    Z=             -2.3241  Tot=              9.9033
 Quadrupole moment (field-independent basis, Debye-Ang):
   XX=           -121.3568   YY=           -101.2000   ZZ=           -103.2508
   XY=              5.8123   XZ=            -11.7747   YZ=              6.5563

 Normal termination of Gaussian 16 at Thu May  6 13:02:39 2021.
