 Gaussian 16, Revision A.03,
 Gaussian 16:  EM64L-G16RevA.03 25-Dec-2016

 -------------
 #p 6-31g* mp2
 -------------

 ------------------------------------------------------
 Input file generated by CHIRIPA (05-May-2021 14:55:22)
 ------------------------------------------------------
 Symbolic Z-matrix:
 Charge =  0 Multiplicity = 1

                         Standard orientation:
 ---------------------------------------------------------------------
 Center     Atomic      Atomic             Coordinates (Angstroms)
 Number     Number       Type             X           Y           Z
 ---------------------------------------------------------------------
      1          6           0       -1.532127    2.405607    0.001239
      2          6           0       -2.884247    2.360298    0.356544
      3          6           0       -3.618194    1.179692    0.208093
      4          6           0       -2.965390    0.058126   -0.301050
      5          6           0       -1.619523    0.071699   -0.664019
      6          6           0       -0.905186    1.263177   -0.507012
      7          1           0       -0.969596    3.326953    0.119883
      8          1           0       -3.373743    3.245983    0.751514
      9          1           0       -4.666092    1.116759    0.475242
     10          1           0       -1.159020   -0.827437   -1.055056
     11          1           0        0.144769    1.295445   -0.783776
     12          7           0       -3.732007   -1.197484   -0.462737
     13          8           0       -3.133710   -2.171872   -0.913564
     14          8           0       -4.916663   -1.183467   -0.135579
     15          6           0        3.024729   -0.784329    0.470344
     16          6           0        2.100174   -0.264589    1.571731
     17          6           0        0.885878   -1.165669    1.798302
     18          1           0        2.455154   -0.876433   -0.464562
     19          1           0        3.362034   -1.796855    0.731898
     20          1           0        1.765816    0.747197    1.308845
     21          1           0        2.672064   -0.173530    2.504076
     22          1           0        1.202363   -2.173775    2.084938
     23          1           0        0.290967   -1.247817    0.882915
     24          1           0        0.238475   -0.775434    2.589786
     25          6           0        4.243220    0.105762    0.232125
     26          6           0        5.167775   -0.413978   -0.869262
     27          6           0        6.382070    0.487101   -1.095833
     28          1           0        3.905916    1.118288   -0.029429
     29          1           0        4.812794    0.197865    1.167031
     30          1           0        4.595885   -0.505037   -1.801607
     31          1           0        5.502133   -1.425764   -0.606376
     32          1           0        6.976981    0.569249   -0.180446
     33          1           0        6.065585    1.495207   -1.382469
     34          1           0        7.029474    0.096867   -1.887317
 ---------------------------------------------------------------------

 SCF Done:  E(RHF) =  -669.534099937     A.U. after   15 cycles
 E2 =    -0.2093397475D+01 EUMP2 =    -0.67162749741227D+03

 The electronic state is 1-A.
 Alpha  occ. eigenvalues --  -20.60775 -20.60769 -15.85830 -11.31211 -11.27795
 Alpha  occ. eigenvalues --  -11.27781 -11.27534 -11.26801 -11.26791 -11.22163
 Alpha  occ. eigenvalues --  -11.22080 -11.22011 -11.21944 -11.21490 -11.21358
 Alpha  occ. eigenvalues --   -1.59849  -1.39403  -1.19397  -1.08994  -1.08780
 Alpha  occ. eigenvalues --   -1.04826  -1.04002  -0.96447  -0.95616  -0.87460
 Alpha  occ. eigenvalues --   -0.86202  -0.82454  -0.80076  -0.78809  -0.77502
 Alpha  occ. eigenvalues --   -0.72049  -0.71173  -0.70519  -0.65694  -0.65049
 Alpha  occ. eigenvalues --   -0.64797  -0.62287  -0.61309  -0.59808  -0.58053
 Alpha  occ. eigenvalues --   -0.55813  -0.55291  -0.53214  -0.53038  -0.52940
 Alpha  occ. eigenvalues --   -0.52769  -0.50359  -0.48809  -0.48803  -0.48374
 Alpha  occ. eigenvalues --   -0.47127  -0.46334  -0.46295  -0.44802  -0.44280
 Alpha  occ. eigenvalues --   -0.37367  -0.36324
 Alpha virt. eigenvalues --    0.05025   0.11127   0.16429   0.19220   0.22799
 Alpha virt. eigenvalues --    0.23981   0.25491   0.25907   0.27326   0.28500
 Alpha virt. eigenvalues --    0.28830   0.30828   0.31288   0.31440   0.32225

 Mulliken charges:
               1
     1  C   -0.171951
     2  C   -0.218385
     3  C   -0.171168
     4  C    0.158057
     5  C   -0.171475
     6  C   -0.214975
     7  H    0.225739
     8  H    0.223553
     9  H    0.275764
    10  H    0.275387
    11  H    0.225499
    12  N    0.488263
    13  O   -0.460399
    14  O   -0.460346
    15  C   -0.298804
    16  C   -0.302147
    17  C   -0.474382
    18  H    0.142602
    19  H    0.154819
    20  H    0.143692
    21  H    0.155079
    22  H    0.158519
    23  H    0.153237
    24  H    0.162755
    25  C   -0.297555
    26  C   -0.299906
    27  C   -0.475860
    28  H    0.144113
    29  H    0.152197
    30  H    0.151227
    31  H    0.154506
    32  H    0.156241
    33  H    0.153952
    34  H    0.162153
 Sum of Mulliken charges =  -0.00000

 Dipole moment (field-independent basis, Debye):
    X=              2.7382    Y=              4.3642    Z=              0.6368  Tot=              5.1913
 Quadrupole moment (field-independent basis, Debye-Ang):
   XX=           -107.7382   YY=            -93.6655   ZZ=            -94.7173
   XY=            -16.2416   XZ=             -3.5167   YZ=             -0.6675

 Normal termination of Gaussian 16 at Wed May  5 19:03:45 2021.
