 Gaussian 16, Revision A.03,
 Gaussian 16:  EM64L-G16RevA.03 25-Dec-2016

 -------------
 #p 6-31g* mp2
 -------------

 ------------------------------------------------------
 Input file generated by CHIRIPA (05-May-2021 14:57:23)
 ------------------------------------------------------
 Symbolic Z-matrix:
 Charge =  0 Multiplicity = 1

                         Standard orientation:
 ---------------------------------------------------------------------
 Center     Atomic      Atomic             Coordinates (Angstroms)
 Number     Number       Type             X           Y           Z
 ---------------------------------------------------------------------
      1          6           0        1.421048   -1.501538    1.148069
      2          6           0        2.055786   -0.429933    1.784694
      3          6           0        3.131102    0.222515    1.174321
      4          6           0        3.547476   -0.224859   -0.078587
      5          6           0        2.935602   -1.289579   -0.738339
      6          6           0        1.862204   -1.927190   -0.109199
      7          1           0        0.586461   -2.002612    1.629510
      8          1           0        1.715320   -0.097212    2.761128
      9          1           0        3.640611    1.054716    1.644704
     10          1           0        3.297567   -1.598558   -1.711442
     11          1           0        1.371157   -2.759140   -0.605966
     12          7           0        4.684850    0.458005   -0.734695
     13          8           0        5.032618    0.044708   -1.838724
     14          8           0        5.207018    1.393600   -0.132500
     15          6           0       -5.298148   -1.147228   -0.666307
     16          6           0       -5.338445    0.220158   -0.958113
     17          6           0       -4.270286    1.052238   -0.609936
     18          6           0       -3.172652    0.480931    0.032012
     19          6           0       -3.102814   -0.877682    0.336284
     20          6           0       -4.182428   -1.690826   -0.021178
     21          1           0       -6.132368   -1.786254   -0.940385
     22          1           0       -6.203634    0.645070   -1.459054
     23          1           0       -4.275287    2.114130   -0.823897
     24          1           0       -2.226722   -1.272304    0.836437
     25          1           0       -4.148387   -2.752410    0.206695
     26          7           0       -2.035777    1.351795    0.405526
     27          8           0       -1.080266    0.824030    0.970417
     28          8           0       -2.121732    2.545652    0.126323
 ---------------------------------------------------------------------

 SCF Done:  E(RHF) =  -868.337385497     A.U. after   16 cycles
 E2 =    -0.2600656330D+01 EUMP2 =    -0.87093804182723D+03

 The electronic state is 1-A.
 Alpha  occ. eigenvalues --  -20.61410 -20.61383 -20.60035 -20.60018 -15.86440
 Alpha  occ. eigenvalues --  -15.85077 -11.31817 -11.30302 -11.28462 -11.28327
 Alpha  occ. eigenvalues --  -11.28084 -11.27420 -11.27337 -11.26921 -11.26785
 Alpha  occ. eigenvalues --  -11.26654 -11.25975 -11.25765  -1.60464  -1.59105
 Alpha  occ. eigenvalues --   -1.40024  -1.38664  -1.19978  -1.18460  -1.09363
 Alpha  occ. eigenvalues --   -1.07896  -1.05389  -1.03851  -0.96208  -0.94761
 Alpha  occ. eigenvalues --   -0.86783  -0.85275  -0.83046  -0.81603  -0.78106
 Alpha  occ. eigenvalues --   -0.76655  -0.72684  -0.71779  -0.71307  -0.71086
 Alpha  occ. eigenvalues --   -0.70421  -0.69646  -0.65635  -0.65389  -0.64139
 Alpha  occ. eigenvalues --   -0.63888  -0.62751  -0.61223  -0.55866  -0.54450
 Alpha  occ. eigenvalues --   -0.53704  -0.53476  -0.52148  -0.51978  -0.49438
 Alpha  occ. eigenvalues --   -0.49402  -0.48064  -0.48050  -0.45425  -0.44102
 Alpha  occ. eigenvalues --   -0.37938  -0.36990  -0.36378  -0.35398
 Alpha virt. eigenvalues --    0.04434   0.05881   0.10666   0.12239   0.15940
 Alpha virt. eigenvalues --    0.17313   0.19939   0.22036   0.25683   0.27191
 Alpha virt. eigenvalues --    0.28110   0.29050   0.30769   0.31215   0.33287

 Mulliken charges:
               1
     1  C   -0.158727
     2  C   -0.202007
     3  C   -0.170373
     4  C    0.158514
     5  C   -0.171881
     6  C   -0.220823
     7  H    0.215060
     8  H    0.225268
     9  H    0.274689
    10  H    0.271709
    11  H    0.215064
    12  N    0.488246
    13  O   -0.463962
    14  O   -0.460948
    15  C   -0.170323
    16  C   -0.218133
    17  C   -0.169921
    18  C    0.159035
    19  C   -0.170542
    20  C   -0.218614
    21  H    0.227497
    22  H    0.225940
    23  H    0.277867
    24  H    0.266997
    25  H    0.222624
    26  N    0.491608
    27  O   -0.467855
    28  O   -0.456010
 Sum of Mulliken charges =  -0.00000

 Dipole moment (field-independent basis, Debye):
    X=             -8.3054    Y=             -5.2118    Z=              1.0807  Tot=              9.8646
 Quadrupole moment (field-independent basis, Debye-Ang):
   XX=           -107.7584   YY=           -102.6615   ZZ=           -102.4231
   XY=             -1.4672   XZ=             14.8287   YZ=             -0.0222

 Normal termination of Gaussian 16 at Fri May  7 06:25:58 2021.
