 Gaussian 16, Revision A.03,
 Gaussian 16:  EM64L-G16RevA.03 25-Dec-2016

 -------------
 #p 6-31g* mp2
 -------------

 ------------------------------------------------------
 Input file generated by CHIRIPA (05-May-2021 14:55:20)
 ------------------------------------------------------
 Symbolic Z-matrix:
 Charge =  0 Multiplicity = 1

                         Standard orientation:
 ---------------------------------------------------------------------
 Center     Atomic      Atomic             Coordinates (Angstroms)
 Number     Number       Type             X           Y           Z
 ---------------------------------------------------------------------
      1          6           0        5.906090    0.758346   -1.027556
      2          6           0        5.246046    1.630055   -0.155211
      3          6           0        4.057680    1.242731    0.471139
      4          6           0        3.555291   -0.029273    0.201139
      5          6           0        4.189644   -0.920419   -0.663005
      6          6           0        5.376716   -0.511870   -1.278227
      7          1           0        6.828738    1.067473   -1.509797
      8          1           0        5.654849    2.617119    0.041337
      9          1           0        3.526169    1.897602    1.150887
     10          1           0        3.757727   -1.898081   -0.839197
     11          1           0        5.887162   -1.190945   -1.955239
     12          7           0        2.297906   -0.450551    0.858337
     13          8           0        1.875902   -1.576501    0.603803
     14          8           0        1.758181    0.353178    1.615538
     15          6           0       -5.402737    0.400831    0.067437
     16          6           0       -6.669021    0.114915   -0.740501
     17          6           0       -7.833978    1.027701   -0.356453
     18          1           0       -5.624038    0.284851    1.137259
     19          1           0       -5.111505    1.450104   -0.079547
     20          1           0       -6.956994   -0.933879   -0.593131
     21          1           0       -6.444631    0.231402   -1.808535
     22          1           0       -7.570919    2.077712   -0.520400
     23          1           0       -8.086193    0.905809    0.701909
     24          1           0       -8.728941    0.806102   -0.946193
     25          6           0       -4.229321   -0.503636   -0.305068
     26          6           0       -2.963038   -0.217720    0.502870
     27          6           0       -1.798080   -1.130506    0.118823
     28          1           0       -4.520553   -1.552910   -0.158083
     29          1           0       -4.008020   -0.387657   -1.374890
     30          1           0       -3.187427   -0.334207    1.570904
     31          1           0       -2.675064    0.831074    0.355501
     32          1           0       -1.545865   -1.008615   -0.939540
     33          1           0       -2.061139   -2.180517    0.282769
     34          1           0       -0.903116   -0.908908    0.708563
 ---------------------------------------------------------------------

 SCF Done:  E(RHF) =  -669.536669058     A.U. after   15 cycles
 E2 =    -0.2091319164D+01 EUMP2 =    -0.67162798822272D+03

 The electronic state is 1-A.
 Alpha  occ. eigenvalues --  -20.61035 -20.61026 -15.86026 -11.31332 -11.27886
 Alpha  occ. eigenvalues --  -11.27882 -11.27620 -11.26886 -11.26876 -11.20993
 Alpha  occ. eigenvalues --  -11.20612 -11.20571 -11.20400 -11.20274 -11.19242
 Alpha  occ. eigenvalues --   -1.60070  -1.39625  -1.19493  -1.08903  -1.07520
 Alpha  occ. eigenvalues --   -1.04883  -1.02512  -0.95749  -0.94934  -0.86285
 Alpha  occ. eigenvalues --   -0.85950  -0.82581  -0.78620  -0.77641  -0.77291
 Alpha  occ. eigenvalues --   -0.72233  -0.71377  -0.70601  -0.65146  -0.64887
 Alpha  occ. eigenvalues --   -0.64170  -0.62230  -0.59933  -0.58368  -0.56522
 Alpha  occ. eigenvalues --   -0.55388  -0.54260  -0.53219  -0.52974  -0.51607
 Alpha  occ. eigenvalues --   -0.51376  -0.49006  -0.48945  -0.48924  -0.46888
 Alpha  occ. eigenvalues --   -0.45702  -0.45045  -0.44824  -0.44754  -0.42692
 Alpha  occ. eigenvalues --   -0.37468  -0.36482
 Alpha virt. eigenvalues --    0.04868   0.11174   0.16375   0.21314   0.23689
 Alpha virt. eigenvalues --    0.25403   0.27233   0.27489   0.28193   0.28342
 Alpha virt. eigenvalues --    0.29137   0.30870   0.32339   0.32432   0.32588

 Mulliken charges:
               1
     1  C   -0.170459
     2  C   -0.218646
     3  C   -0.170750
     4  C    0.160194
     5  C   -0.170675
     6  C   -0.218641
     7  H    0.226128
     8  H    0.223943
     9  H    0.275938
    10  H    0.276210
    11  H    0.223999
    12  N    0.488011
    13  O   -0.457597
    14  O   -0.460502
    15  C   -0.297235
    16  C   -0.298801
    17  C   -0.475145
    18  H    0.148944
    19  H    0.147830
    20  H    0.151116
    21  H    0.150394
    22  H    0.154127
    23  H    0.154707
    24  H    0.158192
    25  C   -0.296942
    26  C   -0.298939
    27  C   -0.484142
    28  H    0.147680
    29  H    0.146348
    30  H    0.150728
    31  H    0.148898
    32  H    0.145082
    33  H    0.149830
    34  H    0.190178
 Sum of Mulliken charges =  -0.00000

 Dipole moment (field-independent basis, Debye):
    X=              4.8734    Y=              1.4622    Z=             -2.2250  Tot=              5.5533
 Quadrupole moment (field-independent basis, Debye-Ang):
   XX=            -65.8898   YY=            -91.0087   ZZ=            -94.8533
   XY=              5.7798   XZ=             -8.0501   YZ=              2.1140

 Normal termination of Gaussian 16 at Wed May  5 22:08:46 2021.
