 Gaussian 16, Revision A.03,
 Gaussian 16:  EM64L-G16RevA.03 25-Dec-2016

 -------------
 #p 6-31g* mp2
 -------------

 ------------------------------------------------------
 Input file generated by CHIRIPA (05-May-2021 14:53:15)
 ------------------------------------------------------
 Symbolic Z-matrix:
 Charge =  0 Multiplicity = 1

                         Standard orientation:
 ---------------------------------------------------------------------
 Center     Atomic      Atomic             Coordinates (Angstroms)
 Number     Number       Type             X           Y           Z
 ---------------------------------------------------------------------
      1          6           0       -3.452705    1.274317    0.282631
      2          6           0       -1.993328    1.674920    0.501081
      3          6           0       -1.840866    3.125157    0.960822
      4          1           0       -3.903142    1.945585   -0.461312
      5          1           0       -4.010659    1.424224    1.217302
      6          1           0       -1.437992    1.522993   -0.433337
      7          1           0       -1.546258    1.002499    1.244449
      8          1           0       -2.370025    3.287498    1.905405
      9          1           0       -2.261143    3.810950    0.218087
     10          1           0       -0.789669    3.390328    1.110918
     11          6           0       -3.621404   -0.172701   -0.177159
     12          6           0       -5.080781   -0.573304   -0.395609
     13          6           0       -5.233243   -2.023541   -0.855350
     14          1           0       -3.063450   -0.322608   -1.111830
     15          1           0       -3.170967   -0.843970    0.566783
     16          1           0       -5.527850    0.099117   -1.138977
     17          1           0       -5.636117   -0.421377    0.538808
     18          1           0       -4.812965   -2.709334   -0.112615
     19          1           0       -4.704084   -2.185882   -1.799933
     20          1           0       -6.284440   -2.288712   -1.005447
     21          6           0        0.946420   -2.018690    0.694914
     22          6           0        2.283477   -2.295479    0.998541
     23          6           0        3.298450   -1.422495    0.595703
     24          6           0        2.938975   -0.276760   -0.112364
     25          6           0        1.615988    0.026653   -0.430068
     26          6           0        0.617523   -0.860549   -0.017167
     27          1           0        0.164377   -2.702366    1.011757
     28          1           0        2.541842   -3.194152    1.551422
     29          1           0        4.341633   -1.612385    0.817355
     30          1           0        1.389415    0.930438   -0.982567
     31          1           0       -0.420005   -0.643034   -0.254372
     32          7           0        4.004744    0.654954   -0.544158
     33          8           0        3.661892    1.657642   -1.166819
     34          8           0        5.162764    0.364902   -0.251761
 ---------------------------------------------------------------------

 SCF Done:  E(RHF) =  -669.534555436     A.U. after   15 cycles
 E2 =    -0.2093001426D+01 EUMP2 =    -0.67162755686216D+03

 The electronic state is 1-A.
 Alpha  occ. eigenvalues --  -20.60693 -20.60688 -15.85743 -11.31083 -11.27637
 Alpha  occ. eigenvalues --  -11.27610 -11.27351 -11.26665 -11.26511 -11.22543
 Alpha  occ. eigenvalues --  -11.22483 -11.22404 -11.22238 -11.21823 -11.21656
 Alpha  occ. eigenvalues --   -1.59769  -1.39323  -1.19238  -1.09365  -1.08638
 Alpha  occ. eigenvalues --   -1.04650  -1.04333  -0.96773  -0.95483  -0.87788
 Alpha  occ. eigenvalues --   -0.86039  -0.82341  -0.80454  -0.79272  -0.77325
 Alpha  occ. eigenvalues --   -0.71962  -0.71091  -0.70353  -0.65979  -0.64885
 Alpha  occ. eigenvalues --   -0.64639  -0.62038  -0.61720  -0.60114  -0.58409
 Alpha  occ. eigenvalues --   -0.56050  -0.55142  -0.53474  -0.53207  -0.52965
 Alpha  occ. eigenvalues --   -0.52703  -0.50707  -0.48771  -0.48720  -0.48675
 Alpha  occ. eigenvalues --   -0.47479  -0.46672  -0.46636  -0.44735  -0.44623
 Alpha  occ. eigenvalues --   -0.37221  -0.36205
 Alpha virt. eigenvalues --    0.05147   0.11355   0.16612   0.20064   0.22535
 Alpha virt. eigenvalues --    0.23298   0.24759   0.25268   0.26614   0.28375
 Alpha virt. eigenvalues --    0.29361   0.30758   0.30940   0.31327   0.32056

 Mulliken charges:
               1
     1  C   -0.296835
     2  C   -0.307626
     3  C   -0.476099
     4  H    0.153834
     5  H    0.153297
     6  H    0.144451
     7  H    0.154269
     8  H    0.157635
     9  H    0.158257
    10  H    0.165769
    11  C   -0.303624
    12  C   -0.299559
    13  C   -0.476479
    14  H    0.147115
    15  H    0.144149
    16  H    0.155621
    17  H    0.154726
    18  H    0.153194
    19  H    0.155852
    20  H    0.163872
    21  C   -0.174899
    22  C   -0.218163
    23  C   -0.171778
    24  C    0.159101
    25  C   -0.175734
    26  C   -0.222915
    27  H    0.225005
    28  H    0.222736
    29  H    0.275015
    30  H    0.275110
    31  H    0.238194
    32  N    0.488188
    33  O   -0.460879
    34  O   -0.460799
 Sum of Mulliken charges =  -0.00000

 Dipole moment (field-independent basis, Debye):
    X=             -4.0239    Y=             -3.1469    Z=              1.5622  Tot=              5.3419
 Quadrupole moment (field-independent basis, Debye-Ang):
   XX=           -114.0304   YY=            -92.2141   ZZ=            -94.0446
   XY=            -11.4683   XZ=              6.4436   YZ=             -1.9960

 Normal termination of Gaussian 16 at Thu May  6 09:00:23 2021.
