 Gaussian 16, Revision A.03,
 Gaussian 16:  EM64L-G16RevA.03 25-Dec-2016

 -------------
 #p 6-31g* mp2
 -------------

 ------------------------------------------------------
 Input file generated by CHIRIPA (05-May-2021 14:53:11)
 ------------------------------------------------------
 Symbolic Z-matrix:
 Charge =  0 Multiplicity = 1

                         Standard orientation:
 ---------------------------------------------------------------------
 Center     Atomic      Atomic             Coordinates (Angstroms)
 Number     Number       Type             X           Y           Z
 ---------------------------------------------------------------------
      1          6           0        3.817022    0.164875   -0.018231
      2          6           0        5.342285    0.270022    0.004134
      3          6           0        5.839190    1.701657   -0.199091
      4          1           0        3.443172    0.551783   -0.976084
      5          1           0        3.400224    0.813289    0.764861
      6          1           0        5.756141   -0.379458   -0.777860
      7          1           0        5.712561   -0.117359    0.961969
      8          1           0        5.453999    2.358455    0.587577
      9          1           0        5.497826    2.094866   -1.162137
     10          1           0        6.932241    1.753807   -0.179568
     11          6           0        3.304987   -1.260188    0.183624
     12          6           0        1.779723   -1.365335    0.161259
     13          6           0        1.282818   -2.796971    0.364484
     14          1           0        3.721784   -1.908602   -0.599468
     15          1           0        3.678837   -1.647096    1.141478
     16          1           0        1.409447   -0.977954   -0.796576
     17          1           0        1.365868   -0.715855    0.943253
     18          1           0        1.624182   -3.190179    1.327530
     19          1           0        1.668010   -3.453768   -0.422184
     20          1           0        0.189768   -2.849120    0.344961
     21          6           0       -1.735518    2.719225    0.078065
     22          6           0       -3.096794    2.553017    0.353430
     23          6           0       -3.687265    1.288056    0.277498
     24          6           0       -2.883208    0.206336   -0.078400
     25          6           0       -1.524179    0.339739   -0.358639
     26          6           0       -0.954932    1.614004   -0.276465
     27          1           0       -1.285070    3.705492    0.139475
     28          1           0       -3.705443    3.409548    0.629010
     29          1           0       -4.738685    1.130975    0.485483
     30          1           0       -0.943115   -0.533038   -0.630747
     31          1           0        0.102508    1.740107   -0.490862
     32          7           0       -3.497078   -1.137747   -0.162089
     33          8           0       -2.767032   -2.074750   -0.477833
     34          8           0       -4.696653   -1.228786    0.089645
 ---------------------------------------------------------------------

 SCF Done:  E(RHF) =  -669.535710073     A.U. after   15 cycles
 E2 =    -0.2092749765D+01 EUMP2 =    -0.67162845983766D+03

 The electronic state is 1-A.
 Alpha  occ. eigenvalues --  -20.60804 -20.60797 -15.85839 -11.31120 -11.27709
 Alpha  occ. eigenvalues --  -11.27622 -11.27439 -11.26714 -11.26661 -11.22170
 Alpha  occ. eigenvalues --  -11.22070 -11.21976 -11.21826 -11.21532 -11.21053
 Alpha  occ. eigenvalues --   -1.59866  -1.39423  -1.19299  -1.08931  -1.08712
 Alpha  occ. eigenvalues --   -1.04698  -1.03947  -0.96350  -0.95554  -0.87347
 Alpha  occ. eigenvalues --   -0.86094  -0.82401  -0.80055  -0.78819  -0.77418
 Alpha  occ. eigenvalues --   -0.72062  -0.71181  -0.70418  -0.65557  -0.64952
 Alpha  occ. eigenvalues --   -0.64700  -0.62120  -0.61331  -0.59671  -0.57964
 Alpha  occ. eigenvalues --   -0.55624  -0.55194  -0.53038  -0.52982  -0.52850
 Alpha  occ. eigenvalues --   -0.52665  -0.50276  -0.48850  -0.48809  -0.48297
 Alpha  occ. eigenvalues --   -0.47086  -0.46299  -0.46233  -0.44845  -0.44176
 Alpha  occ. eigenvalues --   -0.37290  -0.36275
 Alpha virt. eigenvalues --    0.05038   0.11337   0.16509   0.20257   0.22634
 Alpha virt. eigenvalues --    0.23813   0.25087   0.25949   0.26512   0.28466
 Alpha virt. eigenvalues --    0.29405   0.31017   0.31088   0.31645   0.32555

 Mulliken charges:
               1
     1  C   -0.299728
     2  C   -0.299766
     3  C   -0.476096
     4  H    0.145641
     5  H    0.146801
     6  H    0.154150
     7  H    0.154054
     8  H    0.154103
     9  H    0.154299
    10  H    0.162464
    11  C   -0.296406
    12  C   -0.309665
    13  C   -0.485506
    14  H    0.152771
    15  H    0.153036
    16  H    0.141781
    17  H    0.152542
    18  H    0.156738
    19  H    0.157575
    20  H    0.180022
    21  C   -0.170740
    22  C   -0.219042
    23  C   -0.170462
    24  C    0.158487
    25  C   -0.177807
    26  C   -0.223826
    27  H    0.225436
    28  H    0.223137
    29  H    0.275205
    30  H    0.288271
    31  H    0.226272
    32  N    0.488826
    33  O   -0.462884
    34  O   -0.459682
 Sum of Mulliken charges =  -0.00000

 Dipole moment (field-independent basis, Debye):
    X=              2.2411    Y=              4.5850    Z=              0.3454  Tot=              5.1151
 Quadrupole moment (field-independent basis, Debye-Ang):
   XX=           -103.2679   YY=            -93.0610   ZZ=            -94.3222
   XY=            -15.9598   XZ=             -2.2401   YZ=              0.4989

 Normal termination of Gaussian 16 at Wed May  5 21:42:18 2021.
