 Gaussian 16, Revision A.03,
 Gaussian 16:  EM64L-G16RevA.03 25-Dec-2016

 -------------
 #p 6-31g* mp2
 -------------

 ------------------------------------------------------
 Input file generated by CHIRIPA (05-May-2021 14:51:11)
 ------------------------------------------------------
 Symbolic Z-matrix:
 Charge =  0 Multiplicity = 1

                         Standard orientation:
 ---------------------------------------------------------------------
 Center     Atomic      Atomic             Coordinates (Angstroms)
 Number     Number       Type             X           Y           Z
 ---------------------------------------------------------------------
      1          6           0       -2.911993   -1.010367    0.572784
      2          6           0       -1.548685   -1.476108    0.060472
      3          6           0       -0.731361   -2.201067    1.130149
      4          1           0       -2.765090   -0.347120    1.436188
      5          1           0       -3.474964   -1.880073    0.938941
      6          1           0       -0.988995   -0.605966   -0.305884
      7          1           0       -1.698843   -2.138171   -0.801932
      8          1           0       -1.266111   -3.086234    1.489486
      9          1           0       -0.552230   -1.545323    1.988352
     10          1           0        0.239430   -2.525313    0.742478
     11          6           0       -3.740807   -0.283912   -0.485071
     12          6           0       -5.104114    0.181829    0.027240
     13          6           0       -5.921438    0.906788   -1.042437
     14          1           0       -3.177835    0.585793   -0.851228
     15          1           0       -3.887709   -0.947160   -1.348476
     16          1           0       -4.953956    0.843892    0.889644
     17          1           0       -5.663804   -0.688313    0.393597
     18          1           0       -6.100569    0.251044   -1.900640
     19          1           0       -5.386688    1.791955   -1.401774
     20          1           0       -6.892230    1.231034   -0.654766
     21          6           0        3.654069    0.132003   -0.502876
     22          6           0        5.037955   -0.310995   -0.026853
     23          6           0        5.680611   -1.341705   -0.955521
     24          1           0        3.001777   -0.748339   -0.583233
     25          1           0        3.739012    0.551506   -1.514902
     26          1           0        4.950643   -0.728269    0.984519
     27          1           0        5.686974    0.570529    0.052563
     28          1           0        5.796764   -0.932012   -1.964115
     29          1           0        5.056251   -2.238190   -1.026864
     30          1           0        6.669162   -1.644453   -0.596395
     31          6           0        2.998730    1.162276    0.415163
     32          6           0        1.614844    1.605274   -0.060859
     33          6           0        0.972188    2.635984    0.867808
     34          1           0        2.913787    0.742773    1.427189
     35          1           0        3.651023    2.042619    0.495520
     36          1           0        0.965826    0.723751   -0.140275
     37          1           0        1.702156    2.022548   -1.072231
     38          1           0        1.596549    3.532470    0.939152
     39          1           0        0.856036    2.226292    1.876403
     40          1           0       -0.016362    2.938733    0.508682
 ---------------------------------------------------------------------

 SCF Done:  E(RHF) =  -470.733381575     A.U. after   11 cycles
 E2 =    -0.1582995979D+01 EUMP2 =    -0.47231637755469D+03

 The electronic state is 1-A.
 Alpha  occ. eigenvalues --  -11.21623 -11.21608 -11.21608 -11.21602 -11.21420
 Alpha  occ. eigenvalues --  -11.21412 -11.21360 -11.21353 -11.21141 -11.21119
 Alpha  occ. eigenvalues --  -11.21076 -11.21072  -1.08461  -1.08429  -1.03578
 Alpha  occ. eigenvalues --   -1.03525  -0.96009  -0.95994  -0.87023  -0.87010
 Alpha  occ. eigenvalues --   -0.79680  -0.79555  -0.78308  -0.78206  -0.65199
 Alpha  occ. eigenvalues --   -0.64971  -0.61139  -0.60774  -0.59407  -0.59329
 Alpha  occ. eigenvalues --   -0.57629  -0.57594  -0.55321  -0.55255  -0.52709
 Alpha  occ. eigenvalues --   -0.52686  -0.52437  -0.52414  -0.49982  -0.49912
 Alpha  occ. eigenvalues --   -0.48068  -0.47840  -0.46891  -0.46461  -0.45931
 Alpha  occ. eigenvalues --   -0.45778  -0.45752  -0.45437  -0.43808  -0.43796
 Alpha virt. eigenvalues --    0.20384   0.23041   0.23838   0.24825   0.25995
 Alpha virt. eigenvalues --    0.26694   0.26846   0.27460   0.28470   0.29061
 Alpha virt. eigenvalues --    0.30278   0.31412   0.31762   0.31881   0.32058

 Mulliken charges:
               1
     1  C   -0.297765
     2  C   -0.307644
     3  C   -0.475984
     4  H    0.149903
     5  H    0.149538
     6  H    0.158842
     7  H    0.152338
     8  H    0.155812
     9  H    0.155091
    10  H    0.159636
    11  C   -0.298396
    12  C   -0.299726
    13  C   -0.475717
    14  H    0.149601
    15  H    0.149720
    16  H    0.152071
    17  H    0.151935
    18  H    0.155191
    19  H    0.155196
    20  H    0.160302
    21  C   -0.298692
    22  C   -0.299729
    23  C   -0.475699
    24  H    0.149759
    25  H    0.149560
    26  H    0.152117
    27  H    0.151956
    28  H    0.155179
    29  H    0.155141
    30  H    0.160297
    31  C   -0.297397
    32  C   -0.309260
    33  C   -0.475378
    34  H    0.149758
    35  H    0.149601
    36  H    0.160907
    37  H    0.151926
    38  H    0.155654
    39  H    0.154931
    40  H    0.159423
 Sum of Mulliken charges =  -0.00000

 Dipole moment (field-independent basis, Debye):
    X=             -0.0051    Y=             -0.0039    Z=             -0.0008  Tot=              0.0065
 Quadrupole moment (field-independent basis, Debye-Ang):
   XX=            -85.2643   YY=            -84.2810   ZZ=            -85.1834
   XY=              1.5504   XZ=             -0.2420   YZ=             -0.2245

 Normal termination of Gaussian 16 at Wed May  5 16:46:20 2021.
