 Gaussian 16, Revision A.03,
 Gaussian 16:  EM64L-G16RevA.03 25-Dec-2016

 -------------
 #p 6-31g* mp2
 -------------

 ------------------------------------------------------
 Input file generated by CHIRIPA (05-May-2021 14:57:24)
 ------------------------------------------------------
 Symbolic Z-matrix:
 Charge =  0 Multiplicity = 1

                         Standard orientation:
 ---------------------------------------------------------------------
 Center     Atomic      Atomic             Coordinates (Angstroms)
 Number     Number       Type             X           Y           Z
 ---------------------------------------------------------------------
      1          6           0        3.456415   -2.343231   -0.193854
      2          6           0        2.636432   -1.677415   -1.110827
      3          6           0        2.507763   -0.285942   -1.068470
      4          6           0        3.216638    0.411460   -0.091528
      5          6           0        4.041459   -0.223186    0.835934
      6          6           0        4.155080   -1.615275    0.774891
      7          1           0        3.550523   -3.424400   -0.234016
      8          1           0        2.092658   -2.240177   -1.864255
      9          1           0        1.879888    0.254855   -1.766130
     10          1           0        4.571066    0.364973    1.575531
     11          1           0        4.792615   -2.129700    1.488306
     12          7           0        3.088388    1.884877   -0.036796
     13          8           0        3.723422    2.476350    0.833565
     14          8           0        2.355260    2.420368   -0.865294
     15          6           0       -0.809057   -0.834827    0.253599
     16          6           0       -1.390232   -0.589284   -0.994787
     17          6           0       -2.735030   -0.219550   -1.091540
     18          6           0       -3.472575   -0.104218    0.085752
     19          6           0       -2.922160   -0.342176    1.344207
     20          6           0       -1.575525   -0.710707    1.417060
     21          1           0        0.236328   -1.121578    0.319476
     22          1           0       -0.797396   -0.684906   -1.900021
     23          1           0       -3.210211   -0.023563   -2.045065
     24          1           0       -3.538568   -0.238736    2.228944
     25          1           0       -1.126825   -0.900780    2.387929
     26          7           0       -4.897225    0.286568   -0.004025
     27          8           0       -5.525524    0.381320    1.048067
     28          8           0       -5.358591    0.490712   -1.124786
 ---------------------------------------------------------------------

 SCF Done:  E(RHF) =  -868.335899136     A.U. after   16 cycles
 E2 =    -0.2602551102D+01 EUMP2 =    -0.87093845023747D+03

 The electronic state is 1-A.
 Alpha  occ. eigenvalues --  -20.61655 -20.61648 -20.60708 -20.60703 -15.86720
 Alpha  occ. eigenvalues --  -15.85767 -11.32368 -11.31153 -11.29007 -11.28918
 Alpha  occ. eigenvalues --  -11.28716 -11.28048 -11.27944 -11.27789 -11.27739
 Alpha  occ. eigenvalues --  -11.27366 -11.26852 -11.26716  -1.60726  -1.59783
 Alpha  occ. eigenvalues --   -1.40271  -1.39336  -1.20595  -1.19342  -1.09896
 Alpha  occ. eigenvalues --   -1.08732  -1.06037  -1.04770  -0.96687  -0.95555
 Alpha  occ. eigenvalues --   -0.87372  -0.86179  -0.83515  -0.82404  -0.78525
 Alpha  occ. eigenvalues --   -0.77450  -0.72926  -0.72071  -0.71986  -0.71625
 Alpha  occ. eigenvalues --   -0.71106  -0.70468  -0.66206  -0.65974  -0.65007
 Alpha  occ. eigenvalues --   -0.64846  -0.63321  -0.62123  -0.56436  -0.55705
 Alpha  occ. eigenvalues --   -0.54074  -0.53893  -0.53061  -0.52882  -0.49707
 Alpha  occ. eigenvalues --   -0.49668  -0.48747  -0.48736  -0.45612  -0.44737
 Alpha  occ. eigenvalues --   -0.38591  -0.37670  -0.37219  -0.36373
 Alpha virt. eigenvalues --    0.03986   0.05100   0.09920   0.11279   0.15364
 Alpha virt. eigenvalues --    0.16605   0.19164   0.21945   0.24717   0.26980
 Alpha virt. eigenvalues --    0.28329   0.29341   0.29868   0.30823   0.32028

 Mulliken charges:
               1
     1  C   -0.170776
     2  C   -0.228804
     3  C   -0.183109
     4  C    0.162561
     5  C   -0.170480
     6  C   -0.219117
     7  H    0.230571
     8  H    0.225899
     9  H    0.277396
    10  H    0.279909
    11  H    0.228255
    12  N    0.488292
    13  O   -0.456929
    14  O   -0.456969
    15  C   -0.175209
    16  C   -0.221412
    17  C   -0.168621
    18  C    0.158087
    19  C   -0.169179
    20  C   -0.220089
    21  H    0.235447
    22  H    0.211949
    23  H    0.275800
    24  H    0.275873
    25  H    0.223082
    26  N    0.488194
    27  O   -0.460200
    28  O   -0.460424
 Sum of Mulliken charges =  -0.00000

 Dipole moment (field-independent basis, Debye):
    X=              5.7700    Y=             -6.4793    Z=              0.2491  Tot=              8.6796
 Quadrupole moment (field-independent basis, Debye-Ang):
   XX=           -134.6614   YY=           -109.9633   ZZ=            -97.0197
   XY=            -12.4649   XZ=              1.2525   YZ=             -0.0110

 Normal termination of Gaussian 16 at Wed May  5 17:55:03 2021.
