 Gaussian 16, Revision A.03,
 Gaussian 16:  EM64L-G16RevA.03 25-Dec-2016

 -------------
 #p 6-31g* mp2
 -------------

 ------------------------------------------------------
 Input file generated by CHIRIPA (05-May-2021 14:53:16)
 ------------------------------------------------------
 Symbolic Z-matrix:
 Charge =  0 Multiplicity = 1

                         Standard orientation:
 ---------------------------------------------------------------------
 Center     Atomic      Atomic             Coordinates (Angstroms)
 Number     Number       Type             X           Y           Z
 ---------------------------------------------------------------------
      1          6           0        3.761868   -0.470076    0.102846
      2          6           0        4.876287   -0.770529   -0.900041
      3          6           0        5.225317   -2.257592   -0.967987
      4          1           0        4.067686   -0.822213    1.097543
      5          1           0        2.866768   -1.045610   -0.170926
      6          1           0        5.768584   -0.193539   -0.625259
      7          1           0        4.567861   -0.417464   -1.892430
      8          1           0        4.350597   -2.845449   -1.264448
      9          1           0        5.558142   -2.620252    0.009922
     10          1           0        6.024177   -2.449839   -1.690984
     11          6           0        3.401707    1.012396    0.182150
     12          6           0        2.287288    1.312848    1.185038
     13          6           0        1.938259    2.799911    1.252983
     14          1           0        4.296808    1.587930    0.455923
     15          1           0        3.095890    1.364532   -0.812546
     16          1           0        2.595715    0.959783    2.177426
     17          1           0        1.394992    0.735858    0.910255
     18          1           0        1.605433    3.162571    0.275074
     19          1           0        2.812979    3.387768    1.549445
     20          1           0        1.139399    2.992158    1.975980
     21          6           0       -2.646430    2.122575   -1.056503
     22          6           0       -1.505195    1.501543   -0.538406
     23          6           0       -1.577603    0.208340   -0.012162
     24          6           0       -2.812952   -0.437526   -0.019951
     25          6           0       -3.967777    0.154560   -0.528970
     26          6           0       -3.871917    1.448290   -1.050144
     27          1           0       -2.581072    3.127370   -1.463332
     28          1           0       -0.552136    2.022802   -0.542038
     29          1           0       -0.709792   -0.295969    0.395262
     30          1           0       -4.903834   -0.390338   -0.511584
     31          1           0       -4.759859    1.928126   -1.451842
     32          7           0       -2.902019   -1.806861    0.534476
     33          8           0       -4.002182   -2.354528    0.515992
     34          8           0       -1.869983   -2.306551    0.977022
 ---------------------------------------------------------------------

 SCF Done:  E(RHF) =  -669.535060599     A.U. after   15 cycles
 E2 =    -0.2092310705D+01 EUMP2 =    -0.67162737130374D+03

 The electronic state is 1-A.
 Alpha  occ. eigenvalues --  -20.60744 -20.60738 -15.85794 -11.31148 -11.27717
 Alpha  occ. eigenvalues --  -11.27697 -11.27452 -11.26735 -11.26685 -11.22455
 Alpha  occ. eigenvalues --  -11.22021 -11.21985 -11.21845 -11.21714 -11.21162
 Alpha  occ. eigenvalues --   -1.59818  -1.39372  -1.19318  -1.08959  -1.08715
 Alpha  occ. eigenvalues --   -1.04729  -1.04057  -0.96497  -0.95554  -0.87515
 Alpha  occ. eigenvalues --   -0.86118  -0.82391  -0.80153  -0.78708  -0.77440
 Alpha  occ. eigenvalues --   -0.72014  -0.71140  -0.70443  -0.65654  -0.64964
 Alpha  occ. eigenvalues --   -0.64730  -0.62272  -0.61268  -0.59878  -0.58080
 Alpha  occ. eigenvalues --   -0.55818  -0.55200  -0.53201  -0.53048  -0.52897
 Alpha  occ. eigenvalues --   -0.52826  -0.50437  -0.48774  -0.48769  -0.48433
 Alpha  occ. eigenvalues --   -0.47201  -0.46246  -0.46149  -0.44779  -0.44286
 Alpha  occ. eigenvalues --   -0.37300  -0.36320
 Alpha virt. eigenvalues --    0.05092   0.11324   0.16570   0.18891   0.23015
 Alpha virt. eigenvalues --    0.23673   0.24429   0.25984   0.27292   0.28538
 Alpha virt. eigenvalues --    0.29402   0.30283   0.31220   0.31462   0.32421

 Mulliken charges:
               1
     1  C   -0.299441
     2  C   -0.300069
     3  C   -0.476374
     4  H    0.152969
     5  H    0.151286
     6  H    0.152040
     7  H    0.151261
     8  H    0.158008
     9  H    0.156633
    10  H    0.160748
    11  C   -0.297987
    12  C   -0.306695
    13  C   -0.479490
    14  H    0.152400
    15  H    0.146513
    16  H    0.160351
    17  H    0.146315
    18  H    0.146396
    19  H    0.161941
    20  H    0.164191
    21  C   -0.172187
    22  C   -0.224403
    23  C   -0.181484
    24  C    0.161360
    25  C   -0.170914
    26  C   -0.218611
    27  H    0.225744
    28  H    0.232206
    29  H    0.281455
    30  H    0.275403
    31  H    0.223295
    32  N    0.488350
    33  O   -0.460566
    34  O   -0.460642
 Sum of Mulliken charges =  -0.00000

 Dipole moment (field-independent basis, Debye):
    X=              0.5082    Y=              4.7918    Z=             -1.8729  Tot=              5.1699
 Quadrupole moment (field-independent basis, Debye-Ang):
   XX=            -90.6694   YY=           -100.6170   ZZ=            -94.5731
   XY=            -13.3478   XZ=              7.6268   YZ=              0.8341

 Normal termination of Gaussian 16 at Wed May  5 18:43:41 2021.
