 Gaussian 16, Revision A.03,
 Gaussian 16:  EM64L-G16RevA.03 25-Dec-2016

 -------------
 #p 6-31g* mp2
 -------------

 ------------------------------------------------------
 Input file generated by CHIRIPA (05-May-2021 14:55:23)
 ------------------------------------------------------
 Symbolic Z-matrix:
 Charge =  0 Multiplicity = 1

                         Standard orientation:
 ---------------------------------------------------------------------
 Center     Atomic      Atomic             Coordinates (Angstroms)
 Number     Number       Type             X           Y           Z
 ---------------------------------------------------------------------
      1          6           0       -1.321563   -1.215057    2.326894
      2          6           0       -0.754865   -1.707167    1.146554
      3          6           0       -1.163575   -1.214664   -0.096404
      4          6           0       -2.145708   -0.225706   -0.122240
      5          6           0       -2.729320    0.284845    1.036217
      6          6           0       -2.305248   -0.222371    2.268062
      7          1           0       -0.998100   -1.603360    3.288137
      8          1           0        0.009268   -2.478092    1.189212
      9          1           0       -0.741619   -1.577772   -1.025664
     10          1           0       -3.489035    1.053419    0.961748
     11          1           0       -2.747110    0.161681    3.183107
     12          7           0       -2.586523    0.303473   -1.432222
     13          8           0       -3.453481    1.174681   -1.428013
     14          8           0       -2.056728   -0.162984   -2.438389
     15          6           0        2.360222    1.079893   -0.309338
     16          6           0        2.579504    2.153672    0.756917
     17          6           0        1.987130    3.507197    0.363398
     18          1           0        2.805837    1.415567   -1.255749
     19          1           0        1.282434    0.970060   -0.492932
     20          1           0        3.656488    2.260469    0.939442
     21          1           0        2.133482    1.815319    1.700950
     22          1           0        0.907779    3.422697    0.200728
     23          1           0        2.439438    3.870376   -0.565106
     24          1           0        2.155296    4.260034    1.139810
     25          6           0        2.946802   -0.278814    0.069567
     26          6           0        2.727520   -1.352593   -0.996687
     27          6           0        3.319895   -2.706118   -0.603168
     28          1           0        4.024590   -0.168982    0.253161
     29          1           0        2.501187   -0.614488    1.015978
     30          1           0        3.173542   -1.014240   -1.940720
     31          1           0        1.650536   -1.459390   -1.179213
     32          1           0        2.867586   -3.069297    0.325335
     33          1           0        4.399246   -2.621618   -0.440499
     34          1           0        3.151728   -3.458956   -1.379581
 ---------------------------------------------------------------------

 SCF Done:  E(RHF) =  -669.535171592     A.U. after   15 cycles
 E2 =    -0.2093826823D+01 EUMP2 =    -0.67162899841537D+03

 The electronic state is 1-A.
 Alpha  occ. eigenvalues --  -20.60840 -20.60835 -15.85895 -11.31298 -11.27862
 Alpha  occ. eigenvalues --  -11.27858 -11.27606 -11.26885 -11.26872 -11.22079
 Alpha  occ. eigenvalues --  -11.21725 -11.21709 -11.21688 -11.21463 -11.21071
 Alpha  occ. eigenvalues --   -1.59915  -1.39467  -1.19475  -1.08858  -1.08699
 Alpha  occ. eigenvalues --   -1.04882  -1.03824  -0.96261  -0.95687  -0.87277
 Alpha  occ. eigenvalues --   -0.86273  -0.82518  -0.79900  -0.78482  -0.77561
 Alpha  occ. eigenvalues --   -0.72110  -0.71242  -0.70582  -0.65404  -0.65098
 Alpha  occ. eigenvalues --   -0.64874  -0.62290  -0.61154  -0.59641  -0.57861
 Alpha  occ. eigenvalues --   -0.55577  -0.55363  -0.53195  -0.53014  -0.52928
 Alpha  occ. eigenvalues --   -0.52670  -0.50211  -0.48873  -0.48866  -0.48200
 Alpha  occ. eigenvalues --   -0.46942  -0.46019  -0.45933  -0.44858  -0.44050
 Alpha  occ. eigenvalues --   -0.37439  -0.36438
 Alpha virt. eigenvalues --    0.04942   0.11058   0.16341   0.19407   0.23000
 Alpha virt. eigenvalues --    0.23752   0.25434   0.25944   0.27473   0.28390
 Alpha virt. eigenvalues --    0.28829   0.29849   0.31359   0.31528   0.32441

 Mulliken charges:
               1
     1  C   -0.171866
     2  C   -0.219083
     3  C   -0.174574
     4  C    0.158805
     5  C   -0.171090
     6  C   -0.218176
     7  H    0.226346
     8  H    0.226906
     9  H    0.279184
    10  H    0.276101
    11  H    0.224045
    12  N    0.487911
    13  O   -0.460082
    14  O   -0.459822
    15  C   -0.299995
    16  C   -0.299569
    17  C   -0.475970
    18  H    0.152538
    19  H    0.152842
    20  H    0.151188
    21  H    0.149317
    22  H    0.157353
    23  H    0.157297
    24  H    0.159206
    25  C   -0.297674
    26  C   -0.303619
    27  C   -0.476451
    28  H    0.150605
    29  H    0.144362
    30  H    0.158640
    31  H    0.146945
    32  H    0.146266
    33  H    0.159278
    34  H    0.162834
 Sum of Mulliken charges =  -0.00000

 Dipole moment (field-independent basis, Debye):
    X=              1.5408    Y=             -1.7929    Z=              4.5526  Tot=              5.1298
 Quadrupole moment (field-independent basis, Debye-Ang):
   XX=            -98.9516   YY=            -93.5949   ZZ=            -95.0211
   XY=              2.0811   XZ=            -12.6962   YZ=              0.7786

 Normal termination of Gaussian 16 at Wed May  5 16:03:59 2021.
