 Gaussian 16, Revision A.03,
 Gaussian 16:  EM64L-G16RevA.03 25-Dec-2016

 -------------
 #p 6-31g* mp2
 -------------

 ------------------------------------------------------
 Input file generated by CHIRIPA (05-May-2021 14:55:23)
 ------------------------------------------------------
 Symbolic Z-matrix:
 Charge =  0 Multiplicity = 1

                         Standard orientation:
 ---------------------------------------------------------------------
 Center     Atomic      Atomic             Coordinates (Angstroms)
 Number     Number       Type             X           Y           Z
 ---------------------------------------------------------------------
      1          6           0       -1.275016    2.404226   -0.055276
      2          6           0       -0.853572    1.163129   -0.543726
      3          6           0       -1.727791    0.072238   -0.559421
      4          6           0       -3.022255    0.258771   -0.076867
      5          6           0       -3.471831    1.482751    0.416128
      6          6           0       -2.580499    2.559802    0.422250
      7          1           0       -0.589255    3.246280   -0.046801
      8          1           0        0.159708    1.039391   -0.915206
      9          1           0       -1.427712   -0.899656   -0.931969
     10          1           0       -4.487982    1.575373    0.779827
     11          1           0       -2.910544    3.522493    0.802174
     12          7           0       -3.956811   -0.888780   -0.088416
     13          8           0       -5.092117   -0.698504    0.342296
     14          8           0       -3.536313   -1.956778   -0.527960
     15          6           0        2.927810   -0.691336   -0.033177
     16          6           0        2.429768   -2.041995    0.482245
     17          6           0        0.940427   -2.263451    0.216507
     18          1           0        2.346112    0.111621    0.439933
     19          1           0        2.733025   -0.624157   -1.112502
     20          1           0        2.626687   -2.107167    1.560015
     21          1           0        3.012847   -2.841823    0.007997
     22          1           0        0.730848   -2.225141   -0.857370
     23          1           0        0.342494   -1.486312    0.703468
     24          1           0        0.605550   -3.235004    0.593074
     25          6           0        4.414858   -0.455291    0.225084
     26          6           0        4.912899    0.895368   -0.290338
     27          6           0        6.402240    1.116824   -0.024600
     28          1           0        4.609642   -0.522470    1.304408
     29          1           0        4.996555   -1.258248   -0.248026
     30          1           0        4.329820    1.695196    0.183910
     31          1           0        4.715980    0.960541   -1.368110
     32          1           0        7.000174    0.339685   -0.511561
     33          1           0        6.611819    1.078514    1.049276
     34          1           0        6.737117    2.088378   -0.401168
 ---------------------------------------------------------------------

 SCF Done:  E(RHF) =  -669.534543917     A.U. after   15 cycles
 E2 =    -0.2093061166D+01 EUMP2 =    -0.67162760508293D+03

 The electronic state is 1-A.
 Alpha  occ. eigenvalues --  -20.60689 -20.60683 -15.85741 -11.31084 -11.27684
 Alpha  occ. eigenvalues --  -11.27587 -11.27423 -11.26693 -11.26625 -11.22249
 Alpha  occ. eigenvalues --  -11.22206 -11.22138 -11.21999 -11.21586 -11.21581
 Alpha  occ. eigenvalues --   -1.59765  -1.39318  -1.19276  -1.09095  -1.08671
 Alpha  occ. eigenvalues --   -1.04691  -1.04116  -0.96593  -0.95505  -0.87619
 Alpha  occ. eigenvalues --   -0.86060  -0.82349  -0.80219  -0.78965  -0.77355
 Alpha  occ. eigenvalues --   -0.71961  -0.71089  -0.70389  -0.65719  -0.64925
 Alpha  occ. eigenvalues --   -0.64677  -0.62063  -0.61513  -0.59922  -0.58197
 Alpha  occ. eigenvalues --   -0.55887  -0.55188  -0.53357  -0.53206  -0.52965
 Alpha  occ. eigenvalues --   -0.52464  -0.50526  -0.48732  -0.48716  -0.48476
 Alpha  occ. eigenvalues --   -0.47233  -0.46453  -0.46394  -0.44725  -0.44387
 Alpha  occ. eigenvalues --   -0.37269  -0.36219
 Alpha virt. eigenvalues --    0.05117   0.11296   0.16515   0.20563   0.22474
 Alpha virt. eigenvalues --    0.23812   0.25509   0.25757   0.26590   0.28567
 Alpha virt. eigenvalues --    0.29123   0.29915   0.31097   0.31583   0.31585

 Mulliken charges:
               1
     1  C   -0.171736
     2  C   -0.225007
     3  C   -0.175435
     4  C    0.157264
     5  C   -0.170934
     6  C   -0.218885
     7  H    0.225294
     8  H    0.230003
     9  H    0.284512
    10  H    0.275245
    11  H    0.222947
    12  N    0.487997
    13  O   -0.460997
    14  O   -0.460204
    15  C   -0.303145
    16  C   -0.299328
    17  C   -0.485408
    18  H    0.146432
    19  H    0.146006
    20  H    0.155286
    21  H    0.155171
    22  H    0.149041
    23  H    0.159704
    24  H    0.170973
    25  C   -0.297981
    26  C   -0.300015
    27  C   -0.475973
    28  H    0.152064
    29  H    0.152713
    30  H    0.148623
    31  H    0.151206
    32  H    0.157095
    33  H    0.156537
    34  H    0.160937
 Sum of Mulliken charges =  -0.00000

 Dipole moment (field-independent basis, Debye):
    X=              3.4434    Y=              3.9076    Z=              0.1089  Tot=              5.2095
 Quadrupole moment (field-independent basis, Debye-Ang):
   XX=           -113.0716   YY=            -91.0029   ZZ=            -93.9122
   XY=            -14.3873   XZ=             -2.1894   YZ=              1.2478

 Normal termination of Gaussian 16 at Wed May  5 16:02:23 2021.
