 Gaussian 16, Revision A.03,
 Gaussian 16:  EM64L-G16RevA.03 25-Dec-2016

 -------------
 #p 6-31g* mp2
 -------------

 ------------------------------------------------------
 Input file generated by CHIRIPA (05-May-2021 14:51:09)
 ------------------------------------------------------
 Symbolic Z-matrix:
 Charge =  0 Multiplicity = 1

                         Standard orientation:
 ---------------------------------------------------------------------
 Center     Atomic      Atomic             Coordinates (Angstroms)
 Number     Number       Type             X           Y           Z
 ---------------------------------------------------------------------
      1          6           0       -1.682927   -1.102660    0.160281
      2          6           0       -1.765296   -2.076790    1.335981
      3          6           0       -0.517450   -2.950367    1.468418
      4          1           0       -1.530741   -1.670249   -0.767958
      5          1           0       -0.798003   -0.463185    0.284283
      6          1           0       -2.650571   -2.713314    1.210508
      7          1           0       -1.917495   -1.506829    2.261505
      8          1           0        0.372537   -2.330628    1.618243
      9          1           0       -0.364704   -3.543968    0.561275
     10          1           0       -0.597643   -3.639222    2.315121
     11          6           0       -2.923008   -0.222452    0.014815
     12          6           0       -2.840639    0.751678   -1.160885
     13          6           0       -4.088485    1.625254   -1.293321
     14          1           0       -3.807932   -0.861928   -0.109187
     15          1           0       -3.075194    0.345137    0.943054
     16          1           0       -2.688440    0.181716   -2.086409
     17          1           0       -1.955365    1.388201   -1.035412
     18          1           0       -4.241231    2.218855   -0.386179
     19          1           0       -4.978472    1.005515   -1.443147
     20          1           0       -4.008292    2.314110   -2.140025
     21          6           0        2.419250    1.394628    0.096795
     22          6           0        1.269744    2.008464    0.896685
     23          6           0        1.517102    3.473412    1.257984
     24          1           0        3.347805    1.478707    0.677882
     25          1           0        2.571021    1.979073   -0.821238
     26          1           0        1.119280    1.422210    1.812263
     27          1           0        0.343784    1.922742    0.313706
     28          1           0        1.645709    4.076825    0.353576
     29          1           0        2.425611    3.573450    1.860648
     30          1           0        0.683006    3.892302    1.829538
     31          6           0        2.186685   -0.069515   -0.271891
     32          6           0        3.336191   -0.683352   -1.071781
     33          6           0        3.088833   -2.148299   -1.433080
     34          1           0        2.034914   -0.653960    0.646142
     35          1           0        1.258131   -0.153594   -0.852978
     36          1           0        4.262152   -0.597629   -0.488802
     37          1           0        3.486655   -0.097098   -1.987359
     38          1           0        2.180323   -2.248338   -2.035744
     39          1           0        2.960227   -2.751713   -0.528673
     40          1           0        3.922930   -2.567190   -2.004634
 ---------------------------------------------------------------------

 SCF Done:  E(RHF) =  -470.732188859     A.U. after   11 cycles
 E2 =    -0.1585489764D+01 EUMP2 =    -0.47231767862319D+03

 The electronic state is 1-A.
 Alpha  occ. eigenvalues --  -11.21703 -11.21624 -11.21596 -11.21537 -11.21436
 Alpha  occ. eigenvalues --  -11.21346 -11.21339 -11.21214 -11.21144 -11.21082
 Alpha  occ. eigenvalues --  -11.21042 -11.21006  -1.08509  -1.08353  -1.03573
 Alpha  occ. eigenvalues --   -1.03495  -0.96015  -0.95940  -0.87029  -0.86960
 Alpha  occ. eigenvalues --   -0.79679  -0.79546  -0.78603  -0.77913  -0.65178
 Alpha  occ. eigenvalues --   -0.64963  -0.60979  -0.60896  -0.59415  -0.59284
 Alpha  occ. eigenvalues --   -0.57660  -0.57528  -0.55366  -0.55170  -0.52722
 Alpha  occ. eigenvalues --   -0.52644  -0.52471  -0.52348  -0.50037  -0.49811
 Alpha  occ. eigenvalues --   -0.48107  -0.47786  -0.46793  -0.46715  -0.46484
 Alpha  occ. eigenvalues --   -0.45705  -0.45650  -0.44743  -0.43808  -0.43733
 Alpha virt. eigenvalues --    0.20542   0.22040   0.23563   0.24349   0.24899
 Alpha virt. eigenvalues --    0.25680   0.26947   0.27634   0.28963   0.30040
 Alpha virt. eigenvalues --    0.30934   0.31434   0.31638   0.31841   0.32058

 Mulliken charges:
               1
     1  C   -0.309150
     2  C   -0.298987
     3  C   -0.479584
     4  H    0.147748
     5  H    0.164173
     6  H    0.151407
     7  H    0.151256
     8  H    0.158311
     9  H    0.155742
    10  H    0.159549
    11  C   -0.297012
    12  C   -0.304346
    13  C   -0.475381
    14  H    0.149216
    15  H    0.149375
    16  H    0.151700
    17  H    0.154307
    18  H    0.155320
    19  H    0.155473
    20  H    0.160034
    21  C   -0.297178
    22  C   -0.307086
    23  C   -0.475287
    24  H    0.149723
    25  H    0.149623
    26  H    0.151475
    27  H    0.157115
    28  H    0.155544
    29  H    0.155635
    30  H    0.160285
    31  C   -0.307123
    32  C   -0.299029
    33  C   -0.476241
    34  H    0.152925
    35  H    0.155412
    36  H    0.151603
    37  H    0.151790
    38  H    0.155172
    39  H    0.156504
    40  H    0.159986
 Sum of Mulliken charges =  -0.00000

 Dipole moment (field-independent basis, Debye):
    X=              0.0398    Y=              0.0214    Z=             -0.0072  Tot=              0.0457
 Quadrupole moment (field-independent basis, Debye-Ang):
   XX=            -85.2011   YY=            -85.8816   ZZ=            -83.8486
   XY=              0.6861   XZ=              0.4728   YZ=              0.0239

 Normal termination of Gaussian 16 at Wed May  5 16:37:44 2021.
