 Gaussian 16, Revision A.03,
 Gaussian 16:  EM64L-G16RevA.03 25-Dec-2016

 -------------
 #p 6-31g* mp2
 -------------

 ------------------------------------------------------
 Input file generated by CHIRIPA (05-May-2021 14:51:10)
 ------------------------------------------------------
 Symbolic Z-matrix:
 Charge =  0 Multiplicity = 1

                         Standard orientation:
 ---------------------------------------------------------------------
 Center     Atomic      Atomic             Coordinates (Angstroms)
 Number     Number       Type             X           Y           Z
 ---------------------------------------------------------------------
      1          6           0       -2.880538   -0.114267    0.108771
      2          6           0       -1.913387   -1.091091   -0.560869
      3          6           0       -0.449480   -0.784926   -0.243009
      4          1           0       -2.640110    0.908317   -0.212883
      5          1           0       -2.726487   -0.144205    1.196322
      6          1           0       -2.070171   -1.060335   -1.646728
      7          1           0       -2.156267   -2.111486   -0.237732
      8          1           0       -0.270915   -0.835054    0.835973
      9          1           0       -0.184329    0.222069   -0.581029
     10          1           0        0.224535   -1.495315   -0.731794
     11          6           0       -4.347777   -0.407339   -0.199524
     12          6           0       -5.314929    0.569484    0.470116
     13          6           0       -6.778836    0.263320    0.152256
     14          1           0       -4.501829   -0.377402   -1.287075
     15          1           0       -4.588206   -1.429923    0.122130
     16          1           0       -5.072048    1.589880    0.146979
     17          1           0       -5.158145    0.538729    1.555975
     18          1           0       -7.043987   -0.743676    0.490276
     19          1           0       -6.957401    0.313448   -0.926726
     20          1           0       -7.452851    0.973709    0.641041
     21          6           0        3.267811    0.859558   -0.278611
     22          6           0        3.617508    2.193159    0.382603
     23          6           0        2.916906    3.381549   -0.276698
     24          1           0        3.538864    0.902775   -1.342382
     25          1           0        2.179549    0.712871   -0.239058
     26          1           0        4.704920    2.336641    0.343047
     27          1           0        3.345768    2.146695    1.444966
     28          1           0        1.829558    3.265173   -0.224403
     29          1           0        3.196434    3.456198   -1.332582
     30          1           0        3.181035    4.324730    0.211672
     31          6           0        3.960505   -0.337952    0.369364
     32          6           0        3.610807   -1.671553   -0.291850
     33          6           0        4.311410   -2.859942    0.367451
     34          1           0        5.048767   -0.191264    0.329811
     35          1           0        3.689452   -0.381169    1.433134
     36          1           0        3.882547   -1.625089   -1.354213
     37          1           0        2.523395   -1.815035   -0.252294
     38          1           0        4.031882   -2.934591    1.423336
     39          1           0        5.398756   -2.743567    0.315156
     40          1           0        4.047281   -3.803124   -0.120919
 ---------------------------------------------------------------------

 SCF Done:  E(RHF) =  -470.732505324     A.U. after   11 cycles
 E2 =    -0.1583593594D+01 EUMP2 =    -0.47231609891776D+03

 The electronic state is 1-A.
 Alpha  occ. eigenvalues --  -11.21664 -11.21631 -11.21521 -11.21475 -11.21453
 Alpha  occ. eigenvalues --  -11.21391 -11.21286 -11.21199 -11.21167 -11.21094
 Alpha  occ. eigenvalues --  -11.21034 -11.21005  -1.08483  -1.08328  -1.03590
 Alpha  occ. eigenvalues --   -1.03450  -0.96054  -0.95896  -0.87078  -0.86919
 Alpha  occ. eigenvalues --   -0.79686  -0.79514  -0.78316  -0.78103  -0.65114
 Alpha  occ. eigenvalues --   -0.64968  -0.61017  -0.60855  -0.59462  -0.59221
 Alpha  occ. eigenvalues --   -0.57688  -0.57486  -0.55372  -0.55163  -0.52831
 Alpha  occ. eigenvalues --   -0.52563  -0.52533  -0.52276  -0.50053  -0.49791
 Alpha  occ. eigenvalues --   -0.48064  -0.47755  -0.46738  -0.46484  -0.45942
 Alpha  occ. eigenvalues --   -0.45761  -0.45668  -0.45461  -0.43757  -0.43662
 Alpha virt. eigenvalues --    0.21801   0.22954   0.23970   0.24195   0.25600
 Alpha virt. eigenvalues --    0.26611   0.27101   0.27450   0.27892   0.29229
 Alpha virt. eigenvalues --    0.29577   0.31412   0.31768   0.31958   0.32220

 Mulliken charges:
               1
     1  C   -0.298865
     2  C   -0.299987
     3  C   -0.481444
     4  H    0.149702
     5  H    0.149472
     6  H    0.152464
     7  H    0.152167
     8  H    0.154871
     9  H    0.156652
    10  H    0.165345
    11  C   -0.298291
    12  C   -0.299657
    13  C   -0.475734
    14  H    0.149701
    15  H    0.149756
    16  H    0.152033
    17  H    0.151935
    18  H    0.155218
    19  H    0.155263
    20  H    0.160368
    21  C   -0.308185
    22  C   -0.298952
    23  C   -0.475633
    24  H    0.148399
    25  H    0.162111
    26  H    0.151515
    27  H    0.151563
    28  H    0.154275
    29  H    0.154982
    30  H    0.160092
    31  C   -0.296783
    32  C   -0.307736
    33  C   -0.475071
    34  H    0.148891
    35  H    0.148866
    36  H    0.150966
    37  H    0.160473
    38  H    0.154807
    39  H    0.154911
    40  H    0.159540
 Sum of Mulliken charges =  -0.00000

 Dipole moment (field-independent basis, Debye):
    X=             -0.0751    Y=             -0.0127    Z=             -0.0100  Tot=              0.0769
 Quadrupole moment (field-independent basis, Debye-Ang):
   XX=            -85.8696   YY=            -85.4405   ZZ=            -83.8586
   XY=              0.4502   XZ=             -0.8505   YZ=             -0.2322

 Normal termination of Gaussian 16 at Wed May  5 16:41:16 2021.
