 Gaussian 16, Revision A.03,
 Gaussian 16:  EM64L-G16RevA.03 25-Dec-2016

 -------------
 #p 6-31g* mp2
 -------------

 ------------------------------------------------------
 Input file generated by CHIRIPA (05-May-2021 14:53:12)
 ------------------------------------------------------
 Symbolic Z-matrix:
 Charge =  0 Multiplicity = 1

                         Standard orientation:
 ---------------------------------------------------------------------
 Center     Atomic      Atomic             Coordinates (Angstroms)
 Number     Number       Type             X           Y           Z
 ---------------------------------------------------------------------
      1          6           0       -5.138050   -0.467150    0.248080
      2          6           0       -5.894445   -0.606966   -1.073398
      3          6           0       -6.955886   -1.706758   -1.033489
      4          1           0       -4.664395   -1.427047    0.495454
      5          1           0       -5.855856   -0.256214    1.052850
      6          1           0       -5.175277   -0.816205   -1.875665
      7          1           0       -6.366195    0.353430   -1.317750
      8          1           0       -7.695389   -1.500296   -0.253034
      9          1           0       -6.497704   -2.676576   -0.814119
     10          1           0       -7.484409   -1.789450   -1.988311
     11          6           0       -4.073547    0.628284    0.223844
     12          6           0       -3.317152    0.768100    1.545322
     13          6           0       -2.255711    1.867892    1.505414
     14          1           0       -3.355741    0.417348   -0.580926
     15          1           0       -4.547202    1.588181   -0.023529
     16          1           0       -2.845402   -0.192296    1.789675
     17          1           0       -4.036320    0.977339    2.347589
     18          1           0       -2.713893    2.837710    1.286043
     19          1           0       -1.516208    1.661430    0.724959
     20          1           0       -1.727188    1.950584    2.460236
     21          6           0        2.143661    1.871246   -0.897733
     22          6           0        1.566165    0.739709   -0.312375
     23          6           0        2.362426   -0.337890    0.086742
     24          6           0        3.738907   -0.249933   -0.115377
     25          6           0        4.343997    0.863733   -0.695810
     26          6           0        3.528294    1.929543   -1.087248
     27          1           0        1.517555    2.703771   -1.204794
     28          1           0        0.491124    0.691672   -0.163964
     29          1           0        1.941568   -1.225986    0.542356
     30          1           0        5.418635    0.882505   -0.830791
     31          1           0        3.979534    2.807041   -1.541590
     32          7           0        4.592165   -1.384500    0.303084
     33          8           0        5.802327   -1.282429    0.114073
     34          8           0        4.034630   -2.354360    0.812164
 ---------------------------------------------------------------------

 SCF Done:  E(RHF) =  -669.535431085     A.U. after   15 cycles
 E2 =    -0.2090773058D+01 EUMP2 =    -0.67162620414269D+03

 The electronic state is 1-A.
 Alpha  occ. eigenvalues --  -20.60744 -20.60739 -15.85798 -11.31159 -11.27729
 Alpha  occ. eigenvalues --  -11.27724 -11.27465 -11.26742 -11.26720 -11.22377
 Alpha  occ. eigenvalues --  -11.22091 -11.22081 -11.22041 -11.21892 -11.21413
 Alpha  occ. eigenvalues --   -1.59820  -1.39374  -1.19331  -1.09056  -1.08726
 Alpha  occ. eigenvalues --   -1.04735  -1.04166  -0.96628  -0.95562  -0.87647
 Alpha  occ. eigenvalues --   -0.86134  -0.82395  -0.80233  -0.78842  -0.77445
 Alpha  occ. eigenvalues --   -0.72016  -0.71143  -0.70438  -0.65708  -0.64983
 Alpha  occ. eigenvalues --   -0.64758  -0.62140  -0.61525  -0.59995  -0.58218
 Alpha  occ. eigenvalues --   -0.55953  -0.55224  -0.53317  -0.53110  -0.53057
 Alpha  occ. eigenvalues --   -0.52777  -0.50562  -0.48780  -0.48771  -0.48537
 Alpha  occ. eigenvalues --   -0.47263  -0.46388  -0.46298  -0.44780  -0.44403
 Alpha  occ. eigenvalues --   -0.37310  -0.36336
 Alpha virt. eigenvalues --    0.05093   0.11295   0.16583   0.19459   0.22537
 Alpha virt. eigenvalues --    0.23682   0.25437   0.26485   0.27145   0.28213
 Alpha virt. eigenvalues --    0.28565   0.30256   0.31033   0.31508   0.31983

 Mulliken charges:
               1
     1  C   -0.298825
     2  C   -0.300037
     3  C   -0.476108
     4  H    0.150852
     5  H    0.151299
     6  H    0.151736
     7  H    0.152243
     8  H    0.155988
     9  H    0.156258
    10  H    0.161461
    11  C   -0.297981
    12  C   -0.300582
    13  C   -0.478727
    14  H    0.145259
    15  H    0.150906
    16  H    0.152540
    17  H    0.156315
    18  H    0.158662
    19  H    0.143937
    20  H    0.165214
    21  C   -0.172619
    22  C   -0.223533
    23  C   -0.172571
    24  C    0.158887
    25  C   -0.171196
    26  C   -0.218624
    27  H    0.225771
    28  H    0.231915
    29  H    0.275773
    30  H    0.275502
    31  H    0.223360
    32  N    0.488003
    33  O   -0.460534
    34  O   -0.460542
 Sum of Mulliken charges =  -0.00000

 Dipole moment (field-independent basis, Debye):
    X=             -3.1987    Y=              4.0093    Z=             -1.4201  Tot=              5.3219
 Quadrupole moment (field-independent basis, Debye-Ang):
   XX=           -113.5167   YY=            -96.0962   ZZ=            -94.4439
   XY=             17.0638   XZ=             -7.2430   YZ=             -0.8476

 Normal termination of Gaussian 16 at Thu May  6 16:59:37 2021.
