 Gaussian 16, Revision A.03,
 Gaussian 16:  EM64L-G16RevA.03 25-Dec-2016

 -------------
 #p 6-31g* mp2
 -------------

 ------------------------------------------------------
 Input file generated by CHIRIPA (05-May-2021 14:53:16)
 ------------------------------------------------------
 Symbolic Z-matrix:
 Charge =  0 Multiplicity = 1

                         Standard orientation:
 ---------------------------------------------------------------------
 Center     Atomic      Atomic             Coordinates (Angstroms)
 Number     Number       Type             X           Y           Z
 ---------------------------------------------------------------------
      1          6           0       -2.124144    0.066095   -0.105284
      2          6           0       -3.382359   -0.802455   -0.082848
      3          6           0       -3.073210   -2.294321   -0.211516
      4          1           0       -1.576486   -0.117060   -1.039880
      5          1           0       -1.458820   -0.243314    0.712643
      6          1           0       -4.045731   -0.490579   -0.899724
      7          1           0       -3.927185   -0.617069    0.851717
      8          1           0       -2.430888   -2.626918    0.610312
      9          1           0       -2.550108   -2.499710   -1.151080
     10          1           0       -3.986824   -2.896678   -0.193181
     11          6           0       -2.416893    1.559989    0.022421
     12          6           0       -1.158679    2.428538   -0.000015
     13          6           0       -1.467827    3.920405    0.128653
     14          1           0       -3.082217    1.869398   -0.795506
     15          1           0       -2.964551    1.743144    0.957017
     16          1           0       -0.613853    2.243152   -0.934580
     17          1           0       -0.495306    2.116662    0.816861
     18          1           0       -1.990929    4.125793    1.068218
     19          1           0       -2.110149    4.253002   -0.693175
     20          1           0       -0.554213    4.522761    0.110318
     21          6           0        3.081509    1.508492   -0.213737
     22          6           0        2.730762    0.768383   -1.347640
     23          6           0        2.006324   -0.420839   -1.223190
     24          6           0        1.647422   -0.842432    0.056161
     25          6           0        1.981983   -0.127222    1.205001
     26          6           0        2.706660    1.059119    1.056725
     27          1           0        3.644363    2.431188   -0.319667
     28          1           0        3.020528    1.114955   -2.335552
     29          1           0        1.721642   -1.013374   -2.084164
     30          1           0        1.678932   -0.498165    2.176587
     31          1           0        2.977677    1.631845    1.939097
     32          7           0        0.880365   -2.099883    0.200523
     33          8           0        0.576160   -2.449810    1.338788
     34          8           0        0.597874   -2.711735   -0.827326
 ---------------------------------------------------------------------

 SCF Done:  E(RHF) =  -669.536388513     A.U. after   15 cycles
 E2 =    -0.2095766200D+01 EUMP2 =    -0.67163215471292D+03

 The electronic state is 1-A.
 Alpha  occ. eigenvalues --  -20.60987 -20.60967 -15.85957 -11.31273 -11.27844
 Alpha  occ. eigenvalues --  -11.27840 -11.27578 -11.26863 -11.26853 -11.21493
 Alpha  occ. eigenvalues --  -11.21154 -11.21116 -11.20906 -11.20801 -11.19687
 Alpha  occ. eigenvalues --   -1.60001  -1.39566  -1.19446  -1.08851  -1.08035
 Alpha  occ. eigenvalues --   -1.04851  -1.03028  -0.95701  -0.95456  -0.86470
 Alpha  occ. eigenvalues --   -0.86250  -0.82543  -0.79134  -0.77869  -0.77588
 Alpha  occ. eigenvalues --   -0.72202  -0.71269  -0.70561  -0.65115  -0.64857
 Alpha  occ. eigenvalues --   -0.64674  -0.62202  -0.60428  -0.58944  -0.57066
 Alpha  occ. eigenvalues --   -0.55354  -0.54733  -0.53205  -0.52945  -0.52139
 Alpha  occ. eigenvalues --   -0.51887  -0.49420  -0.48977  -0.48939  -0.47343
 Alpha  occ. eigenvalues --   -0.46205  -0.45598  -0.45271  -0.44592  -0.43308
 Alpha  occ. eigenvalues --   -0.37379  -0.36406
 Alpha virt. eigenvalues --    0.04891   0.11124   0.16365   0.21277   0.23182
 Alpha virt. eigenvalues --    0.24824   0.26705   0.27236   0.27452   0.28325
 Alpha virt. eigenvalues --    0.28668   0.30890   0.31700   0.31962   0.32522

 Mulliken charges:
               1
     1  C   -0.304937
     2  C   -0.298537
     3  C   -0.483394
     4  H    0.148174
     5  H    0.150402
     6  H    0.147522
     7  H    0.149103
     8  H    0.172618
     9  H    0.162850
    10  H    0.153890
    11  C   -0.297294
    12  C   -0.300872
    13  C   -0.474966
    14  H    0.148486
    15  H    0.149073
    16  H    0.149766
    17  H    0.150703
    18  H    0.155211
    19  H    0.155388
    20  H    0.154522
    21  C   -0.169240
    22  C   -0.218289
    23  C   -0.171394
    24  C    0.163253
    25  C   -0.172759
    26  C   -0.217378
    27  H    0.226071
    28  H    0.223803
    29  H    0.275450
    30  H    0.275485
    31  H    0.223927
    32  N    0.491516
    33  O   -0.460726
    34  O   -0.457428
 Sum of Mulliken charges =  -0.00000

 Dipole moment (field-independent basis, Debye):
    X=              2.9045    Y=              4.2058    Z=             -0.5071  Tot=              5.1363
 Quadrupole moment (field-independent basis, Debye-Ang):
   XX=            -86.9478   YY=           -104.2086   ZZ=            -88.8250
   XY=              5.4577   XZ=             -0.7719   YZ=              1.1965

 Normal termination of Gaussian 16 at Wed May  5 18:43:43 2021.
