 Gaussian 16, Revision A.03,
 Gaussian 16:  EM64L-G16RevA.03 25-Dec-2016

 -------------
 #p 6-31g* mp2
 -------------

 ------------------------------------------------------
 Input file generated by CHIRIPA (05-May-2021 14:53:16)
 ------------------------------------------------------
 Symbolic Z-matrix:
 Charge =  0 Multiplicity = 1

                         Standard orientation:
 ---------------------------------------------------------------------
 Center     Atomic      Atomic             Coordinates (Angstroms)
 Number     Number       Type             X           Y           Z
 ---------------------------------------------------------------------
      1          6           0       -3.869601    0.379588   -0.381957
      2          6           0       -4.072898   -1.134771   -0.440031
      3          6           0       -5.423326   -1.527356   -1.040045
      4          1           0       -4.679490    0.829494    0.208475
      5          1           0       -3.955338    0.793210   -1.396334
      6          1           0       -3.985428   -1.545590    0.573967
      7          1           0       -3.262325   -1.581144   -1.030233
      8          1           0       -5.516794   -1.144889   -2.061604
      9          1           0       -6.244006   -1.109133   -0.448289
     10          1           0       -5.547692   -2.614265   -1.072014
     11          6           0       -2.524156    0.787745    0.215465
     12          6           0       -2.320858    2.302104    0.273540
     13          6           0       -0.970431    2.694689    0.873553
     14          1           0       -2.438418    0.374122    1.229842
     15          1           0       -1.714267    0.337839   -0.374966
     16          1           0       -3.131432    2.748477    0.863741
     17          1           0       -2.408328    2.712923   -0.740458
     18          1           0       -0.149751    2.276466    0.281798
     19          1           0       -0.876963    2.312222    1.895113
     20          1           0       -0.846065    3.781598    0.905523
     21          6           0        1.196673   -2.182432    1.366193
     22          6           0        2.012992   -2.577209    0.301161
     23          6           0        2.738307   -1.629271   -0.426768
     24          6           0        2.623326   -0.289083   -0.060755
     25          6           0        1.818478    0.135565    0.995267
     26          6           0        1.102188   -0.829689    1.709242
     27          1           0        0.636736   -2.925538    1.926247
     28          1           0        2.088298   -3.627066    0.032504
     29          1           0        3.377748   -1.907259   -1.255776
     30          1           0        1.763722    1.189502    1.239469
     31          1           0        0.469006   -0.520203    2.535889
     32          7           0        3.386408    0.723621   -0.823995
     33          8           0        3.267959    1.898091   -0.481607
     34          8           0        4.088510    0.323735   -1.750159
 ---------------------------------------------------------------------

 SCF Done:  E(RHF) =  -669.535214838     A.U. after   15 cycles
 E2 =    -0.2092583576D+01 EUMP2 =    -0.67162779841393D+03

 The electronic state is 1-A.
 Alpha  occ. eigenvalues --  -20.60776 -20.60771 -15.85822 -11.31158 -11.27737
 Alpha  occ. eigenvalues --  -11.27680 -11.27474 -11.26747 -11.26729 -11.21975
 Alpha  occ. eigenvalues --  -11.21895 -11.21748 -11.21678 -11.21421 -11.21383
 Alpha  occ. eigenvalues --   -1.59849  -1.39403  -1.19338  -1.08771  -1.08735
 Alpha  occ. eigenvalues --   -1.04739  -1.03865  -0.96327  -0.95572  -0.87352
 Alpha  occ. eigenvalues --   -0.86130  -0.82406  -0.79949  -0.78599  -0.77442
 Alpha  occ. eigenvalues --   -0.72040  -0.71172  -0.70450  -0.65405  -0.64987
 Alpha  occ. eigenvalues --   -0.64738  -0.62119  -0.61255  -0.59673  -0.57930
 Alpha  occ. eigenvalues --   -0.55627  -0.55233  -0.53110  -0.53040  -0.52935
 Alpha  occ. eigenvalues --   -0.52557  -0.50258  -0.48800  -0.48796  -0.48244
 Alpha  occ. eigenvalues --   -0.46963  -0.46132  -0.46044  -0.44804  -0.44111
 Alpha  occ. eigenvalues --   -0.37318  -0.36290
 Alpha virt. eigenvalues --    0.05047   0.11221   0.16529   0.20584   0.22634
 Alpha virt. eigenvalues --    0.23907   0.25542   0.26326   0.27116   0.28289
 Alpha virt. eigenvalues --    0.29323   0.29540   0.31559   0.31664   0.32074

 Mulliken charges:
               1
     1  C   -0.298603
     2  C   -0.299397
     3  C   -0.475775
     4  H    0.149996
     5  H    0.152078
     6  H    0.148256
     7  H    0.152188
     8  H    0.156914
     9  H    0.155734
    10  H    0.159712
    11  C   -0.298854
    12  C   -0.299920
    13  C   -0.481570
    14  H    0.141788
    15  H    0.153638
    16  H    0.152165
    17  H    0.156375
    18  H    0.162808
    19  H    0.144168
    20  H    0.166771
    21  C   -0.170904
    22  C   -0.218758
    23  C   -0.171172
    24  C    0.156962
    25  C   -0.172562
    26  C   -0.217605
    27  H    0.225606
    28  H    0.223269
    29  H    0.275334
    30  H    0.280477
    31  H    0.223887
    32  N    0.488537
    33  O   -0.461230
    34  O   -0.460314
 Sum of Mulliken charges =  -0.00000

 Dipole moment (field-independent basis, Debye):
    X=             -2.7260    Y=             -3.5054    Z=              2.5982  Tot=              5.1449
 Quadrupole moment (field-independent basis, Debye-Ang):
   XX=           -109.5846   YY=            -90.3204   ZZ=            -93.3079
   XY=            -10.7270   XZ=              5.4705   YZ=              1.5121

 Normal termination of Gaussian 16 at Thu May  6 18:54:44 2021.
