 Gaussian 16, Revision A.03,
 Gaussian 16:  EM64L-G16RevA.03 25-Dec-2016

 -------------
 #p 6-31g* mp2
 -------------

 ------------------------------------------------------
 Input file generated by CHIRIPA (05-May-2021 14:55:22)
 ------------------------------------------------------
 Symbolic Z-matrix:
 Charge =  0 Multiplicity = 1

                         Standard orientation:
 ---------------------------------------------------------------------
 Center     Atomic      Atomic             Coordinates (Angstroms)
 Number     Number       Type             X           Y           Z
 ---------------------------------------------------------------------
      1          6           0       -1.653327   -2.449474   -1.293136
      2          6           0       -2.750743   -1.615123   -1.529903
      3          6           0       -2.978272   -0.495454   -0.724223
      4          6           0       -2.084280   -0.238758    0.314130
      5          6           0       -0.981899   -1.051067    0.575279
      6          6           0       -0.773958   -2.165284   -0.243152
      7          1           0       -1.484186   -3.317142   -1.923961
      8          1           0       -3.435324   -1.833382   -2.344616
      9          1           0       -3.819913    0.167216   -0.885238
     10          1           0       -0.316875   -0.807720    1.395001
     11          1           0        0.079141   -2.811497   -0.056940
     12          7           0       -2.314786    0.943699    1.173817
     13          8           0       -1.512489    1.148087    2.082212
     14          8           0       -3.293390    1.643732    0.922967
     15          6           0        3.243701    0.127246   -0.118411
     16          6           0        2.981898   -1.144298    0.689438
     17          6           0        4.240721   -1.989663    0.885694
     18          1           0        3.659177   -0.147173   -1.097706
     19          1           0        4.012274    0.725081    0.390790
     20          1           0        2.213052   -1.738893    0.179586
     21          1           0        2.566818   -0.866830    1.666851
     22          1           0        5.010043   -1.418005    1.414797
     23          1           0        4.654267   -2.295023   -0.080917
     24          1           0        4.030786   -2.893731    1.465734
     25          6           0        1.994801    0.982875   -0.323044
     26          6           0        2.256605    2.254420   -1.130893
     27          6           0        0.997781    3.099784   -1.327148
     28          1           0        1.226229    0.385040   -0.832244
     29          1           0        1.579325    1.257294    0.656251
     30          1           0        2.671686    1.976951   -2.108306
     31          1           0        3.025450    2.849015   -0.621041
     32          1           0        0.584236    3.405144   -0.360538
     33          1           0        0.228460    2.528126   -1.856252
     34          1           0        1.207716    4.003854   -1.907188
 ---------------------------------------------------------------------

 SCF Done:  E(RHF) =  -669.534828641     A.U. after   15 cycles
 E2 =    -0.2094556914D+01 EUMP2 =    -0.67162938555508D+03

 The electronic state is 1-A.
 Alpha  occ. eigenvalues --  -20.60792 -20.60787 -15.85835 -11.31155 -11.27763
 Alpha  occ. eigenvalues --  -11.27713 -11.27505 -11.26752 -11.26713 -11.22214
 Alpha  occ. eigenvalues --  -11.21630 -11.21568 -11.21481 -11.21295 -11.20779
 Alpha  occ. eigenvalues --   -1.59856  -1.39412  -1.19356  -1.08753  -1.08614
 Alpha  occ. eigenvalues --   -1.04756  -1.03700  -0.96108  -0.95589  -0.87133
 Alpha  occ. eigenvalues --   -0.86150  -0.82437  -0.79845  -0.78452  -0.77414
 Alpha  occ. eigenvalues --   -0.72055  -0.71169  -0.70461  -0.65320  -0.64989
 Alpha  occ. eigenvalues --   -0.64719  -0.62133  -0.61074  -0.59522  -0.57734
 Alpha  occ. eigenvalues --   -0.55382  -0.55260  -0.53166  -0.52879  -0.52821
 Alpha  occ. eigenvalues --   -0.52473  -0.50045  -0.48815  -0.48810  -0.48117
 Alpha  occ. eigenvalues --   -0.46868  -0.45930  -0.45792  -0.44781  -0.43927
 Alpha  occ. eigenvalues --   -0.37338  -0.36259
 Alpha virt. eigenvalues --    0.05036   0.11238   0.16398   0.20407   0.23017
 Alpha virt. eigenvalues --    0.24051   0.24951   0.25885   0.27764   0.28262
 Alpha virt. eigenvalues --    0.29381   0.30448   0.31452   0.31666   0.32051

 Mulliken charges:
               1
     1  C   -0.171075
     2  C   -0.219361
     3  C   -0.170706
     4  C    0.158186
     5  C   -0.168029
     6  C   -0.223059
     7  H    0.225619
     8  H    0.223281
     9  H    0.275617
    10  H    0.279641
    11  H    0.226460
    12  N    0.488914
    13  O   -0.461737
    14  O   -0.459977
    15  C   -0.296052
    16  C   -0.307723
    17  C   -0.475194
    18  H    0.148856
    19  H    0.152578
    20  H    0.143670
    21  H    0.153675
    22  H    0.159604
    23  H    0.155681
    24  H    0.158379
    25  C   -0.310775
    26  C   -0.298784
    27  C   -0.478410
    28  H    0.151553
    29  H    0.159885
    30  H    0.149169
    31  H    0.152729
    32  H    0.165227
    33  H    0.152224
    34  H    0.159933
 Sum of Mulliken charges =  -0.00000

 Dipole moment (field-independent basis, Debye):
    X=              0.8149    Y=             -4.0409    Z=             -2.9631  Tot=              5.0767
 Quadrupole moment (field-independent basis, Debye-Ang):
   XX=            -95.5416   YY=            -93.3233   ZZ=            -95.2108
   XY=              8.3129   XZ=              9.3150   YZ=             -0.4751

 Normal termination of Gaussian 16 at Wed May  5 19:01:41 2021.
