 Gaussian 16, Revision A.03,
 Gaussian 16:  EM64L-G16RevA.03 25-Dec-2016

 -------------
 #p 6-31g* mp2
 -------------

 ------------------------------------------------------
 Input file generated by CHIRIPA (05-May-2021 14:53:12)
 ------------------------------------------------------
 Symbolic Z-matrix:
 Charge =  0 Multiplicity = 1

                         Standard orientation:
 ---------------------------------------------------------------------
 Center     Atomic      Atomic             Coordinates (Angstroms)
 Number     Number       Type             X           Y           Z
 ---------------------------------------------------------------------
      1          6           0       -3.039353   -0.063557   -0.469585
      2          6           0       -2.278839   -1.389607   -0.504162
      3          6           0       -0.820270   -1.223590   -0.931725
      4          1           0       -2.997938    0.401614   -1.463992
      5          1           0       -2.530528    0.625096    0.219073
      6          1           0       -2.789731   -2.076031   -1.191496
      7          1           0       -2.322232   -1.851768    0.490393
      8          1           0       -0.289721   -0.559594   -0.241633
      9          1           0       -0.759877   -0.785131   -1.933078
     10          1           0       -0.295367   -2.183808   -0.949592
     11          6           0       -4.498866   -0.213161   -0.043948
     12          6           0       -5.259380    1.112889   -0.009370
     13          6           0       -6.717949    0.946872    0.418192
     14          1           0       -5.007691   -0.901815   -0.732605
     15          1           0       -4.540281   -0.678333    0.950459
     16          1           0       -5.215988    1.575050   -1.003926
     17          1           0       -4.748488    1.799312    0.677963
     18          1           0       -6.778342    0.508413    1.419545
     19          1           0       -7.248498    0.282875   -0.271900
     20          1           0       -7.242852    1.907089    0.436059
     21          6           0        2.276779   -2.273036    0.700738
     22          6           0        3.079524   -1.989569   -0.409111
     23          6           0        3.455682   -0.673959   -0.695854
     24          6           0        3.009181    0.338292    0.152247
     25          6           0        2.208523    0.087819    1.265575
     26          6           0        1.844601   -1.235267    1.533072
     27          1           0        1.989323   -3.297937    0.916012
     28          1           0        3.416631   -2.793507   -1.057254
     29          1           0        4.076379   -0.426316   -1.548395
     30          1           0        1.887986    0.910376    1.893327
     31          1           0        1.221099   -1.452456    2.395695
     32          7           0        3.400925    1.735027   -0.141128
     33          8           0        2.994464    2.608962    0.621542
     34          8           0        4.107016    1.929404   -1.128188
 ---------------------------------------------------------------------

 SCF Done:  E(RHF) =  -669.533672299     A.U. after   15 cycles
 E2 =    -0.2093521091D+01 EUMP2 =    -0.67162719338998D+03

 The electronic state is 1-A.
 Alpha  occ. eigenvalues --  -20.60785 -20.60780 -15.85840 -11.31224 -11.27790
 Alpha  occ. eigenvalues --  -11.27768 -11.27494 -11.26802 -11.26764 -11.21842
 Alpha  occ. eigenvalues --  -11.21700 -11.21571 -11.21512 -11.21166 -11.21106
 Alpha  occ. eigenvalues --   -1.59861  -1.39414  -1.19397  -1.08789  -1.08590
 Alpha  occ. eigenvalues --   -1.04806  -1.03678  -0.96121  -0.95617  -0.87138
 Alpha  occ. eigenvalues --   -0.86194  -0.82452  -0.79750  -0.78407  -0.77496
 Alpha  occ. eigenvalues --   -0.72058  -0.71184  -0.70501  -0.65237  -0.65044
 Alpha  occ. eigenvalues --   -0.64800  -0.62147  -0.61110  -0.59517  -0.57741
 Alpha  occ. eigenvalues --   -0.55547  -0.55296  -0.53490  -0.52889  -0.52633
 Alpha  occ. eigenvalues --   -0.52335  -0.49966  -0.48818  -0.48812  -0.48056
 Alpha  occ. eigenvalues --   -0.46772  -0.45941  -0.45874  -0.44816  -0.43948
 Alpha  occ. eigenvalues --   -0.37286  -0.36333
 Alpha virt. eigenvalues --    0.05008   0.11186   0.16460   0.21177   0.22768
 Alpha virt. eigenvalues --    0.24238   0.26437   0.27288   0.27337   0.27657
 Alpha virt. eigenvalues --    0.28452   0.30735   0.31326   0.31784   0.32084

 Mulliken charges:
               1
     1  C   -0.298231
     2  C   -0.299722
     3  C   -0.476450
     4  H    0.152036
     5  H    0.149306
     6  H    0.151347
     7  H    0.145500
     8  H    0.161052
     9  H    0.155532
    10  H    0.152797
    11  C   -0.298080
    12  C   -0.299894
    13  C   -0.475762
    14  H    0.149507
    15  H    0.147733
    16  H    0.153250
    17  H    0.152621
    18  H    0.154439
    19  H    0.155082
    20  H    0.161233
    21  C   -0.166881
    22  C   -0.217383
    23  C   -0.170373
    24  C    0.161595
    25  C   -0.175155
    26  C   -0.216084
    27  H    0.225470
    28  H    0.223613
    29  H    0.275833
    30  H    0.275443
    31  H    0.223383
    32  N    0.488045
    33  O   -0.460590
    34  O   -0.460214
 Sum of Mulliken charges =  -0.00000

 Dipole moment (field-independent basis, Debye):
    X=             -1.2983    Y=             -4.8901    Z=              1.0230  Tot=              5.1619
 Quadrupole moment (field-independent basis, Debye-Ang):
   XX=           -103.4448   YY=            -98.2921   ZZ=            -90.6584
   XY=            -16.5482   XZ=              1.1439   YZ=              1.0825

 Normal termination of Gaussian 16 at Thu May  6 13:38:31 2021.
