 Gaussian 16, Revision A.03,
 Gaussian 16:  EM64L-G16RevA.03 25-Dec-2016

 -------------
 #p 6-31g* mp2
 -------------

 ------------------------------------------------------
 Input file generated by CHIRIPA (05-May-2021 14:53:13)
 ------------------------------------------------------
 Symbolic Z-matrix:
 Charge =  0 Multiplicity = 1

                         Standard orientation:
 ---------------------------------------------------------------------
 Center     Atomic      Atomic             Coordinates (Angstroms)
 Number     Number       Type             X           Y           Z
 ---------------------------------------------------------------------
      1          6           0       -2.501416    1.061324    0.036193
      2          6           0       -2.847217    2.461049   -0.472900
      3          6           0       -1.912942    3.538309    0.078857
      4          1           0       -2.542278    1.056904    1.134034
      5          1           0       -1.464297    0.824515   -0.238946
      6          1           0       -3.883822    2.694598   -0.198088
      7          1           0       -2.805714    2.462089   -1.569664
      8          1           0       -0.876364    3.332558   -0.207104
      9          1           0       -1.960598    3.566388    1.172265
     10          1           0       -2.178137    4.531080   -0.297890
     11          6           0       -3.426555   -0.026435   -0.506603
     12          6           0       -3.080754   -1.426160    0.002489
     13          6           0       -4.015028   -2.503420   -0.549268
     14          1           0       -4.463673    0.210374   -0.231465
     15          1           0       -3.385692   -0.022014   -1.604445
     16          1           0       -3.122257   -1.427200    1.099254
     17          1           0       -2.044149   -1.659709   -0.272323
     18          1           0       -3.967372   -2.531499   -1.642676
     19          1           0       -5.051606   -2.297669   -0.263306
     20          1           0       -3.749833   -3.496190   -0.172521
     21          6           0        0.297888   -1.395298    1.329415
     22          6           0        0.977242   -0.321122    1.913490
     23          6           0        2.096418    0.235921    1.287633
     24          6           0        2.510680   -0.308443    0.072996
     25          6           0        1.854932   -1.378363   -0.534093
     26          6           0        0.738125   -1.919565    0.109638
     27          1           0       -0.570595   -1.821870    1.822537
     28          1           0        0.637601    0.088069    2.860724
     29          1           0        2.640978    1.067785    1.717605
     30          1           0        2.217242   -1.764801   -1.478982
     31          1           0        0.212482   -2.753757   -0.346290
     32          7           0        3.694248    0.272888   -0.599031
     33          8           0        4.039171   -0.224817   -1.668589
     34          8           0        4.254594    1.215235   -0.043484
 ---------------------------------------------------------------------

 SCF Done:  E(RHF) =  -669.533767110     A.U. after   15 cycles
 E2 =    -0.2094490214D+01 EUMP2 =    -0.67162825732388D+03

 The electronic state is 1-A.
 Alpha  occ. eigenvalues --  -20.60780 -20.60775 -15.85837 -11.31198 -11.27797
 Alpha  occ. eigenvalues --  -11.27789 -11.27467 -11.26769 -11.26753 -11.22491
 Alpha  occ. eigenvalues --  -11.22017 -11.21953 -11.21890 -11.21817 -11.21355
 Alpha  occ. eigenvalues --   -1.59858  -1.39411  -1.19391  -1.09063  -1.08747
 Alpha  occ. eigenvalues --   -1.04798  -1.04130  -0.96546  -0.95611  -0.87571
 Alpha  occ. eigenvalues --   -0.86196  -0.82446  -0.80263  -0.78839  -0.77487
 Alpha  occ. eigenvalues --   -0.72055  -0.71184  -0.70472  -0.65702  -0.65028
 Alpha  occ. eigenvalues --   -0.64798  -0.62169  -0.61499  -0.59954  -0.58170
 Alpha  occ. eigenvalues --   -0.55818  -0.55284  -0.53373  -0.53080  -0.52957
 Alpha  occ. eigenvalues --   -0.52879  -0.50491  -0.48815  -0.48811  -0.48529
 Alpha  occ. eigenvalues --   -0.47285  -0.46358  -0.46223  -0.44818  -0.44359
 Alpha  occ. eigenvalues --   -0.37224  -0.36387
 Alpha virt. eigenvalues --    0.05040   0.11073   0.16485   0.20413   0.22709
 Alpha virt. eigenvalues --    0.23741   0.25129   0.26492   0.27315   0.27919
 Alpha virt. eigenvalues --    0.29062   0.29713   0.31147   0.31471   0.31865

 Mulliken charges:
               1
     1  C   -0.301933
     2  C   -0.300133
     3  C   -0.476072
     4  H    0.143035
     5  H    0.157979
     6  H    0.151738
     7  H    0.153958
     8  H    0.157987
     9  H    0.152291
    10  H    0.162538
    11  C   -0.296891
    12  C   -0.308256
    13  C   -0.475530
    14  H    0.150967
    15  H    0.152264
    16  H    0.144722
    17  H    0.153357
    18  H    0.158016
    19  H    0.158758
    20  H    0.156832
    21  C   -0.165160
    22  C   -0.219014
    23  C   -0.170973
    24  C    0.157275
    25  C   -0.172338
    26  C   -0.222562
    27  H    0.230773
    28  H    0.223606
    29  H    0.275881
    30  H    0.275662
    31  H    0.224083
    32  N    0.488152
    33  O   -0.460604
    34  O   -0.460410
 Sum of Mulliken charges =  -0.00000

 Dipole moment (field-independent basis, Debye):
    X=             -4.1888    Y=             -1.9799    Z=              2.3168  Tot=              5.1801
 Quadrupole moment (field-independent basis, Debye-Ang):
   XX=           -116.4855   YY=            -92.5199   ZZ=            -91.3661
   XY=             -4.2007   XZ=              5.6966   YZ=              1.7136

 Normal termination of Gaussian 16 at Wed May  5 20:09:50 2021.
