 Gaussian 16, Revision A.03,
 Gaussian 16:  EM64L-G16RevA.03 25-Dec-2016

 -------------
 #p 6-31g* mp2
 -------------

 ------------------------------------------------------
 Input file generated by CHIRIPA (05-May-2021 14:53:18)
 ------------------------------------------------------
 Symbolic Z-matrix:
 Charge =  0 Multiplicity = 1

                         Standard orientation:
 ---------------------------------------------------------------------
 Center     Atomic      Atomic             Coordinates (Angstroms)
 Number     Number       Type             X           Y           Z
 ---------------------------------------------------------------------
      1          6           0       -3.632023   -0.324341    0.558363
      2          6           0       -3.721138   -1.627900   -0.235853
      3          6           0       -3.910512   -2.853365    0.658668
      4          1           0       -2.798303   -0.392585    1.270542
      5          1           0       -4.545579   -0.204743    1.157119
      6          1           0       -2.808288   -1.744316   -0.833990
      7          1           0       -4.554623   -1.556471   -0.946357
      8          1           0       -4.830532   -2.763647    1.245281
      9          1           0       -3.074274   -2.952559    1.358287
     10          1           0       -3.971712   -3.774238    0.070359
     11          6           0       -3.442639    0.909690   -0.321993
     12          6           0       -3.353524    2.213249    0.472223
     13          6           0       -3.164150    3.438714   -0.422297
     14          1           0       -2.529083    0.790092   -0.920748
     15          1           0       -4.276359    0.977934   -1.034171
     16          1           0       -2.520039    2.141820    1.182727
     17          1           0       -4.266374    2.329665    1.070360
     18          1           0       -4.000388    3.537908   -1.121916
     19          1           0       -2.244130    3.348996   -1.008911
     20          1           0       -3.102950    4.359587    0.166011
     21          6           0        0.934580   -1.874621   -0.650557
     22          6           0        2.210765   -2.335095   -0.310213
     23          6           0        3.231783   -1.432177    0.000929
     24          6           0        2.940357   -0.069525   -0.038365
     25          6           0        1.679025    0.420260   -0.373689
     26          6           0        0.673244   -0.500835   -0.681156
     27          1           0        0.147347   -2.583090   -0.890833
     28          1           0        2.416595   -3.401433   -0.285636
     29          1           0        4.228731   -1.761304    0.267739
     30          1           0        1.504105    1.489169   -0.389603
     31          1           0       -0.316919   -0.140356   -0.945123
     32          7           0        4.013198    0.895975    0.289082
     33          8           0        3.730903    2.091464    0.247216
     34          8           0        5.116070    0.438964    0.581400
 ---------------------------------------------------------------------

 SCF Done:  E(RHF) =  -669.535441966     A.U. after   15 cycles
 E2 =    -0.2091930468D+01 EUMP2 =    -0.67162737243396D+03

 The electronic state is 1-A.
 Alpha  occ. eigenvalues --  -20.60762 -20.60757 -15.85815 -11.31185 -11.27755
 Alpha  occ. eigenvalues --  -11.27752 -11.27493 -11.26769 -11.26744 -11.22661
 Alpha  occ. eigenvalues --  -11.22391 -11.22301 -11.22272 -11.21967 -11.21660
 Alpha  occ. eigenvalues --   -1.59838  -1.39391  -1.19357  -1.09349  -1.08750
 Alpha  occ. eigenvalues --   -1.04762  -1.04371  -0.96806  -0.95585  -0.87817
 Alpha  occ. eigenvalues --   -0.86162  -0.82420  -0.80436  -0.79162  -0.77466
 Alpha  occ. eigenvalues --   -0.72034  -0.71161  -0.70467  -0.66098  -0.65009
 Alpha  occ. eigenvalues --   -0.64697  -0.62105  -0.61777  -0.60175  -0.58412
 Alpha  occ. eigenvalues --   -0.56119  -0.55244  -0.53473  -0.53233  -0.53089
 Alpha  occ. eigenvalues --   -0.52843  -0.50753  -0.48797  -0.48789  -0.48741
 Alpha  occ. eigenvalues --   -0.47491  -0.46679  -0.46609  -0.44795  -0.44640
 Alpha  occ. eigenvalues --   -0.37337  -0.36365
 Alpha virt. eigenvalues --    0.05068   0.11250   0.16547   0.17971   0.22537
 Alpha virt. eigenvalues --    0.23346   0.24852   0.26355   0.26692   0.27555
 Alpha virt. eigenvalues --    0.29482   0.30823   0.31002   0.31267   0.32015

 Mulliken charges:
               1
     1  C   -0.300811
     2  C   -0.299355
     3  C   -0.477128
     4  H    0.151761
     5  H    0.154624
     6  H    0.140170
     7  H    0.156286
     8  H    0.159809
     9  H    0.155513
    10  H    0.160758
    11  C   -0.302283
    12  C   -0.301347
    13  C   -0.475494
    14  H    0.140982
    15  H    0.154237
    16  H    0.153505
    17  H    0.155606
    18  H    0.156915
    19  H    0.152313
    20  H    0.164935
    21  C   -0.174775
    22  C   -0.218514
    23  C   -0.171048
    24  C    0.158844
    25  C   -0.173826
    26  C   -0.226753
    27  H    0.227602
    28  H    0.223524
    29  H    0.275606
    30  H    0.275714
    31  H    0.235443
    32  N    0.488078
    33  O   -0.460401
    34  O   -0.460490
 Sum of Mulliken charges =  -0.00000

 Dipole moment (field-independent basis, Debye):
    X=             -4.0094    Y=             -3.3428    Z=             -1.0519  Tot=              5.3251
 Quadrupole moment (field-independent basis, Debye-Ang):
   XX=           -113.2551   YY=            -92.2047   ZZ=            -95.6742
   XY=            -13.0246   XZ=             -2.8515   YZ=              0.0339

 Normal termination of Gaussian 16 at Thu May  6 07:37:15 2021.
