 Gaussian 16, Revision A.03,
 Gaussian 16:  EM64L-G16RevA.03 25-Dec-2016

 -------------
 #p 6-31g* mp2
 -------------

 ------------------------------------------------------
 Input file generated by CHIRIPA (05-May-2021 14:57:27)
 ------------------------------------------------------
 Symbolic Z-matrix:
 Charge =  0 Multiplicity = 1

                         Standard orientation:
 ---------------------------------------------------------------------
 Center     Atomic      Atomic             Coordinates (Angstroms)
 Number     Number       Type             X           Y           Z
 ---------------------------------------------------------------------
      1          6           0       -2.434203   -0.991564    2.464349
      2          6           0       -2.547513   -1.899515    1.406376
      3          6           0       -2.691000   -1.444263    0.092335
      4          6           0       -2.717382   -0.068114   -0.128591
      5          6           0       -2.606831    0.861495    0.904316
      6          6           0       -2.464171    0.383619    2.210390
      7          1           0       -2.323060   -1.354003    3.482034
      8          1           0       -2.524561   -2.968057    1.600635
      9          1           0       -2.780788   -2.125114   -0.745399
     10          1           0       -2.633098    1.920803    0.679385
     11          1           0       -2.376389    1.091057    3.030067
     12          7           0       -2.868847    0.425817   -1.515490
     13          8           0       -2.889231    1.643159   -1.683714
     14          8           0       -2.964315   -0.413735   -2.408057
     15          6           0        1.909563    2.496170    0.396290
     16          6           0        1.049347    1.589357   -0.231592
     17          6           0        1.472439    0.286577   -0.511429
     18          6           0        2.768102   -0.077345   -0.147965
     19          6           0        3.648614    0.803171    0.478677
     20          6           0        3.204170    2.100880    0.748799
     21          1           0        1.572602    3.506232    0.609900
     22          1           0        0.043402    1.893578   -0.506488
     23          1           0        0.827184   -0.435711   -0.996573
     24          1           0        4.645722    0.470755    0.740768
     25          1           0        3.874395    2.803000    1.236520
     26          7           0        3.227313   -1.453856   -0.439074
     27          8           0        4.373579   -1.749861   -0.108781
     28          8           0        2.432281   -2.210697   -0.992025
 ---------------------------------------------------------------------

 SCF Done:  E(RHF) =  -868.338728227     A.U. after   16 cycles
 E2 =    -0.2601244184D+01 EUMP2 =    -0.87093997241088D+03

 The electronic state is 1-A.
 Alpha  occ. eigenvalues --  -20.61616 -20.61572 -20.60737 -20.60732 -15.86606
 Alpha  occ. eigenvalues --  -15.85786 -11.31838 -11.31095 -11.28428 -11.28297
 Alpha  occ. eigenvalues --  -11.28009 -11.27667 -11.27610 -11.27383 -11.27353
 Alpha  occ. eigenvalues --  -11.27247 -11.26691 -11.26565  -1.60660  -1.59814
 Alpha  occ. eigenvalues --   -1.40215  -1.39368  -1.19978  -1.19256  -1.09387
 Alpha  occ. eigenvalues --   -1.08667  -1.05337  -1.04641  -0.96245  -0.95513
 Alpha  occ. eigenvalues --   -0.86748  -0.86042  -0.83067  -0.82341  -0.78158
 Alpha  occ. eigenvalues --   -0.77395  -0.72809  -0.72015  -0.71993  -0.71136
 Alpha  occ. eigenvalues --   -0.71049  -0.70374  -0.65612  -0.65320  -0.64907
 Alpha  occ. eigenvalues --   -0.64631  -0.62686  -0.61980  -0.55807  -0.55167
 Alpha  occ. eigenvalues --   -0.53714  -0.53411  -0.52946  -0.52719  -0.49597
 Alpha  occ. eigenvalues --   -0.49556  -0.48764  -0.48759  -0.45616  -0.44786
 Alpha  occ. eigenvalues --   -0.37940  -0.37297  -0.36925  -0.36159
 Alpha virt. eigenvalues --    0.04323   0.05126   0.10544   0.11483   0.15873
 Alpha virt. eigenvalues --    0.16631   0.20642   0.21592   0.26193   0.27093
 Alpha virt. eigenvalues --    0.27946   0.28477   0.30260   0.31190   0.31875

 Mulliken charges:
               1
     1  C   -0.169558
     2  C   -0.216130
     3  C   -0.171462
     4  C    0.154041
     5  C   -0.177041
     6  C   -0.215967
     7  H    0.229078
     8  H    0.229382
     9  H    0.280289
    10  H    0.271074
    11  H    0.224122
    12  N    0.486174
    13  O   -0.465072
    14  O   -0.452600
    15  C   -0.173236
    16  C   -0.222657
    17  C   -0.171048
    18  C    0.157640
    19  C   -0.172118
    20  C   -0.218702
    21  H    0.224678
    22  H    0.230997
    23  H    0.275561
    24  H    0.274556
    25  H    0.222249
    26  N    0.487971
    27  O   -0.461417
    28  O   -0.460806
 Sum of Mulliken charges =  -0.00000

 Dipole moment (field-independent basis, Debye):
    X=             -1.3012    Y=              2.8677    Z=              5.9847  Tot=              6.7626
 Quadrupole moment (field-independent basis, Debye-Ang):
   XX=           -113.6538   YY=           -101.1692   ZZ=           -105.8088
   XY=             20.2456   XZ=             -8.4196   YZ=              1.2329

 Normal termination of Gaussian 16 at Fri May  7 08:13:19 2021.
