 Gaussian 16, Revision A.03,
 Gaussian 16:  EM64L-G16RevA.03 25-Dec-2016

 -------------
 #p 6-31g* mp2
 -------------

 ------------------------------------------------------
 Input file generated by CHIRIPA (05-May-2021 14:57:22)
 ------------------------------------------------------
 Symbolic Z-matrix:
 Charge =  0 Multiplicity = 1

                         Standard orientation:
 ---------------------------------------------------------------------
 Center     Atomic      Atomic             Coordinates (Angstroms)
 Number     Number       Type             X           Y           Z
 ---------------------------------------------------------------------
      1          6           0       -4.009643    2.150418    0.777205
      2          6           0       -2.645373    1.841780    0.782978
      3          6           0       -2.193102    0.613949    0.290608
      4          6           0       -3.136908   -0.285810   -0.202295
      5          6           0       -4.502731   -0.007516   -0.221555
      6          6           0       -4.932341    1.226414    0.275841
      7          1           0       -4.352176    3.106595    1.161642
      8          1           0       -1.926528    2.557446    1.171732
      9          1           0       -1.142725    0.349239    0.283159
     10          1           0       -5.195435   -0.741246   -0.615534
     11          1           0       -5.992457    1.463404    0.270108
     12          7           0       -2.670104   -1.588888   -0.726205
     13          8           0       -3.521757   -2.364421   -1.155008
     14          8           0       -1.461409   -1.810032   -0.698123
     15          6           0        3.669438    2.306136   -0.962354
     16          6           0        4.592772    1.263819   -1.094830
     17          6           0        4.350737    0.021206   -0.501636
     18          6           0        3.169798   -0.145033    0.220194
     19          6           0        2.230463    0.874006    0.370196
     20          6           0        2.493304    2.108251   -0.231553
     21          1           0        3.865538    3.268176   -1.426484
     22          1           0        5.507018    1.414639   -1.661799
     23          1           0        5.048440   -0.802881   -0.588300
     24          1           0        1.327993    0.693528    0.941504
     25          1           0        1.774436    2.915929   -0.127005
     26          7           0        2.902553   -1.456103    0.852711
     27          8           0        1.854635   -1.577121    1.483472
     28          8           0        3.746064   -2.337876    0.705739
 ---------------------------------------------------------------------

 SCF Done:  E(RHF) =  -868.335602190     A.U. after   16 cycles
 E2 =    -0.2600780427D+01 EUMP2 =    -0.87093638261675D+03

 The electronic state is 1-A.
 Alpha  occ. eigenvalues --  -20.60538 -20.60519 -20.60489 -20.60482 -15.85576
 Alpha  occ. eigenvalues --  -15.85564 -11.31211 -11.31195 -11.27920 -11.27859
 Alpha  occ. eigenvalues --  -11.27773 -11.27750 -11.27594 -11.27577 -11.26962
 Alpha  occ. eigenvalues --  -11.26938 -11.26831 -11.26829  -1.59589  -1.59561
 Alpha  occ. eigenvalues --   -1.39134  -1.39112  -1.19402  -1.19393  -1.08741
 Alpha  occ. eigenvalues --   -1.08732  -1.04883  -1.04840  -0.95549  -0.95518
 Alpha  occ. eigenvalues --   -0.86268  -0.86211  -0.82400  -0.82351  -0.77455
 Alpha  occ. eigenvalues --   -0.77312  -0.71815  -0.71759  -0.70920  -0.70871
 Alpha  occ. eigenvalues --   -0.70607  -0.70429  -0.65068  -0.65043  -0.64962
 Alpha  occ. eigenvalues --   -0.64805  -0.62412  -0.62034  -0.55383  -0.55292
 Alpha  occ. eigenvalues --   -0.53157  -0.53145  -0.53073  -0.52845  -0.48578
 Alpha  occ. eigenvalues --   -0.48561  -0.48551  -0.48501  -0.44502  -0.44429
 Alpha  occ. eigenvalues --   -0.37376  -0.37358  -0.36488  -0.36440
 Alpha virt. eigenvalues --    0.05164   0.05182   0.11125   0.11203   0.16621
 Alpha virt. eigenvalues --    0.16640   0.19069   0.22174   0.24918   0.27145
 Alpha virt. eigenvalues --    0.28020   0.29544   0.30378   0.31440   0.31751

 Mulliken charges:
               1
     1  C   -0.170802
     2  C   -0.219403
     3  C   -0.174823
     4  C    0.159509
     5  C   -0.169692
     6  C   -0.218655
     7  H    0.224836
     8  H    0.215852
     9  H    0.278966
    10  H    0.276771
    11  H    0.223808
    12  N    0.486654
    13  O   -0.461319
    14  O   -0.452936
    15  C   -0.170925
    16  C   -0.217591
    17  C   -0.169694
    18  C    0.162799
    19  C   -0.172784
    20  C   -0.217609
    21  H    0.225119
    22  H    0.224280
    23  H    0.277441
    24  H    0.270331
    25  H    0.216769
    26  N    0.488960
    27  O   -0.456522
    28  O   -0.459341
 Sum of Mulliken charges =  -0.00000

 Dipole moment (field-independent basis, Debye):
    X=             -0.6144    Y=              8.9357    Z=             -0.4444  Tot=              8.9678
 Quadrupole moment (field-independent basis, Debye-Ang):
   XX=            -79.6827   YY=           -109.2108   ZZ=           -107.3003
   XY=              0.1133   XZ=            -13.2775   YZ=              0.7731

 Normal termination of Gaussian 16 at Thu May  6 08:06:37 2021.
