 Gaussian 16, Revision A.03,
 Gaussian 16:  EM64L-G16RevA.03 25-Dec-2016

 -------------
 #p 6-31g* mp2
 -------------

 ------------------------------------------------------
 Input file generated by CHIRIPA (05-May-2021 14:51:07)
 ------------------------------------------------------
 Symbolic Z-matrix:
 Charge =  0 Multiplicity = 1

                         Standard orientation:
 ---------------------------------------------------------------------
 Center     Atomic      Atomic             Coordinates (Angstroms)
 Number     Number       Type             X           Y           Z
 ---------------------------------------------------------------------
      1          6           0        2.594198   -0.665524    0.462702
      2          6           0        2.161690   -1.902396   -0.325377
      3          6           0        1.921723   -3.119106    0.568954
      4          1           0        3.510574   -0.897263    1.022611
      5          1           0        1.823806   -0.426951    1.209009
      6          1           0        2.932023   -2.137746   -1.070906
      7          1           0        1.246344   -1.667627   -0.883625
      8          1           0        1.138113   -2.908437    1.303920
      9          1           0        2.833370   -3.381227    1.115575
     10          1           0        1.613420   -3.991975   -0.014920
     11          6           0        2.837915    0.559020   -0.417538
     12          6           0        3.270423    1.795893    0.370541
     13          6           0        3.510390    3.012602   -0.523790
     14          1           0        3.608307    0.320447   -1.163845
     15          1           0        1.921539    0.790759   -0.977446
     16          1           0        4.185769    1.561123    0.928789
     17          1           0        2.500090    2.031242    1.116070
     18          1           0        2.598743    3.274723   -1.070410
     19          1           0        4.294000    2.801933   -1.258755
     20          1           0        3.818693    3.885471    0.060084
     21          6           0       -2.391284   -0.590647    0.229109
     22          6           0       -2.638449   -1.791678   -0.684357
     23          6           0       -1.982437   -3.072409   -0.167472
     24          1           0       -1.308921   -0.433724    0.333074
     25          1           0       -2.772012   -0.818832    1.234283
     26          1           0       -2.258614   -1.560769   -1.687861
     27          1           0       -3.720352   -1.945643   -0.786312
     28          1           0       -2.368673   -3.330000    0.824027
     29          1           0       -0.898629   -2.942938   -0.082645
     30          1           0       -2.171793   -3.918336   -0.835614
     31          6           0       -3.040829    0.697151   -0.274274
     32          6           0       -2.793664    1.898181    0.639192
     33          6           0       -3.449676    3.178913    0.122308
     34          1           0       -2.660102    0.925335   -1.279447
     35          1           0       -4.123193    0.540227   -0.378239
     36          1           0       -1.711761    2.052147    0.741148
     37          1           0       -3.173500    1.667273    1.642697
     38          1           0       -4.533485    3.049443    0.037480
     39          1           0       -3.063441    3.436504   -0.869192
     40          1           0       -3.260321    4.024840    0.790449
 ---------------------------------------------------------------------

 SCF Done:  E(RHF) =  -470.732905266     A.U. after   11 cycles
 E2 =    -0.1583804698D+01 EUMP2 =    -0.47231670996450D+03

 The electronic state is 1-A.
 Alpha  occ. eigenvalues --  -11.21671 -11.21647 -11.21645 -11.21603 -11.21464
 Alpha  occ. eigenvalues --  -11.21450 -11.21405 -11.21390 -11.21107 -11.21104
 Alpha  occ. eigenvalues --  -11.21087 -11.20971  -1.08504  -1.08449  -1.03620
 Alpha  occ. eigenvalues --   -1.03511  -0.96084  -0.95940  -0.87102  -0.86951
 Alpha  occ. eigenvalues --   -0.79662  -0.79591  -0.78300  -0.78281  -0.65305
 Alpha  occ. eigenvalues --   -0.64943  -0.61269  -0.60710  -0.59397  -0.59353
 Alpha  occ. eigenvalues --   -0.57661  -0.57593  -0.55586  -0.55020  -0.52754
 Alpha  occ. eigenvalues --   -0.52660  -0.52448  -0.52381  -0.50126  -0.49742
 Alpha  occ. eigenvalues --   -0.48009  -0.47855  -0.46689  -0.46620  -0.45963
 Alpha  occ. eigenvalues --   -0.45783  -0.45760  -0.45634  -0.43845  -0.43794
 Alpha virt. eigenvalues --    0.19348   0.22960   0.23625   0.25116   0.25650
 Alpha virt. eigenvalues --    0.26773   0.26871   0.27718   0.29058   0.29754
 Alpha virt. eigenvalues --    0.30660   0.31090   0.31602   0.31727   0.32208

 Mulliken charges:
               1
     1  C   -0.299142
     2  C   -0.304040
     3  C   -0.480452
     4  H    0.150231
     5  H    0.150425
     6  H    0.152776
     7  H    0.153667
     8  H    0.157045
     9  H    0.157015
    10  H    0.161675
    11  C   -0.298431
    12  C   -0.299743
    13  C   -0.475708
    14  H    0.149839
    15  H    0.149020
    16  H    0.152212
    17  H    0.151941
    18  H    0.155054
    19  H    0.155293
    20  H    0.160507
    21  C   -0.300801
    22  C   -0.298989
    23  C   -0.486372
    24  H    0.150176
    25  H    0.149752
    26  H    0.151328
    27  H    0.151948
    28  H    0.154445
    29  H    0.169327
    30  H    0.159707
    31  C   -0.298168
    32  C   -0.299568
    33  C   -0.475721
    34  H    0.149392
    35  H    0.150093
    36  H    0.151190
    37  H    0.152102
    38  H    0.155376
    39  H    0.155192
    40  H    0.160408
 Sum of Mulliken charges =  -0.00000

 Dipole moment (field-independent basis, Debye):
    X=              0.0336    Y=             -0.0140    Z=              0.0124  Tot=              0.0384
 Quadrupole moment (field-independent basis, Debye-Ang):
   XX=            -83.2430   YY=            -86.5368   ZZ=            -84.8316
   XY=              0.0434   XZ=             -0.5578   YZ=              0.6279

 Normal termination of Gaussian 16 at Thu May  6 02:03:38 2021.
