 Gaussian 16, Revision A.03,
 Gaussian 16:  EM64L-G16RevA.03 25-Dec-2016

 -------------
 #p 6-31g* mp2
 -------------

 ------------------------------------------------------
 Input file generated by CHIRIPA (05-May-2021 14:51:13)
 ------------------------------------------------------
 Symbolic Z-matrix:
 Charge =  0 Multiplicity = 1

                         Standard orientation:
 ---------------------------------------------------------------------
 Center     Atomic      Atomic             Coordinates (Angstroms)
 Number     Number       Type             X           Y           Z
 ---------------------------------------------------------------------
      1          6           0       -2.131083   -0.410589   -0.749854
      2          6           0       -2.692063   -1.804237   -1.034517
      3          6           0       -1.651848   -2.748181   -1.638435
      4          1           0       -1.742233    0.018885   -1.683285
      5          1           0       -1.275208   -0.499996   -0.066569
      6          1           0       -3.547487   -1.712103   -1.715969
      7          1           0       -3.079796   -2.230366   -0.100336
      8          1           0       -0.801669   -2.869699   -0.959444
      9          1           0       -1.272017   -2.348492   -2.584256
     10          1           0       -2.074170   -3.738777   -1.833945
     11          6           0       -3.159067    0.544509   -0.145898
     12          6           0       -2.598087    1.938157    0.138764
     13          6           0       -3.638301    2.882101    0.742683
     14          1           0       -4.014942    0.633916   -0.829184
     15          1           0       -3.547916    0.115035    0.787533
     16          1           0       -2.210354    2.364286   -0.795416
     17          1           0       -1.742663    1.846023    0.820216
     18          1           0       -4.018132    2.482412    1.688504
     19          1           0       -4.488481    3.003619    0.063691
     20          1           0       -3.215979    3.872697    0.938193
     21          6           0        3.340902    0.052314    0.156277
     22          6           0        3.372897    1.151564   -0.906083
     23          6           0        4.771803    1.378493   -1.479984
     24          1           0        4.033452    0.315060    0.967624
     25          1           0        3.714325   -0.883213   -0.282743
     26          1           0        2.998225    2.084404   -0.465574
     27          1           0        2.680047    0.886264   -1.714904
     28          1           0        5.150732    0.462566   -1.944841
     29          1           0        5.470718    1.667514   -0.688413
     30          1           0        4.771676    2.168427   -2.237521
     31          6           0        1.949247   -0.186234    0.739475
     32          6           0        1.917252   -1.285484    1.801835
     33          6           0        0.518347   -1.512413    2.375737
     34          1           0        1.575824    0.749294    1.178496
     35          1           0        1.256698   -0.448981   -0.071872
     36          1           0        2.610102   -1.020183    2.610656
     37          1           0        2.291925   -2.218323    1.361327
     38          1           0       -0.180569   -1.801435    1.584165
     39          1           0        0.139417   -0.596486    2.840592
     40          1           0        0.518473   -2.302347    3.133274
 ---------------------------------------------------------------------

 SCF Done:  E(RHF) =  -470.732769505     A.U. after   11 cycles
 E2 =    -0.1584286522D+01 EUMP2 =    -0.47231705602651D+03

 The electronic state is 1-A.
 Alpha  occ. eigenvalues --  -11.21654 -11.21604 -11.21593 -11.21563 -11.21411
 Alpha  occ. eigenvalues --  -11.21352 -11.21350 -11.21276 -11.21157 -11.21130
 Alpha  occ. eigenvalues --  -11.21066 -11.21046  -1.08473  -1.08388  -1.03577
 Alpha  occ. eigenvalues --   -1.03514  -0.96016  -0.95972  -0.87035  -0.86990
 Alpha  occ. eigenvalues --   -0.79665  -0.79559  -0.78417  -0.78066  -0.65214
 Alpha  occ. eigenvalues --   -0.64940  -0.61111  -0.60789  -0.59406  -0.59316
 Alpha  occ. eigenvalues --   -0.57625  -0.57582  -0.55310  -0.55263  -0.52711
 Alpha  occ. eigenvalues --   -0.52670  -0.52447  -0.52404  -0.49983  -0.49915
 Alpha  occ. eigenvalues --   -0.48093  -0.47858  -0.46846  -0.46515  -0.46222
 Alpha  occ. eigenvalues --   -0.45748  -0.45701  -0.45014  -0.43808  -0.43764
 Alpha virt. eigenvalues --    0.19997   0.23064   0.23369   0.24270   0.26248
 Alpha virt. eigenvalues --    0.26529   0.26683   0.27779   0.28194   0.29984
 Alpha virt. eigenvalues --    0.30238   0.31123   0.31573   0.31859   0.32133

 Mulliken charges:
               1
     1  C   -0.309731
     2  C   -0.299513
     3  C   -0.478552
     4  H    0.148760
     5  H    0.162226
     6  H    0.152205
     7  H    0.152107
     8  H    0.155735
     9  H    0.155243
    10  H    0.160898
    11  C   -0.297480
    12  C   -0.300166
    13  C   -0.475738
    14  H    0.149210
    15  H    0.149705
    16  H    0.151902
    17  H    0.152512
    18  H    0.155142
    19  H    0.155127
    20  H    0.159993
    21  C   -0.298004
    22  C   -0.299668
    23  C   -0.475748
    24  H    0.149576
    25  H    0.149626
    26  H    0.152030
    27  H    0.152321
    28  H    0.155205
    29  H    0.155117
    30  H    0.160240
    31  C   -0.303917
    32  C   -0.299583
    33  C   -0.482174
    34  H    0.149373
    35  H    0.155406
    36  H    0.152284
    37  H    0.151978
    38  H    0.160343
    39  H    0.154931
    40  H    0.161080
 Sum of Mulliken charges =  -0.00000

 Dipole moment (field-independent basis, Debye):
    X=              0.0165    Y=             -0.0048    Z=              0.0055  Tot=              0.0180
 Quadrupole moment (field-independent basis, Debye-Ang):
   XX=            -86.0514   YY=            -84.9593   ZZ=            -83.8377
   XY=              0.3106   XZ=              1.1327   YZ=              0.0058

 Normal termination of Gaussian 16 at Wed May  5 21:36:58 2021.
