 Gaussian 16, Revision A.03,
 Gaussian 16:  EM64L-G16RevA.03 25-Dec-2016

 -------------
 #p 6-31g* mp2
 -------------

 ------------------------------------------------------
 Input file generated by CHIRIPA (05-May-2021 14:57:21)
 ------------------------------------------------------
 Symbolic Z-matrix:
 Charge =  0 Multiplicity = 1

                         Standard orientation:
 ---------------------------------------------------------------------
 Center     Atomic      Atomic             Coordinates (Angstroms)
 Number     Number       Type             X           Y           Z
 ---------------------------------------------------------------------
      1          6           0        1.967224   -0.753978   -0.682881
      2          6           0        2.341129    0.581896   -0.862205
      3          6           0        3.612714    1.020567   -0.481171
      4          6           0        4.489197    0.092263    0.078578
      5          6           0        4.146165   -1.245246    0.270119
      6          6           0        2.869345   -1.661685   -0.118287
      7          1           0        0.977393   -1.086113   -0.981740
      8          1           0        1.642594    1.289047   -1.300420
      9          1           0        3.928206    2.048981   -0.608637
     10          1           0        4.864253   -1.926845    0.709653
     11          1           0        2.581695   -2.699748    0.022170
     12          7           0        5.838138    0.544897    0.485863
     13          8           0        6.591954   -0.292632    0.976723
     14          8           0        6.116079    1.728629    0.306521
     15          6           0       -6.444482    0.984332    0.775923
     16          6           0       -5.496323    1.787223    0.133365
     17          6           0       -4.286336    1.242744   -0.307110
     18          6           0       -4.056352   -0.114533   -0.087573
     19          6           0       -4.981164   -0.940447    0.549514
     20          6           0       -6.184335   -0.374547    0.981584
     21          1           0       -7.381781    1.415616    1.114830
     22          1           0       -5.695656    2.842860   -0.027707
     23          1           0       -3.534778    1.841399   -0.807301
     24          1           0       -4.753995   -1.989451    0.695818
     25          1           0       -6.918850   -1.000486    1.480315
     26          7           0       -2.779001   -0.702288   -0.549435
     27          8           0       -2.600418   -1.900843   -0.343982
     28          8           0       -1.980583    0.046713   -1.108150
 ---------------------------------------------------------------------

 SCF Done:  E(RHF) =  -868.341425333     A.U. after   16 cycles
 E2 =    -0.2598147873D+01 EUMP2 =    -0.87093957320559D+03

 The electronic state is 1-A.
 Alpha  occ. eigenvalues --  -20.62020 -20.62012 -20.59971 -20.59966 -15.87009
 Alpha  occ. eigenvalues --  -15.85018 -11.32016 -11.30131 -11.28544 -11.28528
 Alpha  occ. eigenvalues --  -11.28206 -11.27467 -11.27456 -11.26706 -11.26693
 Alpha  occ. eigenvalues --  -11.26091 -11.25561 -11.25514  -1.61062  -1.59054
 Alpha  occ. eigenvalues --   -1.40625  -1.38615  -1.20150  -1.18262  -1.09613
 Alpha  occ. eigenvalues --   -1.07643  -1.05497  -1.03644  -0.96510  -0.94527
 Alpha  occ. eigenvalues --   -0.86912  -0.85013  -0.83357  -0.81393  -0.78443
 Alpha  occ. eigenvalues --   -0.76525  -0.73252  -0.72343  -0.71252  -0.71239
 Alpha  occ. eigenvalues --   -0.70377  -0.69204  -0.65806  -0.65495  -0.63882
 Alpha  occ. eigenvalues --   -0.63607  -0.62849  -0.61010  -0.56011  -0.53932
 Alpha  occ. eigenvalues --   -0.53839  -0.53582  -0.51978  -0.51705  -0.50013
 Alpha  occ. eigenvalues --   -0.49979  -0.48011  -0.47969  -0.46103  -0.44079
 Alpha  occ. eigenvalues --   -0.38104  -0.37082  -0.36145  -0.35283
 Alpha virt. eigenvalues --    0.04065   0.06021   0.10579   0.12398   0.15638
 Alpha virt. eigenvalues --    0.17607   0.20752   0.22804   0.26691   0.27606
 Alpha virt. eigenvalues --    0.28441   0.29804   0.30421   0.31819   0.32633

 Mulliken charges:
               1
     1  C   -0.177445
     2  C   -0.221627
     3  C   -0.172946
     4  C    0.156617
     5  C   -0.172324
     6  C   -0.220905
     7  H    0.251061
     8  H    0.226400
     9  H    0.271151
    10  H    0.271736
    11  H    0.222967
    12  N    0.488375
    13  O   -0.463482
    14  O   -0.463825
    15  C   -0.169383
    16  C   -0.218423
    17  C   -0.170052
    18  C    0.157987
    19  C   -0.170115
    20  C   -0.218499
    21  H    0.228575
    22  H    0.225912
    23  H    0.274684
    24  H    0.276336
    25  H    0.226037
    26  N    0.490257
    27  O   -0.460106
    28  O   -0.468964
 Sum of Mulliken charges =  -0.00000

 Dipole moment (field-independent basis, Debye):
    X=            -10.0018    Y=              0.4280    Z=              0.1757  Tot=             10.0125
 Quadrupole moment (field-independent basis, Debye-Ang):
   XX=           -111.9124   YY=            -97.4483   ZZ=           -105.7670
   XY=            -15.6873   XZ=            -13.8844   YZ=             -4.0322

 Normal termination of Gaussian 16 at Thu May  6 06:29:42 2021.
