 Gaussian 16, Revision A.03,
 Gaussian 16:  EM64L-G16RevA.03 25-Dec-2016

 -------------
 #p 6-31g* mp2
 -------------

 ------------------------------------------------------
 Input file generated by CHIRIPA (05-May-2021 14:53:17)
 ------------------------------------------------------
 Symbolic Z-matrix:
 Charge =  0 Multiplicity = 1

                         Standard orientation:
 ---------------------------------------------------------------------
 Center     Atomic      Atomic             Coordinates (Angstroms)
 Number     Number       Type             X           Y           Z
 ---------------------------------------------------------------------
      1          6           0       -3.987935   -0.010863    0.248744
      2          6           0       -5.309778    0.385261   -0.409891
      3          6           0       -6.207205    1.208951    0.514206
      4          1           0       -4.198024   -0.582381    1.163170
      5          1           0       -3.456249    0.897844    0.563317
      6          1           0       -5.838176   -0.523868   -0.724370
      7          1           0       -5.096516    0.955739   -1.322957
      8          1           0       -5.703181    2.132040    0.818291
      9          1           0       -6.449055    0.644027    1.420280
     10          1           0       -7.146728    1.481292    0.023301
     11          6           0       -3.079940   -0.834697   -0.662613
     12          6           0       -1.758096   -1.230821   -0.003978
     13          6           0       -0.860670   -2.054512   -0.928074
     14          1           0       -3.611626   -1.743405   -0.977185
     15          1           0       -2.869851   -0.263179   -1.577038
     16          1           0       -1.971359   -1.801299    0.909089
     17          1           0       -1.229699   -0.321693    0.310502
     18          1           0       -0.618820   -1.489588   -1.834148
     19          1           0       -1.364693   -2.977601   -1.232160
     20          1           0        0.078853   -2.326852   -0.437169
     21          6           0        2.450384    2.803139   -0.231478
     22          6           0        3.365152    2.080838   -1.004784
     23          6           0        3.545408    0.710314   -0.795692
     24          6           0        2.790907    0.091231    0.199675
     25          6           0        1.871743    0.783509    0.986555
     26          6           0        1.707908    2.153315    0.759976
     27          1           0        2.316735    3.867516   -0.400698
     28          1           0        3.943133    2.582877   -1.775458
     29          1           0        4.246746    0.126983   -1.379874
     30          1           0        1.309963    0.255419    1.747437
     31          1           0        0.996770    2.711732    1.362054
     32          7           0        2.973044   -1.359301    0.430288
     33          8           0        2.296188   -1.881383    1.313425
     34          8           0        3.789212   -1.946678   -0.276461
 ---------------------------------------------------------------------

 SCF Done:  E(RHF) =  -669.536299738     A.U. after   15 cycles
 E2 =    -0.2092120621D+01 EUMP2 =    -0.67162842035895D+03

 The electronic state is 1-A.
 Alpha  occ. eigenvalues --  -20.60932 -20.60925 -15.85948 -11.31268 -11.27834
 Alpha  occ. eigenvalues --  -11.27830 -11.27574 -11.26847 -11.26837 -11.21647
 Alpha  occ. eigenvalues --  -11.21406 -11.21363 -11.21243 -11.21162 -11.20496
 Alpha  occ. eigenvalues --   -1.59987  -1.39543  -1.19440  -1.08844  -1.08351
 Alpha  occ. eigenvalues --   -1.04838  -1.03387  -0.95825  -0.95683  -0.86838
 Alpha  occ. eigenvalues --   -0.86235  -0.82522  -0.79471  -0.78170  -0.77573
 Alpha  occ. eigenvalues --   -0.72175  -0.71310  -0.70548  -0.65097  -0.64995
 Alpha  occ. eigenvalues --   -0.64835  -0.62188  -0.60794  -0.59193  -0.57418
 Alpha  occ. eigenvalues --   -0.55344  -0.55126  -0.53159  -0.52927  -0.52480
 Alpha  occ. eigenvalues --   -0.52244  -0.49783  -0.48940  -0.48933  -0.47779
 Alpha  occ. eigenvalues --   -0.46526  -0.45705  -0.45641  -0.44942  -0.43596
 Alpha  occ. eigenvalues --   -0.37414  -0.36423
 Alpha virt. eigenvalues --    0.04911   0.11172   0.16384   0.21141   0.22918
 Alpha virt. eigenvalues --    0.24310   0.26262   0.27020   0.27675   0.28015
 Alpha virt. eigenvalues --    0.28625   0.30750   0.31432   0.31730   0.32197

 Mulliken charges:
               1
     1  C   -0.297241
     2  C   -0.299428
     3  C   -0.475418
     4  H    0.150484
     5  H    0.144411
     6  H    0.153160
     7  H    0.151019
     8  H    0.152992
     9  H    0.155762
    10  H    0.160333
    11  C   -0.297792
    12  C   -0.298361
    13  C   -0.485780
    14  H    0.150884
    15  H    0.147949
    16  H    0.154938
    17  H    0.142666
    18  H    0.150083
    19  H    0.155551
    20  H    0.177177
    21  C   -0.170505
    22  C   -0.218528
    23  C   -0.170672
    24  C    0.158483
    25  C   -0.169855
    26  C   -0.219732
    27  H    0.225918
    28  H    0.223776
    29  H    0.275870
    30  H    0.277266
    31  H    0.223967
    32  N    0.487651
    33  O   -0.458988
    34  O   -0.458039
 Sum of Mulliken charges =  -0.00000

 Dipole moment (field-independent basis, Debye):
    X=             -0.4857    Y=              5.0313    Z=             -0.7935  Tot=              5.1166
 Quadrupole moment (field-independent basis, Debye-Ang):
   XX=            -96.8242   YY=            -93.7881   ZZ=            -93.0873
   XY=             15.1888   XZ=             -5.1340   YZ=              0.3516

 Normal termination of Gaussian 16 at Thu May  6 06:00:00 2021.
