 Gaussian 16, Revision A.03,
 Gaussian 16:  EM64L-G16RevA.03 25-Dec-2016

 -------------
 #p 6-31g* mp2
 -------------

 ------------------------------------------------------
 Input file generated by CHIRIPA (05-May-2021 14:55:21)
 ------------------------------------------------------
 Symbolic Z-matrix:
 Charge =  0 Multiplicity = 1

                         Standard orientation:
 ---------------------------------------------------------------------
 Center     Atomic      Atomic             Coordinates (Angstroms)
 Number     Number       Type             X           Y           Z
 ---------------------------------------------------------------------
      1          6           0        2.172394   -2.170053   -0.711931
      2          6           0        1.392597   -1.008931   -0.696669
      3          6           0        1.974169    0.233419   -0.426687
      4          6           0        3.344584    0.278249   -0.175204
      5          6           0        4.148179   -0.860812   -0.183258
      6          6           0        3.545276   -2.092425   -0.455628
      7          1           0        1.712330   -3.130970   -0.922587
      8          1           0        0.326161   -1.066211   -0.895358
      9          1           0        1.394004    1.148022   -0.408562
     10          1           0        5.208743   -0.772026    0.018583
     11          1           0        4.153342   -2.992522   -0.466819
     12          7           0        3.971559    1.587786    0.111878
     13          8           0        5.181018    1.600531    0.330245
     14          8           0        3.241652    2.576660    0.113089
     15          6           0       -4.672992   -0.056908   -0.270268
     16          6           0       -5.807236    0.930213    0.007340
     17          6           0       -6.848025    0.964840   -1.112192
     18          1           0       -4.185724    0.211276   -1.217681
     19          1           0       -5.096298   -1.061263   -0.409832
     20          1           0       -5.381791    1.932165    0.147709
     21          1           0       -6.291738    0.659762    0.954298
     22          1           0       -7.299666   -0.023038   -1.249004
     23          1           0       -6.384550    1.256595   -2.060175
     24          1           0       -7.649713    1.677006   -0.893159
     25          6           0       -3.624610   -0.102892    0.839915
     26          6           0       -2.490366   -1.090013    0.562307
     27          6           0       -1.449577   -1.124640    1.681841
     28          1           0       -3.201305    0.901463    0.979480
     29          1           0       -4.111878   -0.371076    1.787329
     30          1           0       -2.005864   -0.819562   -0.384651
     31          1           0       -2.915811   -2.091966    0.421938
     32          1           0       -1.913052   -1.416396    2.629823
     33          1           0       -0.997935   -0.136762    1.818651
     34          1           0       -0.647888   -1.836807    1.462808
 ---------------------------------------------------------------------

 SCF Done:  E(RHF) =  -669.534950938     A.U. after   15 cycles
 E2 =    -0.2092268498D+01 EUMP2 =    -0.67162721943670D+03

 The electronic state is 1-A.
 Alpha  occ. eigenvalues --  -20.60749 -20.60744 -15.85801 -11.31166 -11.27717
 Alpha  occ. eigenvalues --  -11.27710 -11.27457 -11.26750 -11.26690 -11.22539
 Alpha  occ. eigenvalues --  -11.22028 -11.21992 -11.21891 -11.21785 -11.21393
 Alpha  occ. eigenvalues --   -1.59824  -1.39378  -1.19330  -1.09048  -1.08727
 Alpha  occ. eigenvalues --   -1.04739  -1.04134  -0.96555  -0.95564  -0.87566
 Alpha  occ. eigenvalues --   -0.86129  -0.82395  -0.80226  -0.78836  -0.77446
 Alpha  occ. eigenvalues --   -0.72020  -0.71146  -0.70439  -0.65733  -0.64981
 Alpha  occ. eigenvalues --   -0.64752  -0.62208  -0.61431  -0.59919  -0.58166
 Alpha  occ. eigenvalues --   -0.55836  -0.55218  -0.53373  -0.53058  -0.52936
 Alpha  occ. eigenvalues --   -0.52693  -0.50487  -0.48780  -0.48775  -0.48526
 Alpha  occ. eigenvalues --   -0.47267  -0.46374  -0.46277  -0.44784  -0.44380
 Alpha  occ. eigenvalues --   -0.37303  -0.36298
 Alpha virt. eigenvalues --    0.05072   0.11242   0.16539   0.19892   0.22661
 Alpha virt. eigenvalues --    0.23956   0.25484   0.26464   0.27189   0.27915
 Alpha virt. eigenvalues --    0.28872   0.29935   0.30971   0.31139   0.32066

 Mulliken charges:
               1
     1  C   -0.174877
     2  C   -0.219335
     3  C   -0.174459
     4  C    0.158858
     5  C   -0.171372
     6  C   -0.217979
     7  H    0.225912
     8  H    0.233783
     9  H    0.274851
    10  H    0.275441
    11  H    0.223291
    12  N    0.488125
    13  O   -0.460462
    14  O   -0.460626
    15  C   -0.298786
    16  C   -0.300329
    17  C   -0.476080
    18  H    0.148731
    19  H    0.149788
    20  H    0.153687
    21  H    0.153051
    22  H    0.155220
    23  H    0.155524
    24  H    0.162062
    25  C   -0.297863
    26  C   -0.305897
    27  C   -0.478691
    28  H    0.152015
    29  H    0.153022
    30  H    0.142569
    31  H    0.153941
    32  H    0.159977
    33  H    0.158199
    34  H    0.158710
 Sum of Mulliken charges =  -0.00000

 Dipole moment (field-independent basis, Debye):
    X=             -2.3620    Y=             -4.5936    Z=             -0.9313  Tot=              5.2485
 Quadrupole moment (field-independent basis, Debye-Ang):
   XX=           -105.4513   YY=            -96.3332   ZZ=            -95.3967
   XY=            -18.1041   XZ=             -3.5570   YZ=              0.0087

 Normal termination of Gaussian 16 at Thu May  6 12:29:51 2021.
