 Gaussian 16, Revision A.03,
 Gaussian 16:  EM64L-G16RevA.03 25-Dec-2016

 -------------
 #p 6-31g* mp2
 -------------

 ------------------------------------------------------
 Input file generated by CHIRIPA (05-May-2021 14:53:16)
 ------------------------------------------------------
 Symbolic Z-matrix:
 Charge =  0 Multiplicity = 1

                         Standard orientation:
 ---------------------------------------------------------------------
 Center     Atomic      Atomic             Coordinates (Angstroms)
 Number     Number       Type             X           Y           Z
 ---------------------------------------------------------------------
      1          6           0        5.958895    0.056612   -0.366990
      2          6           0        7.296461   -0.093329    0.358559
      3          6           0        8.472608    0.453853   -0.450801
      4          1           0        6.013336   -0.462077   -1.333914
      5          1           0        5.788354    1.118706   -0.591195
      6          1           0        7.463778   -1.154670    0.582557
      7          1           0        7.238765    0.425615    1.323952
      8          1           0        8.332327    1.518811   -0.662432
      9          1           0        8.558618   -0.070453   -1.408040
     10          1           0        9.418855    0.336504    0.086513
     11          6           0        4.773515   -0.485834    0.429473
     12          6           0        3.435949   -0.335893   -0.296075
     13          6           0        2.259802   -0.883075    0.513285
     14          1           0        4.944056   -1.547927    0.653679
     15          1           0        4.719074    0.032855    1.396398
     16          1           0        3.493644   -0.854837   -1.261469
     17          1           0        3.268632    0.725449   -0.520073
     18          1           0        2.173792   -0.358768    1.470523
     19          1           0        2.400083   -1.948033    0.724915
     20          1           0        1.313555   -0.765726   -0.024029
     21          6           0       -1.992977    1.398641    0.091311
     22          6           0       -3.196445    2.110460    0.130064
     23          6           0       -4.420962    1.438831    0.066647
     24          6           0       -4.404974    0.048658   -0.035595
     25          6           0       -3.222651   -0.688722   -0.076471
     26          6           0       -2.009892    0.003781   -0.011651
     27          1           0       -1.046310    1.928487    0.141119
     28          1           0       -3.186346    3.193767    0.209994
     29          1           0       -5.367400    1.965034    0.094648
     30          1           0       -3.264722   -1.768188   -0.156481
     31          1           0       -1.076810   -0.551632   -0.041956
     32          7           0       -5.695093   -0.673414   -0.103474
     33          8           0       -5.653988   -1.898520   -0.193269
     34          8           0       -6.722963   -0.000596   -0.065597
 ---------------------------------------------------------------------

 SCF Done:  E(RHF) =  -669.535512793     A.U. after   15 cycles
 E2 =    -0.2090668353D+01 EUMP2 =    -0.67162618114616D+03

 The electronic state is 1-A.
 Alpha  occ. eigenvalues --  -20.60723 -20.60718 -15.85776 -11.31135 -11.27706
 Alpha  occ. eigenvalues --  -11.27696 -11.27442 -11.26723 -11.26687 -11.22498
 Alpha  occ. eigenvalues --  -11.22236 -11.22085 -11.22067 -11.21936 -11.21466
 Alpha  occ. eigenvalues --   -1.59799  -1.39353  -1.19307  -1.09101  -1.08703
 Alpha  occ. eigenvalues --   -1.04710  -1.04239  -0.96704  -0.95539  -0.87728
 Alpha  occ. eigenvalues --   -0.86108  -0.82372  -0.80306  -0.78873  -0.77422
 Alpha  occ. eigenvalues --   -0.71995  -0.71122  -0.70415  -0.65725  -0.64959
 Alpha  occ. eigenvalues --   -0.64748  -0.62096  -0.61625  -0.60096  -0.58294
 Alpha  occ. eigenvalues --   -0.55973  -0.55213  -0.53518  -0.53147  -0.53039
 Alpha  occ. eigenvalues --   -0.52681  -0.50627  -0.48760  -0.48750  -0.48610
 Alpha  occ. eigenvalues --   -0.47320  -0.46425  -0.46325  -0.44760  -0.44487
 Alpha  occ. eigenvalues --   -0.37288  -0.36312
 Alpha virt. eigenvalues --    0.05115   0.11338   0.16609   0.19771   0.22422
 Alpha virt. eigenvalues --    0.23793   0.25603   0.26019   0.26874   0.27880
 Alpha virt. eigenvalues --    0.28641   0.29941   0.30751   0.31417   0.31977

 Mulliken charges:
               1
     1  C   -0.298690
     2  C   -0.300133
     3  C   -0.476036
     4  H    0.150861
     5  H    0.149478
     6  H    0.152975
     7  H    0.152353
     8  H    0.155343
     9  H    0.155911
    10  H    0.161681
    11  C   -0.299417
    12  C   -0.298651
    13  C   -0.481683
    14  H    0.151621
    15  H    0.150344
    16  H    0.154845
    17  H    0.150361
    18  H    0.157348
    19  H    0.161114
    20  H    0.151580
    21  C   -0.173268
    22  C   -0.218587
    23  C   -0.171338
    24  C    0.159010
    25  C   -0.172577
    26  C   -0.225393
    27  H    0.225530
    28  H    0.223138
    29  H    0.275394
    30  H    0.276166
    31  H    0.233877
    32  N    0.487951
    33  O   -0.460454
    34  O   -0.460653
 Sum of Mulliken charges =  -0.00000

 Dipole moment (field-independent basis, Debye):
    X=              4.7973    Y=              2.5200    Z=              0.2574  Tot=              5.4250
 Quadrupole moment (field-independent basis, Debye-Ang):
   XX=           -134.0941   YY=            -90.0667   ZZ=            -95.6863
   XY=            -14.0986   XZ=             -0.9863   YZ=              0.7802

 Normal termination of Gaussian 16 at Thu May  6 12:12:03 2021.
