 Gaussian 16, Revision A.03,
 Gaussian 16:  EM64L-G16RevA.03 25-Dec-2016

 -------------
 #p 6-31g* mp2
 -------------

 ------------------------------------------------------
 Input file generated by CHIRIPA (05-May-2021 14:53:11)
 ------------------------------------------------------
 Symbolic Z-matrix:
 Charge =  0 Multiplicity = 1

                         Standard orientation:
 ---------------------------------------------------------------------
 Center     Atomic      Atomic             Coordinates (Angstroms)
 Number     Number       Type             X           Y           Z
 ---------------------------------------------------------------------
      1          6           0        3.610199    0.025092    0.257175
      2          6           0        3.180911   -1.441454    0.202969
      3          6           0        4.184579   -2.376554    0.878270
      4          1           0        4.592636    0.130946   -0.222989
      5          1           0        3.741521    0.322913    1.306676
      6          1           0        3.049097   -1.736029   -0.846062
      7          1           0        2.199294   -1.543797    0.683148
      8          1           0        4.309631   -2.110614    1.932897
      9          1           0        5.164262   -2.303939    0.394999
     10          1           0        3.857951   -3.419933    0.827918
     11          6           0        2.617021    0.972247   -0.413811
     12          6           0        3.046309    2.438794   -0.359605
     13          6           0        2.042641    3.373894   -1.034906
     14          1           0        2.485699    0.674426   -1.463312
     15          1           0        1.634584    0.866394    0.066352
     16          1           0        4.027926    2.541136   -0.839784
     17          1           0        3.178123    2.733369    0.689426
     18          1           0        1.062958    3.301278   -0.551635
     19          1           0        1.917589    3.107953   -2.089534
     20          1           0        2.369269    4.417272   -0.984555
     21          6           0       -3.685111    1.609456    0.956028
     22          6           0       -2.489803    1.204849    1.559395
     23          6           0       -1.787353    0.098696    1.072016
     24          6           0       -2.311411   -0.582846   -0.025324
     25          6           0       -3.499730   -0.204286   -0.648125
     26          6           0       -4.185378    0.904839   -0.143867
     27          1           0       -4.224264    2.469896    1.341192
     28          1           0       -2.098918    1.750169    2.413725
     29          1           0       -0.859693   -0.236208    1.520018
     30          1           0       -3.864404   -0.767853   -1.498315
     31          1           0       -5.113430    1.216790   -0.614452
     32          7           0       -1.576652   -1.755454   -0.550225
     33          8           0       -2.059436   -2.339038   -1.518206
     34          8           0       -0.531878   -2.068756    0.016278
 ---------------------------------------------------------------------

 SCF Done:  E(RHF) =  -669.535940903     A.U. after   15 cycles
 E2 =    -0.2091866704D+01 EUMP2 =    -0.67162780760734D+03

 The electronic state is 1-A.
 Alpha  occ. eigenvalues --  -20.60891 -20.60884 -15.85928 -11.31281 -11.27857
 Alpha  occ. eigenvalues --  -11.27837 -11.27581 -11.26865 -11.26851 -11.21431
 Alpha  occ. eigenvalues --  -11.21034 -11.21028 -11.20821 -11.20543 -11.20266
 Alpha  occ. eigenvalues --   -1.59951  -1.39508  -1.19450  -1.08846  -1.07951
 Alpha  occ. eigenvalues --   -1.04853  -1.03014  -0.95685  -0.95521  -0.86542
 Alpha  occ. eigenvalues --   -0.86250  -0.82523  -0.79099  -0.77754  -0.77497
 Alpha  occ. eigenvalues --   -0.72153  -0.71264  -0.70558  -0.65109  -0.64862
 Alpha  occ. eigenvalues --   -0.64592  -0.62201  -0.60419  -0.58903  -0.57082
 Alpha  occ. eigenvalues --   -0.55352  -0.54838  -0.53177  -0.52945  -0.52213
 Alpha  occ. eigenvalues --   -0.51929  -0.49499  -0.48917  -0.48909  -0.47398
 Alpha  occ. eigenvalues --   -0.46151  -0.45363  -0.45160  -0.44717  -0.43283
 Alpha  occ. eigenvalues --   -0.37423  -0.36450
 Alpha virt. eigenvalues --    0.04935   0.11138   0.16437   0.20754   0.23034
 Alpha virt. eigenvalues --    0.24689   0.25594   0.27480   0.27600   0.28319
 Alpha virt. eigenvalues --    0.29221   0.30943   0.31731   0.32036   0.32567

 Mulliken charges:
               1
     1  C   -0.298840
     2  C   -0.304644
     3  C   -0.475994
     4  H    0.147581
     5  H    0.144053
     6  H    0.155674
     7  H    0.169954
     8  H    0.149927
     9  H    0.151169
    10  H    0.163860
    11  C   -0.296530
    12  C   -0.299180
    13  C   -0.474942
    14  H    0.152645
    15  H    0.144288
    16  H    0.152684
    17  H    0.148602
    18  H    0.151145
    19  H    0.156628
    20  H    0.158579
    21  C   -0.170571
    22  C   -0.218924
    23  C   -0.171244
    24  C    0.158488
    25  C   -0.170813
    26  C   -0.218252
    27  H    0.226062
    28  H    0.223851
    29  H    0.275871
    30  H    0.275882
    31  H    0.223892
    32  N    0.492855
    33  O   -0.459472
    34  O   -0.464280
 Sum of Mulliken charges =  -0.00000

 Dipole moment (field-independent basis, Debye):
    X=             -2.7701    Y=              3.9817    Z=              1.7707  Tot=              5.1636
 Quadrupole moment (field-independent basis, Debye-Ang):
   XX=            -81.3717   YY=           -101.0077   ZZ=            -92.2239
   XY=             -7.5262   XZ=             -2.4089   YZ=             -0.0798

 Normal termination of Gaussian 16 at Wed May  5 15:27:38 2021.
