 Gaussian 16, Revision A.03,
 Gaussian 16:  EM64L-G16RevA.03 25-Dec-2016

 -------------
 #p 6-31g* mp2
 -------------

 ------------------------------------------------------
 Input file generated by CHIRIPA (05-May-2021 14:51:07)
 ------------------------------------------------------
 Symbolic Z-matrix:
 Charge =  0 Multiplicity = 1

                         Standard orientation:
 ---------------------------------------------------------------------
 Center     Atomic      Atomic             Coordinates (Angstroms)
 Number     Number       Type             X           Y           Z
 ---------------------------------------------------------------------
      1          6           0       -4.752697    0.052255    0.177121
      2          6           0       -6.066658   -0.641031   -0.184601
      3          6           0       -7.295729    0.156454    0.252660
      4          1           0       -4.718412    0.215425    1.263005
      5          1           0       -4.730516    1.046930   -0.289275
      6          1           0       -6.085751   -1.634650    0.281202
      7          1           0       -6.097734   -0.802742   -1.269728
      8          1           0       -7.304100    1.142710   -0.222554
      9          1           0       -7.292049    0.306075    1.337188
     10          1           0       -8.224054   -0.357369   -0.015778
     11          6           0       -3.514958   -0.732775   -0.253527
     12          6           0       -2.200996   -0.039488    0.108195
     13          6           0       -0.971925   -0.836973   -0.329066
     14          1           0       -3.537138   -1.727450    0.212869
     15          1           0       -3.549242   -0.895944   -1.339411
     16          1           0       -2.169920    0.122222    1.193322
     17          1           0       -2.181903    0.954131   -0.357608
     18          1           0       -0.975605   -0.986595   -1.413594
     19          1           0       -0.963554   -1.823230    0.146148
     20          1           0       -0.043600   -0.323151   -0.060628
     21          6           0        3.958785    1.024090   -0.253634
     22          6           0        2.746555    1.675506    0.412806
     23          6           0        2.408807    3.043001   -0.181904
     24          1           0        4.825619    1.691998   -0.156469
     25          1           0        3.764294    0.918962   -1.329979
     26          1           0        2.942721    1.778110    1.487798
     27          1           0        1.882552    1.005883    0.314209
     28          1           0        2.186937    2.954289   -1.250316
     29          1           0        3.253129    3.730903   -0.070060
     30          1           0        1.539137    3.490643    0.309166
     31          6           0        4.308870   -0.343570    0.330040
     32          6           0        5.521098   -0.994987   -0.336400
     33          6           0        5.858848   -2.362480    0.258310
     34          1           0        4.503361   -0.238442    1.406384
     35          1           0        3.442036   -1.011479    0.232874
     36          1           0        6.385102   -0.325365   -0.237803
     37          1           0        5.324933   -1.097591   -1.411391
     38          1           0        5.014525   -3.050384    0.146466
     39          1           0        6.080717   -2.273770    1.326723
     40          1           0        6.728518   -2.810123   -0.232761
 ---------------------------------------------------------------------

 SCF Done:  E(RHF) =  -470.733379771     A.U. after   11 cycles
 E2 =    -0.1582475244D+01 EUMP2 =    -0.47231585501552D+03

 The electronic state is 1-A.
 Alpha  occ. eigenvalues --  -11.21624 -11.21610 -11.21600 -11.21584 -11.21419
 Alpha  occ. eigenvalues --  -11.21391 -11.21359 -11.21331 -11.21105 -11.21077
 Alpha  occ. eigenvalues --  -11.21071 -11.21052  -1.08446  -1.08419  -1.03554
 Alpha  occ. eigenvalues --   -1.03515  -0.96003  -0.95965  -0.87027  -0.86976
 Alpha  occ. eigenvalues --   -0.79635  -0.79563  -0.78257  -0.78233  -0.65075
 Alpha  occ. eigenvalues --   -0.65059  -0.60959  -0.60934  -0.59440  -0.59266
 Alpha  occ. eigenvalues --   -0.57650  -0.57538  -0.55285  -0.55251  -0.52749
 Alpha  occ. eigenvalues --   -0.52644  -0.52443  -0.52373  -0.49939  -0.49904
 Alpha  occ. eigenvalues --   -0.48017  -0.47829  -0.46641  -0.46604  -0.45807
 Alpha  occ. eigenvalues --   -0.45766  -0.45722  -0.45693  -0.43795  -0.43739
 Alpha virt. eigenvalues --    0.21264   0.23018   0.23701   0.24820   0.25884
 Alpha virt. eigenvalues --    0.26643   0.27113   0.27485   0.28019   0.28716
 Alpha virt. eigenvalues --    0.30535   0.31390   0.31681   0.31830   0.32064

 Mulliken charges:
               1
     1  C   -0.298274
     2  C   -0.299665
     3  C   -0.475719
     4  H    0.149710
     5  H    0.149592
     6  H    0.151946
     7  H    0.151943
     8  H    0.155213
     9  H    0.155205
    10  H    0.160279
    11  C   -0.298543
    12  C   -0.298724
    13  C   -0.485042
    14  H    0.149583
    15  H    0.149637
    16  H    0.152155
    17  H    0.152148
    18  H    0.155158
    19  H    0.155499
    20  H    0.167838
    21  C   -0.297494
    22  C   -0.309614
    23  C   -0.475168
    24  H    0.149666
    25  H    0.149599
    26  H    0.152123
    27  H    0.160280
    28  H    0.155155
    29  H    0.155280
    30  H    0.160272
    31  C   -0.298881
    32  C   -0.299637
    33  C   -0.475750
    34  H    0.149426
    35  H    0.150249
    36  H    0.151862
    37  H    0.152025
    38  H    0.155406
    39  H    0.155089
    40  H    0.160174
 Sum of Mulliken charges =  -0.00000

 Dipole moment (field-independent basis, Debye):
    X=             -0.0068    Y=              0.0010    Z=              0.0013  Tot=              0.0070
 Quadrupole moment (field-independent basis, Debye-Ang):
   XX=            -85.5171   YY=            -85.5727   ZZ=            -83.6576
   XY=              1.0877   XZ=              0.5505   YZ=              0.0690

 Normal termination of Gaussian 16 at Thu May  6 05:14:52 2021.
