 Gaussian 16, Revision A.03,
 Gaussian 16:  EM64L-G16RevA.03 25-Dec-2016

 -------------
 #p 6-31g* mp2
 -------------

 ------------------------------------------------------
 Input file generated by CHIRIPA (05-May-2021 14:51:13)
 ------------------------------------------------------
 Symbolic Z-matrix:
 Charge =  0 Multiplicity = 1

                         Standard orientation:
 ---------------------------------------------------------------------
 Center     Atomic      Atomic             Coordinates (Angstroms)
 Number     Number       Type             X           Y           Z
 ---------------------------------------------------------------------
      1          6           0       -3.419049   -0.414299   -0.576009
      2          6           0       -4.704239    0.362036   -0.286917
      3          6           0       -5.420419    0.814706   -1.559698
      4          1           0       -2.745052    0.214404   -1.173843
      5          1           0       -3.659364   -1.290504   -1.193996
      6          1           0       -4.461768    1.235757    0.331498
      7          1           0       -5.375176   -0.268518    0.310461
      8          1           0       -5.690718   -0.047980   -2.177203
      9          1           0       -4.772120    1.464842   -2.156047
     10          1           0       -6.336486    1.367734   -1.329828
     11          6           0       -2.691741   -0.873580    0.686453
     12          6           0       -1.406551   -1.649915    0.397361
     13          6           0       -0.690371   -2.102584    1.670142
     14          1           0       -2.451426    0.002625    1.304441
     15          1           0       -3.365738   -1.502283    1.284287
     16          1           0       -0.735614   -1.019361   -0.200017
     17          1           0       -1.649022   -2.523636   -0.221054
     18          1           0       -1.338670   -2.752721    2.266491
     19          1           0       -0.420072   -1.239899    2.287647
     20          1           0        0.225696   -2.655613    1.440272
     21          6           0        2.791295    1.349925    0.068340
     22          6           0        1.450222    1.375815    0.802396
     23          6           0        0.934897    2.795219    1.042243
     24          1           0        3.531280    1.916855    0.649681
     25          1           0        2.684820    1.869822   -0.893827
     26          1           0        1.558837    0.854819    1.762282
     27          1           0        0.713392    0.808597    0.219335
     28          1           0        0.798310    3.321206    0.091831
     29          1           0        1.648560    3.367690    1.643544
     30          1           0       -0.024855    2.790346    1.568279
     31          6           0        3.319496   -0.062046   -0.178784
     32          6           0        4.660568   -0.087937   -0.912840
     33          6           0        5.175893   -1.507341   -1.152687
     34          1           0        3.425970   -0.581943    0.783383
     35          1           0        2.579510   -0.628976   -0.760125
     36          1           0        5.397398    0.479283   -0.329779
     37          1           0        4.551952    0.433060   -1.872726
     38          1           0        4.462230   -2.079812   -1.753989
     39          1           0        5.312481   -2.033327   -0.202275
     40          1           0        6.135644   -1.502467   -1.678723
 ---------------------------------------------------------------------

 SCF Done:  E(RHF) =  -470.733178308     A.U. after   11 cycles
 E2 =    -0.1583481403D+01 EUMP2 =    -0.47231665971111D+03

 The electronic state is 1-A.
 Alpha  occ. eigenvalues --  -11.21627 -11.21618 -11.21601 -11.21566 -11.21433
 Alpha  occ. eigenvalues --  -11.21402 -11.21373 -11.21341 -11.21131 -11.21081
 Alpha  occ. eigenvalues --  -11.21072 -11.21008  -1.08473  -1.08409  -1.03584
 Alpha  occ. eigenvalues --   -1.03491  -0.96011  -0.95958  -0.87027  -0.86975
 Alpha  occ. eigenvalues --   -0.79648  -0.79563  -0.78303  -0.78212  -0.65192
 Alpha  occ. eigenvalues --   -0.64971  -0.61074  -0.60830  -0.59365  -0.59322
 Alpha  occ. eigenvalues --   -0.57625  -0.57563  -0.55298  -0.55249  -0.52707
 Alpha  occ. eigenvalues --   -0.52647  -0.52449  -0.52369  -0.50014  -0.49857
 Alpha  occ. eigenvalues --   -0.48073  -0.47784  -0.46916  -0.46446  -0.45972
 Alpha  occ. eigenvalues --   -0.45785  -0.45704  -0.45399  -0.43814  -0.43767
 Alpha virt. eigenvalues --    0.20322   0.23100   0.23833   0.24542   0.25268
 Alpha virt. eigenvalues --    0.26370   0.26628   0.28023   0.28454   0.29300
 Alpha virt. eigenvalues --    0.30487   0.31064   0.31592   0.31784   0.32201

 Mulliken charges:
               1
     1  C   -0.298151
     2  C   -0.299627
     3  C   -0.475706
     4  H    0.148990
     5  H    0.149546
     6  H    0.151988
     7  H    0.151983
     8  H    0.155141
     9  H    0.155141
    10  H    0.160289
    11  C   -0.298883
    12  C   -0.303697
    13  C   -0.476844
    14  H    0.149775
    15  H    0.149813
    16  H    0.155151
    17  H    0.151894
    18  H    0.154486
    19  H    0.157405
    20  H    0.160483
    21  C   -0.297934
    22  C   -0.307794
    23  C   -0.475505
    24  H    0.149806
    25  H    0.149303
    26  H    0.153421
    27  H    0.159057
    28  H    0.155088
    29  H    0.155575
    30  H    0.159562
    31  C   -0.299043
    32  C   -0.299665
    33  C   -0.475762
    34  H    0.150029
    35  H    0.149886
    36  H    0.152063
    37  H    0.151921
    38  H    0.155255
    39  H    0.155245
    40  H    0.160318
 Sum of Mulliken charges =  -0.00000

 Dipole moment (field-independent basis, Debye):
    X=              0.0222    Y=              0.0021    Z=              0.0071  Tot=              0.0234
 Quadrupole moment (field-independent basis, Debye-Ang):
   XX=            -84.8970   YY=            -85.1536   ZZ=            -84.7191
   XY=              1.2116   XZ=              0.0687   YZ=              0.1241

 Normal termination of Gaussian 16 at Wed May  5 21:36:13 2021.
