 Gaussian 16, Revision A.03,
 Gaussian 16:  EM64L-G16RevA.03 25-Dec-2016

 -------------
 #p 6-31g* mp2
 -------------

 ------------------------------------------------------
 Input file generated by CHIRIPA (05-May-2021 14:57:23)
 ------------------------------------------------------
 Symbolic Z-matrix:
 Charge =  0 Multiplicity = 1

                         Standard orientation:
 ---------------------------------------------------------------------
 Center     Atomic      Atomic             Coordinates (Angstroms)
 Number     Number       Type             X           Y           Z
 ---------------------------------------------------------------------
      1          6           0       -1.655583   -0.389535    1.366318
      2          6           0       -2.770654   -1.112613    1.802545
      3          6           0       -3.999673   -0.985430    1.148415
      4          6           0       -4.078276   -0.122299    0.056574
      5          6           0       -2.985371    0.611608   -0.401932
      6          6           0       -1.766304    0.468755    0.267410
      7          1           0       -0.704717   -0.494421    1.880371
      8          1           0       -2.687600   -1.779912    2.655692
      9          1           0       -4.878867   -1.533313    1.465054
     10          1           0       -3.099069    1.269012   -1.255343
     11          1           0       -0.901996    1.031554   -0.073578
     12          7           0       -5.374115    0.020639   -0.643976
     13          8           0       -5.417272    0.787637   -1.603396
     14          8           0       -6.322100   -0.637031   -0.220381
     15          6           0        2.670614    2.325490    0.263014
     16          6           0        2.181899    1.440377   -0.703554
     17          6           0        2.835403    0.229897   -0.952989
     18          6           0        3.980146   -0.064862   -0.214092
     19          6           0        4.491658    0.796249    0.755512
     20          6           0        3.821904    2.001174    0.988184
     21          1           0        2.156646    3.263663    0.450270
     22          1           0        1.288007    1.689622   -1.268247
     23          1           0        2.478757   -0.473637   -1.695460
     24          1           0        5.384990    0.520144    1.302451
     25          1           0        4.203721    2.686645    1.739442
     26          7           0        4.680583   -1.343403   -0.469285
     27          8           0        5.687199   -1.579745    0.195172
     28          8           0        4.209706   -2.084970   -1.328928
 ---------------------------------------------------------------------

 SCF Done:  E(RHF) =  -868.337183665     A.U. after   16 cycles
 E2 =    -0.2599799823D+01 EUMP2 =    -0.87093698348771D+03

 The electronic state is 1-A.
 Alpha  occ. eigenvalues --  -20.61457 -20.61452 -20.61071 -20.61061 -15.86519
 Alpha  occ. eigenvalues --  -15.86126 -11.32046 -11.31548 -11.28684 -11.28630
 Alpha  occ. eigenvalues --  -11.28449 -11.28183 -11.28105 -11.27872 -11.27773
 Alpha  occ. eigenvalues --  -11.27637 -11.27223 -11.27103  -1.60532  -1.60143
 Alpha  occ. eigenvalues --   -1.40080  -1.39695  -1.20259  -1.19734  -1.09621
 Alpha  occ. eigenvalues --   -1.09111  -1.05688  -1.05160  -0.96417  -0.95934
 Alpha  occ. eigenvalues --   -0.87083  -0.86546  -0.83248  -0.82778  -0.78272
 Alpha  occ. eigenvalues --   -0.77817  -0.72730  -0.72342  -0.71863  -0.71467
 Alpha  occ. eigenvalues --   -0.71339  -0.70823  -0.65904  -0.65788  -0.65388
 Alpha  occ. eigenvalues --   -0.65121  -0.63042  -0.62480  -0.56170  -0.55627
 Alpha  occ. eigenvalues --   -0.54030  -0.53812  -0.53470  -0.53192  -0.49504
 Alpha  occ. eigenvalues --   -0.49476  -0.49106  -0.49094  -0.45448  -0.45089
 Alpha  occ. eigenvalues --   -0.38254  -0.37707  -0.37297  -0.36766
 Alpha virt. eigenvalues --    0.04281   0.04737   0.10182   0.10881   0.15665
 Alpha virt. eigenvalues --    0.16211   0.19139   0.21740   0.24927   0.27458
 Alpha virt. eigenvalues --    0.27929   0.28261   0.29684   0.31227   0.31916

 Mulliken charges:
               1
     1  C   -0.171627
     2  C   -0.218270
     3  C   -0.170068
     4  C    0.159045
     5  C   -0.171677
     6  C   -0.221303
     7  H    0.228542
     8  H    0.225687
     9  H    0.277176
    10  H    0.273949
    11  H    0.216633
    12  N    0.488146
    13  O   -0.460789
    14  O   -0.458889
    15  C   -0.172395
    16  C   -0.225536
    17  C   -0.171192
    18  C    0.157864
    19  C   -0.169669
    20  C   -0.219170
    21  H    0.227844
    22  H    0.220359
    23  H    0.278936
    24  H    0.278453
    25  H    0.226605
    26  N    0.487888
    27  O   -0.458304
    28  O   -0.458241
 Sum of Mulliken charges =  -0.00000

 Dipole moment (field-independent basis, Debye):
    X=              2.2703    Y=              3.8942    Z=              3.4659  Tot=              5.6861
 Quadrupole moment (field-independent basis, Debye-Ang):
   XX=           -158.2154   YY=           -103.8445   ZZ=           -101.1702
   XY=             22.4187   XZ=             -4.5571   YZ=             -2.7910

 Normal termination of Gaussian 16 at Fri May  7 07:58:24 2021.
