 Gaussian 16, Revision A.03,
 Gaussian 16:  EM64L-G16RevA.03 25-Dec-2016

 -------------
 #p 6-31g* mp2
 -------------

 ------------------------------------------------------
 Input file generated by CHIRIPA (05-May-2021 14:53:13)
 ------------------------------------------------------
 Symbolic Z-matrix:
 Charge =  0 Multiplicity = 1

                         Standard orientation:
 ---------------------------------------------------------------------
 Center     Atomic      Atomic             Coordinates (Angstroms)
 Number     Number       Type             X           Y           Z
 ---------------------------------------------------------------------
      1          6           0        4.401422   -0.445579    0.491010
      2          6           0        3.102840   -0.654742   -0.288682
      3          6           0        2.009077   -1.315447    0.550929
      4          1           0        4.758498   -1.415604    0.863157
      5          1           0        4.194132    0.171686    1.376114
      6          1           0        3.312780   -1.270275   -1.172797
      7          1           0        2.748915    0.315869   -0.659179
      8          1           0        1.770823   -0.701300    1.425378
      9          1           0        2.337892   -2.296456    0.908842
     10          1           0        1.089609   -1.455500   -0.025980
     11          6           0        5.504411    0.213971   -0.334907
     12          6           0        6.802994    0.423134    0.444785
     13          6           0        7.896757    1.083839   -0.394826
     14          1           0        5.711702   -0.403293   -1.220011
     15          1           0        5.147335    1.183996   -0.707054
     16          1           0        7.156918   -0.547477    0.815282
     17          1           0        6.593053    1.038667    1.328900
     18          1           0        7.567942    2.064849   -0.752739
     19          1           0        8.135010    0.469692   -1.269275
     20          1           0        8.816224    1.223892    0.182083
     21          6           0       -3.233890   -2.344771   -0.238628
     22          6           0       -4.559196   -1.984785    0.026885
     23          6           0       -4.922744   -0.638580    0.127461
     24          6           0       -3.930911    0.325902   -0.043803
     25          6           0       -2.602030   -0.001036   -0.309276
     26          6           0       -2.261252   -1.353495   -0.405566
     27          1           0       -2.960321   -3.392964   -0.315093
     28          1           0       -5.316665   -2.752481    0.156988
     29          1           0       -5.941297   -0.331897    0.332186
     30          1           0       -1.869137    0.786803   -0.434156
     31          1           0       -1.231222   -1.630131   -0.611854
     32          7           0       -4.303731    1.754379    0.060404
     33          8           0       -3.411191    2.585042   -0.094543
     34          8           0       -5.481427    2.016308    0.295055
 ---------------------------------------------------------------------

 SCF Done:  E(RHF) =  -669.535457386     A.U. after   15 cycles
 E2 =    -0.2090690816D+01 EUMP2 =    -0.67162614820201D+03

 The electronic state is 1-A.
 Alpha  occ. eigenvalues --  -20.60737 -20.60732 -15.85791 -11.31149 -11.27720
 Alpha  occ. eigenvalues --  -11.27711 -11.27460 -11.26735 -11.26711 -11.22218
 Alpha  occ. eigenvalues --  -11.21955 -11.21848 -11.21825 -11.21689 -11.21257
 Alpha  occ. eigenvalues --   -1.59813  -1.39367  -1.19321  -1.08848  -1.08718
 Alpha  occ. eigenvalues --   -1.04725  -1.03990  -0.96455  -0.95554  -0.87478
 Alpha  occ. eigenvalues --   -0.86123  -0.82388  -0.80055  -0.78627  -0.77437
 Alpha  occ. eigenvalues --   -0.72009  -0.71136  -0.70431  -0.65470  -0.64974
 Alpha  occ. eigenvalues --   -0.64758  -0.62114  -0.61374  -0.59851  -0.58054
 Alpha  occ. eigenvalues --   -0.55721  -0.55230  -0.53319  -0.53048  -0.52927
 Alpha  occ. eigenvalues --   -0.52628  -0.50374  -0.48769  -0.48764  -0.48367
 Alpha  occ. eigenvalues --   -0.47067  -0.46178  -0.46077  -0.44774  -0.44241
 Alpha  occ. eigenvalues --   -0.37303  -0.36324
 Alpha virt. eigenvalues --    0.05099   0.11316   0.16575   0.19921   0.22622
 Alpha virt. eigenvalues --    0.23778   0.25760   0.26278   0.27139   0.28249
 Alpha virt. eigenvalues --    0.28573   0.29810   0.30991   0.31652   0.32251

 Mulliken charges:
               1
     1  C   -0.299298
     2  C   -0.299363
     3  C   -0.479693
     4  H    0.150049
     5  H    0.151626
     6  H    0.152246
     7  H    0.153739
     8  H    0.160576
     9  H    0.157901
    10  H    0.149358
    11  C   -0.298819
    12  C   -0.300067
    13  C   -0.476011
    14  H    0.149601
    15  H    0.151269
    16  H    0.151915
    17  H    0.153003
    18  H    0.156178
    19  H    0.155192
    20  H    0.161164
    21  C   -0.172246
    22  C   -0.218527
    23  C   -0.171093
    24  C    0.158553
    25  C   -0.173103
    26  C   -0.223467
    27  H    0.226062
    28  H    0.223244
    29  H    0.275460
    30  H    0.275509
    31  H    0.232084
    32  N    0.488151
    33  O   -0.460567
    34  O   -0.460626
 Sum of Mulliken charges =  -0.00000

 Dipole moment (field-independent basis, Debye):
    X=              1.4896    Y=             -5.0156    Z=             -0.3269  Tot=              5.2423
 Quadrupole moment (field-independent basis, Debye-Ang):
   XX=           -100.6047   YY=            -97.6886   ZZ=            -95.5698
   XY=             21.2111   XZ=              0.8039   YZ=              0.3085

 Normal termination of Gaussian 16 at Thu May  6 02:36:33 2021.
