 Gaussian 16, Revision A.03,
 Gaussian 16:  EM64L-G16RevA.03 25-Dec-2016

 -------------
 #p 6-31g* mp2
 -------------

 ------------------------------------------------------
 Input file generated by CHIRIPA (05-May-2021 14:53:13)
 ------------------------------------------------------
 Symbolic Z-matrix:
 Charge =  0 Multiplicity = 1

                         Standard orientation:
 ---------------------------------------------------------------------
 Center     Atomic      Atomic             Coordinates (Angstroms)
 Number     Number       Type             X           Y           Z
 ---------------------------------------------------------------------
      1          6           0       -2.781743    0.724702   -0.260382
      2          6           0       -3.144150    2.173283    0.068647
      3          6           0       -1.994369    3.145376   -0.197496
      4          1           0       -1.905149    0.429070    0.332180
      5          1           0       -2.482143    0.659623   -1.315559
      6          1           0       -3.444304    2.235358    1.122530
      7          1           0       -4.020100    2.465439   -0.524625
      8          1           0       -1.698529    3.112937   -1.251074
      9          1           0       -1.119462    2.881549    0.405441
     10          1           0       -2.275133    4.175169    0.044495
     11          6           0       -3.921019   -0.259035    0.000463
     12          6           0       -3.558612   -1.707616   -0.328567
     13          6           0       -4.708392   -2.679710   -0.062424
     14          1           0       -4.220619   -0.193957    1.055640
     15          1           0       -4.797613    0.036596   -0.592099
     16          1           0       -2.682662   -1.999772    0.264706
     17          1           0       -3.258457   -1.769692   -1.382450
     18          1           0       -5.583300   -2.415883   -0.665360
     19          1           0       -5.004233   -2.647270    0.991155
     20          1           0       -4.427629   -3.709502   -0.304415
     21          6           0        2.844083   -2.694158    0.042413
     22          6           0        3.719194   -1.894999   -0.700585
     23          6           0        3.603365   -0.501983   -0.675354
     24          6           0        2.596435    0.060975    0.107246
     25          6           0        1.709258   -0.708330    0.858496
     26          6           0        1.843672   -2.099322    0.818214
     27          1           0        2.941280   -3.775500    0.016967
     28          1           0        4.497069   -2.354210   -1.303975
     29          1           0        4.267361    0.140452   -1.240867
     30          1           0        0.943768   -0.221627    1.450581
     31          1           0        1.162635   -2.717470    1.396252
     32          7           0        2.463975    1.534627    0.141924
     33          8           0        1.568480    2.006162    0.839335
     34          8           0        3.258154    2.190238   -0.528964
 ---------------------------------------------------------------------

 SCF Done:  E(RHF) =  -669.536150533     A.U. after   15 cycles
 E2 =    -0.2091541988D+01 EUMP2 =    -0.67162769252133D+03

 The electronic state is 1-A.
 Alpha  occ. eigenvalues --  -20.60911 -20.60904 -15.85944 -11.31265 -11.27836
 Alpha  occ. eigenvalues --  -11.27825 -11.27564 -11.26839 -11.26829 -11.21735
 Alpha  occ. eigenvalues --  -11.21302 -11.21224 -11.21124 -11.21011 -11.19957
 Alpha  occ. eigenvalues --   -1.59966  -1.39524  -1.19433  -1.08836  -1.08229
 Alpha  occ. eigenvalues --   -1.04831  -1.03221  -0.95688  -0.95629  -0.86650
 Alpha  occ. eigenvalues --   -0.86231  -0.82517  -0.79330  -0.78003  -0.77561
 Alpha  occ. eigenvalues --   -0.72172  -0.71277  -0.70544  -0.65092  -0.64882
 Alpha  occ. eigenvalues --   -0.64825  -0.62182  -0.60617  -0.59093  -0.57242
 Alpha  occ. eigenvalues --   -0.55335  -0.54910  -0.53159  -0.52927  -0.52327
 Alpha  occ. eigenvalues --   -0.52043  -0.49587  -0.48929  -0.48909  -0.47613
 Alpha  occ. eigenvalues --   -0.46394  -0.45577  -0.45462  -0.44811  -0.43496
 Alpha  occ. eigenvalues --   -0.37407  -0.36428
 Alpha virt. eigenvalues --    0.04921   0.11193   0.16401   0.20650   0.22980
 Alpha virt. eigenvalues --    0.24398   0.25547   0.27244   0.27698   0.28480
 Alpha virt. eigenvalues --    0.29360   0.30147   0.31667   0.31886   0.32240

 Mulliken charges:
               1
     1  C   -0.296867
     2  C   -0.299633
     3  C   -0.485202
     4  H    0.145054
     5  H    0.149461
     6  H    0.149652
     7  H    0.148940
     8  H    0.152164
     9  H    0.180461
    10  H    0.157580
    11  C   -0.298195
    12  C   -0.297437
    13  C   -0.475456
    14  H    0.148717
    15  H    0.150598
    16  H    0.144149
    17  H    0.152479
    18  H    0.156783
    19  H    0.154905
    20  H    0.157958
    21  C   -0.170547
    22  C   -0.218482
    23  C   -0.170718
    24  C    0.158250
    25  C   -0.171070
    26  C   -0.218397
    27  H    0.225976
    28  H    0.223740
    29  H    0.275790
    30  H    0.276102
    31  H    0.223786
    32  N    0.490928
    33  O   -0.462786
    34  O   -0.458685
 Sum of Mulliken charges =  -0.00000

 Dipole moment (field-independent basis, Debye):
    X=              0.6516    Y=             -5.1152    Z=             -0.1273  Tot=              5.1581
 Quadrupole moment (field-independent basis, Debye-Ang):
   XX=            -90.3742   YY=            -96.5979   ZZ=            -92.4972
   XY=            -13.8674   XZ=             -2.7324   YZ=             -0.7719

 Normal termination of Gaussian 16 at Thu May  6 13:43:37 2021.
