 Gaussian 16, Revision A.03,
 Gaussian 16:  EM64L-G16RevA.03 25-Dec-2016

 -------------
 #p 6-31g* mp2
 -------------

 ------------------------------------------------------
 Input file generated by CHIRIPA (05-May-2021 14:55:25)
 ------------------------------------------------------
 Symbolic Z-matrix:
 Charge =  0 Multiplicity = 1

                         Standard orientation:
 ---------------------------------------------------------------------
 Center     Atomic      Atomic             Coordinates (Angstroms)
 Number     Number       Type             X           Y           Z
 ---------------------------------------------------------------------
      1          6           0       -3.272293    2.140527   -0.269159
      2          6           0       -1.946200    1.698452   -0.319832
      3          6           0       -1.645403    0.339339   -0.189900
      4          6           0       -2.700107   -0.554204   -0.009710
      5          6           0       -4.031496   -0.144694    0.045022
      6          6           0       -4.308881    1.219168   -0.087215
      7          1           0       -3.496866    3.198163   -0.370989
      8          1           0       -1.139145    2.411732   -0.461031
      9          1           0       -0.627759   -0.030202   -0.225383
     10          1           0       -4.814640   -0.879535    0.186835
     11          1           0       -5.339683    1.559628   -0.047469
     12          7           0       -2.394059   -1.995550    0.129063
     13          8           0       -3.341296   -2.762662    0.286917
     14          8           0       -1.212737   -2.330872    0.077351
     15          6           0        4.158171   -0.009601   -0.028349
     16          6           0        3.897311   -1.514520   -0.100173
     17          6           0        5.182306   -2.331205   -0.240203
     18          1           0        4.698308    0.305980   -0.931457
     19          1           0        4.821632    0.200299    0.822037
     20          1           0        3.233426   -1.721366   -0.949342
     21          1           0        3.357564   -1.826522    0.803123
     22          1           0        5.846117   -2.154134    0.612206
     23          1           0        5.721274   -2.048379   -1.150215
     24          1           0        4.972618   -3.404256   -0.289737
     25          6           0        2.883231    0.820233    0.111757
     26          6           0        3.144091    2.325152    0.183582
     27          6           0        1.859096    3.141838    0.323611
     28          1           0        2.219771    0.610332   -0.738629
     29          1           0        2.343094    0.504651    1.014866
     30          1           0        3.683838    2.637153   -0.719714
     31          1           0        3.807976    2.531997    1.032750
     32          1           0        1.320128    2.859012    1.233624
     33          1           0        1.195285    2.964765   -0.528798
     34          1           0        2.068784    4.214887    0.373146
 ---------------------------------------------------------------------

 SCF Done:  E(RHF) =  -669.535689034     A.U. after   15 cycles
 E2 =    -0.2091683970D+01 EUMP2 =    -0.67162737300446D+03

 The electronic state is 1-A.
 Alpha  occ. eigenvalues --  -20.60696 -20.60691 -15.85747 -11.31086 -11.27661
 Alpha  occ. eigenvalues --  -11.27618 -11.27387 -11.26676 -11.26596 -11.22192
 Alpha  occ. eigenvalues --  -11.22021 -11.21837 -11.21528 -11.21415 -11.20887
 Alpha  occ. eigenvalues --   -1.59773  -1.39326  -1.19254  -1.08729  -1.08655
 Alpha  occ. eigenvalues --   -1.04650  -1.03812  -0.96316  -0.95495  -0.87346
 Alpha  occ. eigenvalues --   -0.86047  -0.82329  -0.79924  -0.78470  -0.77367
 Alpha  occ. eigenvalues --   -0.71966  -0.71096  -0.70365  -0.65360  -0.64903
 Alpha  occ. eigenvalues --   -0.64670  -0.62030  -0.61191  -0.59709  -0.57883
 Alpha  occ. eigenvalues --   -0.55634  -0.55157  -0.53106  -0.52987  -0.52922
 Alpha  occ. eigenvalues --   -0.52429  -0.50265  -0.48730  -0.48722  -0.48198
 Alpha  occ. eigenvalues --   -0.46941  -0.46016  -0.45885  -0.44738  -0.44059
 Alpha  occ. eigenvalues --   -0.37241  -0.36252
 Alpha virt. eigenvalues --    0.05145   0.11388   0.16629   0.19839   0.22809
 Alpha virt. eigenvalues --    0.23957   0.25426   0.25810   0.26618   0.28534
 Alpha virt. eigenvalues --    0.29781   0.30162   0.31319   0.31716   0.32003

 Mulliken charges:
               1
     1  C   -0.172179
     2  C   -0.225423
     3  C   -0.177697
     4  C    0.158536
     5  C   -0.171037
     6  C   -0.218669
     7  H    0.225716
     8  H    0.233128
     9  H    0.280024
    10  H    0.275108
    11  H    0.222883
    12  N    0.487825
    13  O   -0.460933
    14  O   -0.460548
    15  C   -0.298564
    16  C   -0.300941
    17  C   -0.476386
    18  H    0.149614
    19  H    0.150303
    20  H    0.155737
    21  H    0.157308
    22  H    0.154139
    23  H    0.153778
    24  H    0.163904
    25  C   -0.302639
    26  C   -0.298738
    27  C   -0.482764
    28  H    0.146529
    29  H    0.152775
    30  H    0.154337
    31  H    0.155877
    32  H    0.157618
    33  H    0.147031
    34  H    0.164347
 Sum of Mulliken charges =  -0.00000

 Dipole moment (field-independent basis, Debye):
    X=             -0.8694    Y=              5.0250    Z=             -0.4346  Tot=              5.1181
 Quadrupole moment (field-independent basis, Debye-Ang):
   XX=            -84.4392   YY=           -101.1821   ZZ=            -94.5572
   XY=            -11.6358   XZ=              1.0863   YZ=              0.0587

 Normal termination of Gaussian 16 at Wed May  5 20:50:11 2021.
