 Gaussian 16, Revision A.03,
 Gaussian 16:  EM64L-G16RevA.03 25-Dec-2016

 -------------
 #p 6-31g* mp2
 -------------

 ------------------------------------------------------
 Input file generated by CHIRIPA (05-May-2021 14:51:10)
 ------------------------------------------------------
 Symbolic Z-matrix:
 Charge =  0 Multiplicity = 1

                         Standard orientation:
 ---------------------------------------------------------------------
 Center     Atomic      Atomic             Coordinates (Angstroms)
 Number     Number       Type             X           Y           Z
 ---------------------------------------------------------------------
      1          6           0        2.261996   -1.249178    0.422038
      2          6           0        0.897852   -0.782461    0.931226
      3          6           0        0.011977   -1.939648    1.393760
      4          1           0        2.114994   -1.954501   -0.407332
      5          1           0        2.772226   -1.806637    1.219722
      6          1           0        0.390925   -0.224861    0.133277
      7          1           0        1.048122   -0.078020    1.759355
      8          1           0        0.493576   -2.492320    2.206913
      9          1           0       -0.167356   -2.639995    0.571596
     10          1           0       -0.958280   -1.583445    1.753734
     11          6           0        3.158997   -0.103757   -0.043931
     12          6           0        4.523141   -0.570474   -0.553118
     13          6           0        5.409016    0.586713   -1.015653
     14          1           0        2.648766    0.453702   -0.841614
     15          1           0        3.305999    0.601566    0.785440
     16          1           0        4.372871   -1.274915   -1.381247
     17          1           0        5.030068   -1.128074    0.244831
     18          1           0        5.588349    1.287060   -0.193489
     19          1           0        4.927417    1.139385   -1.828805
     20          1           0        6.379273    0.230510   -1.375626
     21          6           0       -3.045598    0.225091   -0.706159
     22          6           0       -3.836175   -0.926530   -0.084274
     23          6           0       -4.500755   -1.820688   -1.131466
     24          1           0       -3.718510    0.827899   -1.331264
     25          1           0       -2.279467   -0.186047   -1.378025
     26          1           0       -4.599681   -0.513387    0.587282
     27          1           0       -3.161343   -1.526555    0.539575
     28          1           0       -3.749419   -2.260148   -1.795523
     29          1           0       -5.195929   -1.241224   -1.747546
     30          1           0       -5.060548   -2.637357   -0.665052
     31          6           0       -2.375395    1.127844    0.328052
     32          6           0       -1.584818    2.279465   -0.293834
     33          6           0       -0.920239    3.173623    0.753358
     34          1           0       -3.141526    1.538983    0.999917
     35          1           0       -1.702482    0.525037    0.953157
     36          1           0       -2.259649    2.879491   -0.917683
     37          1           0       -0.821311    1.866323   -0.965389
     38          1           0       -0.225063    2.594160    1.369438
     39          1           0       -1.671574    3.613083    1.417414
     40          1           0       -0.360445    3.990292    0.286945
 ---------------------------------------------------------------------

 SCF Done:  E(RHF) =  -470.731657136     A.U. after   11 cycles
 E2 =    -0.1585603972D+01 EUMP2 =    -0.47231726110774D+03

 The electronic state is 1-A.
 Alpha  occ. eigenvalues --  -11.21705 -11.21646 -11.21562 -11.21542 -11.21480
 Alpha  occ. eigenvalues --  -11.21417 -11.21349 -11.21235 -11.21180 -11.21101
 Alpha  occ. eigenvalues --  -11.21042 -11.21009  -1.08549  -1.08355  -1.03632
 Alpha  occ. eigenvalues --   -1.03476  -0.96088  -0.95914  -0.87086  -0.86948
 Alpha  occ. eigenvalues --   -0.79725  -0.79527  -0.78376  -0.78171  -0.65397
 Alpha  occ. eigenvalues --   -0.64892  -0.61021  -0.60877  -0.59427  -0.59299
 Alpha  occ. eigenvalues --   -0.57760  -0.57489  -0.55383  -0.55159  -0.52815
 Alpha  occ. eigenvalues --   -0.52619  -0.52504  -0.52328  -0.50095  -0.49803
 Alpha  occ. eigenvalues --   -0.48085  -0.47798  -0.46690  -0.46598  -0.45969
 Alpha  occ. eigenvalues --   -0.45817  -0.45623  -0.45477  -0.43844  -0.43724
 Alpha virt. eigenvalues --    0.20211   0.22955   0.23427   0.24161   0.25467
 Alpha virt. eigenvalues --    0.26295   0.26591   0.28002   0.28545   0.29704
 Alpha virt. eigenvalues --    0.30245   0.31296   0.31760   0.31985   0.32482

 Mulliken charges:
               1
     1  C   -0.297871
     2  C   -0.308316
     3  C   -0.482574
     4  H    0.149757
     5  H    0.149875
     6  H    0.159325
     7  H    0.152989
     8  H    0.156516
     9  H    0.155619
    10  H    0.165651
    11  C   -0.298516
    12  C   -0.299719
    13  C   -0.475760
    14  H    0.149410
    15  H    0.149914
    16  H    0.151997
    17  H    0.152102
    18  H    0.155369
    19  H    0.155306
    20  H    0.160407
    21  C   -0.297981
    22  C   -0.304913
    23  C   -0.475323
    24  H    0.149736
    25  H    0.148365
    26  H    0.151530
    27  H    0.157404
    28  H    0.154753
    29  H    0.155016
    30  H    0.160152
    31  C   -0.309234
    32  C   -0.299929
    33  C   -0.477413
    34  H    0.149444
    35  H    0.161902
    36  H    0.152063
    37  H    0.150874
    38  H    0.157368
    39  H    0.154813
    40  H    0.159892
 Sum of Mulliken charges =  -0.00000

 Dipole moment (field-independent basis, Debye):
    X=              0.0503    Y=             -0.0310    Z=              0.0317  Tot=              0.0671
 Quadrupole moment (field-independent basis, Debye-Ang):
   XX=            -84.9096   YY=            -85.5777   ZZ=            -84.4130
   XY=             -1.3583   XZ=              0.2371   YZ=             -0.1204

 Normal termination of Gaussian 16 at Wed May  5 23:03:01 2021.
