 Gaussian 16, Revision A.03,
 Gaussian 16:  EM64L-G16RevA.03 25-Dec-2016

 -------------
 #p 6-31g* mp2
 -------------

 ------------------------------------------------------
 Input file generated by CHIRIPA (05-May-2021 14:55:24)
 ------------------------------------------------------
 Symbolic Z-matrix:
 Charge =  0 Multiplicity = 1

                         Standard orientation:
 ---------------------------------------------------------------------
 Center     Atomic      Atomic             Coordinates (Angstroms)
 Number     Number       Type             X           Y           Z
 ---------------------------------------------------------------------
      1          6           0        5.096351    0.016719   -0.988627
      2          6           0        3.989199    0.675389   -1.533502
      3          6           0        2.730103    0.560340   -0.936854
      4          6           0        2.613673   -0.225112    0.208921
      5          6           0        3.697758   -0.893625    0.775614
      6          6           0        4.947359   -0.764309    0.162163
      7          1           0        6.070759    0.111633   -1.458643
      8          1           0        4.101947    1.282620   -2.427148
      9          1           0        1.856220    1.059440   -1.337660
     10          1           0        3.554165   -1.491835    1.667210
     11          1           0        5.805431   -1.276976    0.587524
     12          7           0        1.285750   -0.354462    0.849459
     13          8           0        1.209517   -1.052447    1.858241
     14          8           0        0.346302    0.244589    0.330602
     15          6           0       -4.224597   -0.190330   -0.277597
     16          6           0       -3.848906   -1.663726   -0.438671
     17          6           0       -5.057802   -2.553716   -0.728981
     18          1           0       -4.957565   -0.092102    0.534839
     19          1           0       -4.724376    0.155616   -1.192986
     20          1           0       -3.348747   -2.006416    0.476218
     21          1           0       -3.116602   -1.758434   -1.250691
     22          1           0       -5.554582   -2.239477   -1.652596
     23          1           0       -5.788045   -2.488868    0.084124
     24          1           0       -4.766466   -3.602790   -0.840462
     25          6           0       -3.026683    0.712042    0.013015
     26          6           0       -3.402373    2.185438    0.174089
     27          6           0       -2.193477    3.075429    0.464400
     28          1           0       -2.526903    0.366096    0.928404
     29          1           0       -2.293714    0.613815   -0.799421
     30          1           0       -4.134677    2.280147    0.986110
     31          1           0       -3.902533    2.528128   -0.740799
     32          1           0       -1.463234    3.010580   -0.348706
     33          1           0       -1.696698    2.761190    1.388015
     34          1           0       -2.484813    4.124503    0.575881
 ---------------------------------------------------------------------

 SCF Done:  E(RHF) =  -669.535502598     A.U. after   15 cycles
 E2 =    -0.2091900858D+01 EUMP2 =    -0.67162740345589D+03

 The electronic state is 1-A.
 Alpha  occ. eigenvalues --  -20.60944 -20.60934 -15.85969 -11.31299 -11.27866
 Alpha  occ. eigenvalues --  -11.27861 -11.27601 -11.26872 -11.26863 -11.20451
 Alpha  occ. eigenvalues --  -11.20325 -11.20188 -11.20117 -11.19831 -11.19600
 Alpha  occ. eigenvalues --   -1.60006  -1.39562  -1.19469  -1.08873  -1.07084
 Alpha  occ. eigenvalues --   -1.04866  -1.02331  -0.95715  -0.94768  -0.86267
 Alpha  occ. eigenvalues --   -0.85791  -0.82556  -0.78402  -0.77617  -0.76802
 Alpha  occ. eigenvalues --   -0.72171  -0.71317  -0.70578  -0.65124  -0.64870
 Alpha  occ. eigenvalues --   -0.63735  -0.62215  -0.59752  -0.58140  -0.56371
 Alpha  occ. eigenvalues --   -0.55370  -0.54063  -0.53197  -0.52959  -0.51544
 Alpha  occ. eigenvalues --   -0.51193  -0.48989  -0.48960  -0.48710  -0.46698
 Alpha  occ. eigenvalues --   -0.45441  -0.44979  -0.44313  -0.44215  -0.42529
 Alpha  occ. eigenvalues --   -0.37447  -0.36468
 Alpha virt. eigenvalues --    0.04918   0.11187   0.16404   0.21237   0.24059
 Alpha virt. eigenvalues --    0.25259   0.27075   0.27669   0.28258   0.29016
 Alpha virt. eigenvalues --    0.29202   0.30884   0.31954   0.32744   0.32924

 Mulliken charges:
               1
     1  C   -0.170609
     2  C   -0.218493
     3  C   -0.170582
     4  C    0.157532
     5  C   -0.170558
     6  C   -0.218565
     7  H    0.226017
     8  H    0.223843
     9  H    0.275240
    10  H    0.275816
    11  H    0.223818
    12  N    0.492942
    13  O   -0.459970
    14  O   -0.462117
    15  C   -0.298532
    16  C   -0.298012
    17  C   -0.474892
    18  H    0.145278
    19  H    0.142696
    20  H    0.157352
    21  H    0.149974
    22  H    0.151753
    23  H    0.153415
    24  H    0.157043
    25  C   -0.295570
    26  C   -0.300320
    27  C   -0.470725
    28  H    0.166877
    29  H    0.153322
    30  H    0.147183
    31  H    0.144356
    32  H    0.151944
    33  H    0.161638
    34  H    0.150907
 Sum of Mulliken charges =  -0.00000

 Dipole moment (field-independent basis, Debye):
    X=              5.0657    Y=              0.3596    Z=             -2.1349  Tot=              5.5090
 Quadrupole moment (field-independent basis, Debye-Ang):
   XX=            -72.2625   YY=            -95.3072   ZZ=            -92.7181
   XY=             -1.5835   XZ=             -4.2303   YZ=             -2.2727

 Normal termination of Gaussian 16 at Thu May  6 19:20:18 2021.
