 Gaussian 16, Revision A.03,
 Gaussian 16:  EM64L-G16RevA.03 25-Dec-2016

 -------------
 #p 6-31g* mp2
 -------------

 ------------------------------------------------------
 Input file generated by CHIRIPA (05-May-2021 14:55:21)
 ------------------------------------------------------
 Symbolic Z-matrix:
 Charge =  0 Multiplicity = 1

                         Standard orientation:
 ---------------------------------------------------------------------
 Center     Atomic      Atomic             Coordinates (Angstroms)
 Number     Number       Type             X           Y           Z
 ---------------------------------------------------------------------
      1          6           0        1.181403   -1.159614    2.407458
      2          6           0        0.612922   -1.861398    1.339352
      3          6           0        0.951412   -1.543670    0.020632
      4          6           0        1.865906   -0.513781   -0.194588
      5          6           0        2.449405    0.203811    0.848428
      6          6           0        2.096217   -0.131063    2.159025
      7          1           0        0.912747   -1.413093    3.428717
      8          1           0       -0.097816   -2.660657    1.529301
      9          1           0        0.526408   -2.070742   -0.824935
     10          1           0        3.154939    0.995565    0.627599
     11          1           0        2.539289    0.415651    2.986573
     12          7           0        2.232030   -0.168341   -1.586358
     13          8           0        3.040204    0.743203   -1.749391
     14          8           0        1.703892   -0.815670   -2.487841
     15          6           0       -1.738688    1.109681    0.290103
     16          6           0       -1.694324    2.592213   -0.081535
     17          6           0       -0.543701    3.337269    0.595778
     18          1           0       -1.829732    1.014175    1.380761
     19          1           0       -0.784060    0.640864    0.013892
     20          1           0       -2.649267    3.057791    0.194031
     21          1           0       -1.603568    2.684202   -1.171452
     22          1           0        0.418779    2.899471    0.311939
     23          1           0       -0.632862    3.275182    1.685180
     24          1           0       -0.530774    4.395344    0.316194
     25          6           0       -2.883558    0.351347   -0.379173
     26          6           0       -2.927922   -1.131185   -0.007534
     27          6           0       -4.078544   -1.876241   -0.684848
     28          1           0       -3.838186    0.820163   -0.102962
     29          1           0       -2.792514    0.446853   -1.469831
     30          1           0       -3.018678   -1.223174    1.082382
     31          1           0       -1.972979   -1.596763   -0.283101
     32          1           0       -3.989384   -1.814155   -1.774250
     33          1           0       -5.041025   -1.438443   -0.401009
     34          1           0       -4.091472   -2.934317   -0.405264
 ---------------------------------------------------------------------

 SCF Done:  E(RHF) =  -669.533409808     A.U. after   15 cycles
 E2 =    -0.2096550478D+01 EUMP2 =    -0.67162996028670D+03

 The electronic state is 1-A.
 Alpha  occ. eigenvalues --  -20.60869 -20.60864 -15.85919 -11.31258 -11.27851
 Alpha  occ. eigenvalues --  -11.27803 -11.27568 -11.26867 -11.26819 -11.21970
 Alpha  occ. eigenvalues --  -11.21516 -11.21478 -11.21351 -11.21264 -11.21044
 Alpha  occ. eigenvalues --   -1.59946  -1.39499  -1.19469  -1.08846  -1.08522
 Alpha  occ. eigenvalues --   -1.04863  -1.03654  -0.96082  -0.95686  -0.87108
 Alpha  occ. eigenvalues --   -0.86249  -0.82521  -0.79759  -0.78352  -0.77551
 Alpha  occ. eigenvalues --   -0.72136  -0.71283  -0.70562  -0.65220  -0.65079
 Alpha  occ. eigenvalues --   -0.64834  -0.62236  -0.61037  -0.59466  -0.57715
 Alpha  occ. eigenvalues --   -0.55394  -0.55338  -0.53399  -0.52938  -0.52757
 Alpha  occ. eigenvalues --   -0.52471  -0.50036  -0.48897  -0.48892  -0.48072
 Alpha  occ. eigenvalues --   -0.46803  -0.45824  -0.45676  -0.44894  -0.43876
 Alpha  occ. eigenvalues --   -0.37390  -0.36324
 Alpha virt. eigenvalues --    0.04920   0.11066   0.16344   0.20682   0.22938
 Alpha virt. eigenvalues --    0.23856   0.26002   0.26600   0.27721   0.28072
 Alpha virt. eigenvalues --    0.28593   0.30594   0.30765   0.31744   0.32257

 Mulliken charges:
               1
     1  C   -0.171876
     2  C   -0.207833
     3  C   -0.179422
     4  C    0.160420
     5  C   -0.172540
     6  C   -0.215876
     7  H    0.226026
     8  H    0.225422
     9  H    0.275324
    10  H    0.276183
    11  H    0.224284
    12  N    0.488016
    13  O   -0.460415
    14  O   -0.460612
    15  C   -0.303389
    16  C   -0.300312
    17  C   -0.475772
    18  H    0.144297
    19  H    0.159063
    20  H    0.150359
    21  H    0.156368
    22  H    0.155539
    23  H    0.150381
    24  H    0.161502
    25  C   -0.298568
    26  C   -0.300442
    27  C   -0.475776
    28  H    0.149275
    29  H    0.154518
    30  H    0.146930
    31  H    0.146066
    32  H    0.159322
    33  H    0.156652
    34  H    0.156887
 Sum of Mulliken charges =  -0.00000

 Dipole moment (field-independent basis, Debye):
    X=             -1.2097    Y=             -1.2232    Z=              4.8796  Tot=              5.1739
 Quadrupole moment (field-independent basis, Debye-Ang):
   XX=            -98.5514   YY=            -91.9571   ZZ=            -96.0678
   XY=              0.1780   XZ=             10.1945   YZ=             -1.2402

 Normal termination of Gaussian 16 at Thu May  6 10:53:54 2021.
