 Gaussian 16, Revision A.03,
 Gaussian 16:  EM64L-G16RevA.03 25-Dec-2016

 -------------
 #p 6-31g* mp2
 -------------

 ------------------------------------------------------
 Input file generated by CHIRIPA (05-May-2021 14:51:09)
 ------------------------------------------------------
 Symbolic Z-matrix:
 Charge =  0 Multiplicity = 1

                         Standard orientation:
 ---------------------------------------------------------------------
 Center     Atomic      Atomic             Coordinates (Angstroms)
 Number     Number       Type             X           Y           Z
 ---------------------------------------------------------------------
      1          6           0        3.419827   -0.543267   -0.213985
      2          6           0        4.143177    0.741227   -0.619973
      3          6           0        5.211462    0.505703   -1.688191
      4          1           0        4.156128   -1.269984    0.155729
      5          1           0        2.957181   -0.992194   -1.103827
      6          1           0        4.603154    1.188328    0.270609
      7          1           0        3.405046    1.465039   -0.988584
      8          1           0        4.764467    0.081484   -2.593086
      9          1           0        5.969382   -0.196799   -1.326737
     10          1           0        5.716011    1.437070   -1.963593
     11          6           0        2.348904   -0.324050    0.853158
     12          6           0        1.625555   -1.608544    1.259146
     13          6           0        0.557269   -1.373020    2.327364
     14          1           0        2.811550    0.124877    1.743001
     15          1           0        1.612603    0.402667    0.483444
     16          1           0        2.363685   -2.332356    1.627758
     17          1           0        1.165578   -2.055646    0.368564
     18          1           0       -0.200651   -0.670518    1.965911
     19          1           0        1.004264   -0.948801    3.232259
     20          1           0        0.052720   -2.304387    2.602766
     21          6           0       -2.342049    0.958302   -0.200955
     22          6           0       -2.891145    2.296801    0.293916
     23          6           0       -1.794109    3.336098    0.526660
     24          1           0       -1.619008    0.572738    0.530823
     25          1           0       -1.785594    1.120767   -1.134421
     26          1           0       -3.447569    2.131650    1.225438
     27          1           0       -3.613105    2.679131   -0.439033
     28          1           0       -1.244330    3.530049   -0.400015
     29          1           0       -1.077854    2.979457    1.273912
     30          1           0       -2.208794    4.285292    0.880113
     31          6           0       -3.426683   -0.090985   -0.438218
     32          6           0       -2.877587   -1.429484   -0.933089
     33          6           0       -3.974622   -2.468782   -1.165834
     34          1           0       -3.983137   -0.253449    0.495248
     35          1           0       -4.149723    0.294579   -1.169996
     36          1           0       -2.155626   -1.811814   -0.200141
     37          1           0       -2.321162   -1.264332   -1.864611
     38          1           0       -4.690877   -2.112140   -1.913086
     39          1           0       -4.524400   -2.662731   -0.239159
     40          1           0       -3.559937   -3.417974   -1.519286
 ---------------------------------------------------------------------

 SCF Done:  E(RHF) =  -470.733410884     A.U. after   11 cycles
 E2 =    -0.1583323436D+01 EUMP2 =    -0.47231673432042D+03

 The electronic state is 1-A.
 Alpha  occ. eigenvalues --  -11.21636 -11.21626 -11.21608 -11.21585 -11.21448
 Alpha  occ. eigenvalues --  -11.21390 -11.21386 -11.21331 -11.21108 -11.21100
 Alpha  occ. eigenvalues --  -11.21089 -11.21060  -1.08475  -1.08417  -1.03558
 Alpha  occ. eigenvalues --   -1.03533  -0.96017  -0.95979  -0.87029  -0.86999
 Alpha  occ. eigenvalues --   -0.79636  -0.79583  -0.78318  -0.78205  -0.65201
 Alpha  occ. eigenvalues --   -0.64969  -0.60956  -0.60932  -0.59393  -0.59336
 Alpha  occ. eigenvalues --   -0.57659  -0.57561  -0.55402  -0.55184  -0.52700
 Alpha  occ. eigenvalues --   -0.52681  -0.52475  -0.52376  -0.50033  -0.49865
 Alpha  occ. eigenvalues --   -0.47986  -0.47902  -0.46757  -0.46590  -0.45977
 Alpha  occ. eigenvalues --   -0.45768  -0.45721  -0.45412  -0.43816  -0.43783
 Alpha virt. eigenvalues --    0.19961   0.23311   0.23701   0.24022   0.26015
 Alpha virt. eigenvalues --    0.26646   0.27269   0.27582   0.28104   0.29516
 Alpha virt. eigenvalues --    0.30440   0.31558   0.31756   0.31883   0.32182

 Mulliken charges:
               1
     1  C   -0.298306
     2  C   -0.299705
     3  C   -0.475708
     4  H    0.149540
     5  H    0.149697
     6  H    0.151898
     7  H    0.152207
     8  H    0.155115
     9  H    0.155124
    10  H    0.160230
    11  C   -0.299827
    12  C   -0.299857
    13  C   -0.483343
    14  H    0.149290
    15  H    0.151352
    16  H    0.152061
    17  H    0.152994
    18  H    0.161016
    19  H    0.155447
    20  H    0.160225
    21  C   -0.308450
    22  C   -0.299026
    23  C   -0.476228
    24  H    0.158302
    25  H    0.149262
    26  H    0.152219
    27  H    0.152191
    28  H    0.154962
    29  H    0.155557
    30  H    0.160615
    31  C   -0.297559
    32  C   -0.302205
    33  C   -0.475694
    34  H    0.149808
    35  H    0.149902
    36  H    0.154466
    37  H    0.151485
    38  H    0.155235
    39  H    0.155429
    40  H    0.160281
 Sum of Mulliken charges =  -0.00000

 Dipole moment (field-independent basis, Debye):
    X=             -0.0133    Y=              0.0057    Z=              0.0008  Tot=              0.0145
 Quadrupole moment (field-independent basis, Debye-Ang):
   XX=            -85.3584   YY=            -85.3888   ZZ=            -83.9597
   XY=             -0.7238   XZ=              1.0684   YZ=             -0.6050

 Normal termination of Gaussian 16 at Wed May  5 21:23:24 2021.
