 Gaussian 16, Revision A.03,
 Gaussian 16:  EM64L-G16RevA.03 25-Dec-2016

 -------------
 #p 6-31g* mp2
 -------------

 ------------------------------------------------------
 Input file generated by CHIRIPA (05-May-2021 14:55:22)
 ------------------------------------------------------
 Symbolic Z-matrix:
 Charge =  0 Multiplicity = 1

                         Standard orientation:
 ---------------------------------------------------------------------
 Center     Atomic      Atomic             Coordinates (Angstroms)
 Number     Number       Type             X           Y           Z
 ---------------------------------------------------------------------
      1          6           0        1.485995    2.159289    0.930600
      2          6           0        0.816726    0.960542    1.198192
      3          6           0        1.354759   -0.261086    0.782627
      4          6           0        2.569402   -0.247054    0.098716
      5          6           0        3.260157    0.930580   -0.182933
      6          6           0        2.703428    2.140516    0.242106
      7          1           0        1.060776    3.103737    1.257101
      8          1           0       -0.128905    0.972094    1.732696
      9          1           0        0.857762   -1.203858    0.976516
     10          1           0        4.201167    0.887161   -0.717754
     11          1           0        3.225406    3.069933    0.032899
     12          7           0        3.148890   -1.534147   -0.346239
     13          8           0        4.220378   -1.494849   -0.947077
     14          8           0        2.520632   -2.557897   -0.085731
     15          6           0       -3.281918    0.791365   -0.107848
     16          6           0       -2.304605    1.678759   -0.879456
     17          6           0       -2.548024    3.169829   -0.644400
     18          1           0       -4.309349    1.047272   -0.400836
     19          1           0       -3.198548    1.012755    0.965199
     20          1           0       -2.388805    1.454779   -1.950604
     21          1           0       -1.279372    1.420578   -0.584738
     22          1           0       -2.444071    3.414405    0.417663
     23          1           0       -3.559807    3.448801   -0.955965
     24          1           0       -1.838324    3.785804   -1.205434
     25          6           0       -3.051254   -0.701957   -0.332599
     26          6           0       -4.028567   -1.589350    0.439009
     27          6           0       -3.785148   -3.080421    0.203953
     28          1           0       -3.134623   -0.923347   -1.405646
     29          1           0       -2.023823   -0.957863   -0.039610
     30          1           0       -5.053799   -1.331170    0.144291
     31          1           0       -3.944367   -1.365372    1.510158
     32          1           0       -2.773366   -3.359393    0.515517
     33          1           0       -3.889101   -3.324997   -0.858109
     34          1           0       -4.494848   -3.696397    0.764987
 ---------------------------------------------------------------------

 SCF Done:  E(RHF) =  -669.534922670     A.U. after   15 cycles
 E2 =    -0.2093364982D+01 EUMP2 =    -0.67162828765156D+03

 The electronic state is 1-A.
 Alpha  occ. eigenvalues --  -20.60823 -20.60818 -15.85878 -11.31279 -11.27855
 Alpha  occ. eigenvalues --  -11.27840 -11.27585 -11.26871 -11.26859 -11.22027
 Alpha  occ. eigenvalues --  -11.21970 -11.21953 -11.21846 -11.21754 -11.21257
 Alpha  occ. eigenvalues --   -1.59898  -1.39450  -1.19462  -1.08945  -1.08830
 Alpha  occ. eigenvalues --   -1.04876  -1.03977  -0.96447  -0.95670  -0.87456
 Alpha  occ. eigenvalues --   -0.86264  -0.82506  -0.80034  -0.78731  -0.77546
 Alpha  occ. eigenvalues --   -0.72096  -0.71220  -0.70550  -0.65675  -0.65111
 Alpha  occ. eigenvalues --   -0.64821  -0.62214  -0.61378  -0.59816  -0.58038
 Alpha  occ. eigenvalues --   -0.55767  -0.55342  -0.53260  -0.53083  -0.52965
 Alpha  occ. eigenvalues --   -0.52837  -0.50386  -0.48858  -0.48849  -0.48339
 Alpha  occ. eigenvalues --   -0.47081  -0.46256  -0.46217  -0.44847  -0.44247
 Alpha  occ. eigenvalues --   -0.37398  -0.36402
 Alpha virt. eigenvalues --    0.04960   0.11091   0.16351   0.19130   0.23065
 Alpha virt. eigenvalues --    0.23436   0.25340   0.26327   0.26955   0.28757
 Alpha virt. eigenvalues --    0.29524   0.30534   0.31169   0.31651   0.31904

 Mulliken charges:
               1
     1  C   -0.170409
     2  C   -0.220593
     3  C   -0.171723
     4  C    0.158985
     5  C   -0.170565
     6  C   -0.218246
     7  H    0.227413
     8  H    0.227100
     9  H    0.276156
    10  H    0.276064
    11  H    0.224082
    12  N    0.488151
    13  O   -0.460089
    14  O   -0.460120
    15  C   -0.298769
    16  C   -0.310054
    17  C   -0.475494
    18  H    0.152675
    19  H    0.141906
    20  H    0.155516
    21  H    0.159708
    22  H    0.147160
    23  H    0.158768
    24  H    0.159964
    25  C   -0.298763
    26  C   -0.300073
    27  C   -0.476019
    28  H    0.154302
    29  H    0.144522
    30  H    0.153392
    31  H    0.149088
    32  H    0.156799
    33  H    0.157707
    34  H    0.161455
 Sum of Mulliken charges =  -0.00000

 Dipole moment (field-independent basis, Debye):
    X=             -2.0113    Y=              4.4691    Z=              1.4798  Tot=              5.1194
 Quadrupole moment (field-independent basis, Debye-Ang):
   XX=           -101.7947   YY=            -97.4684   ZZ=            -93.7030
   XY=             14.8650   XZ=              2.9108   YZ=             -1.1303

 Normal termination of Gaussian 16 at Thu May  6 19:12:17 2021.
