 Gaussian 16, Revision A.03,
 Gaussian 16:  EM64L-G16RevA.03 25-Dec-2016

 -------------
 #p 6-31g* mp2
 -------------

 ------------------------------------------------------
 Input file generated by CHIRIPA (05-May-2021 14:51:08)
 ------------------------------------------------------
 Symbolic Z-matrix:
 Charge =  0 Multiplicity = 1

                         Standard orientation:
 ---------------------------------------------------------------------
 Center     Atomic      Atomic             Coordinates (Angstroms)
 Number     Number       Type             X           Y           Z
 ---------------------------------------------------------------------
      1          6           0        4.848924    0.068835   -0.076223
      2          6           0        5.976645   -0.956763   -0.196136
      3          6           0        7.314366   -0.322502   -0.578248
      4          1           0        4.744016    0.602306   -1.030869
      5          1           0        5.126156    0.822255    0.674040
      6          1           0        5.696769   -1.708800   -0.944953
      7          1           0        6.078754   -1.487988    0.758846
      8          1           0        7.619797    0.413983    0.172020
      9          1           0        7.235642    0.191917   -1.541460
     10          1           0        8.106414   -1.073556   -0.658485
     11          6           0        3.505305   -0.549975    0.305208
     12          6           0        2.377584    0.475623    0.425121
     13          6           0        1.039863   -0.158638    0.807233
     14          1           0        3.228073   -1.303396   -0.445055
     15          1           0        3.610213   -1.083446    1.259854
     16          1           0        2.275476    1.006848   -0.529861
     17          1           0        2.657460    1.227660    1.173938
     18          1           0        1.118587   -0.673057    1.770445
     19          1           0        0.734432   -0.895124    0.056965
     20          1           0        0.247815    0.592416    0.887470
     21          6           0       -3.954661    0.964053   -0.217050
     22          6           0       -2.467258    1.186055    0.059239
     23          6           0       -2.037403    2.638341   -0.150248
     24          1           0       -4.179076    1.269255   -1.248280
     25          1           0       -4.544116    1.620071    0.438373
     26          1           0       -1.880817    0.528812   -0.595537
     27          1           0       -2.246319    0.880111    1.089871
     28          1           0       -2.596991    3.305303    0.513547
     29          1           0       -2.229410    2.952008   -1.181435
     30          1           0       -0.970578    2.774521    0.052722
     31          6           0       -4.399569   -0.482913   -0.011935
     32          6           0       -5.886971   -0.704915   -0.288225
     33          6           0       -6.316826   -2.157201   -0.078737
     34          1           0       -3.810114   -1.138930   -0.667358
     35          1           0       -4.175152   -0.788114    1.019294
     36          1           0       -6.107910   -0.398970   -1.318855
     37          1           0       -6.473413   -0.047672    0.366552
     38          1           0       -6.124818   -2.470867    0.952451
     39          1           0       -5.757239   -2.824163   -0.742533
     40          1           0       -7.383652   -2.293382   -0.281708
 ---------------------------------------------------------------------

 SCF Done:  E(RHF) =  -470.732667677     A.U. after   11 cycles
 E2 =    -0.1582996635D+01 EUMP2 =    -0.47231566431220D+03

 The electronic state is 1-A.
 Alpha  occ. eigenvalues --  -11.21588 -11.21585 -11.21563 -11.21560 -11.21382
 Alpha  occ. eigenvalues --  -11.21381 -11.21322 -11.21321 -11.21091 -11.21061
 Alpha  occ. eigenvalues --  -11.21057 -11.20945  -1.08427  -1.08393  -1.03567
 Alpha  occ. eigenvalues --   -1.03460  -0.96026  -0.95898  -0.86995  -0.86960
 Alpha  occ. eigenvalues --   -0.79695  -0.79468  -0.78252  -0.78191  -0.65060
 Alpha  occ. eigenvalues --   -0.65020  -0.60959  -0.60859  -0.59734  -0.59061
 Alpha  occ. eigenvalues --   -0.57813  -0.57278  -0.55278  -0.55210  -0.52762
 Alpha  occ. eigenvalues --   -0.52549  -0.52462  -0.52257  -0.49944  -0.49860
 Alpha  occ. eigenvalues --   -0.47936  -0.47836  -0.46672  -0.46541  -0.45779
 Alpha  occ. eigenvalues --   -0.45756  -0.45708  -0.45653  -0.43821  -0.43652
 Alpha virt. eigenvalues --    0.21776   0.23059   0.23385   0.25174   0.26291
 Alpha virt. eigenvalues --    0.26668   0.26918   0.27081   0.27865   0.29010
 Alpha virt. eigenvalues --    0.30464   0.31234   0.31331   0.31757   0.32250

 Mulliken charges:
               1
     1  C   -0.298196
     2  C   -0.299600
     3  C   -0.475681
     4  H    0.149544
     5  H    0.149448
     6  H    0.151857
     7  H    0.151908
     8  H    0.155161
     9  H    0.155141
    10  H    0.160193
    11  C   -0.298359
    12  C   -0.299661
    13  C   -0.484216
    14  H    0.149353
    15  H    0.149612
    16  H    0.151527
    17  H    0.151389
    18  H    0.154122
    19  H    0.154211
    20  H    0.172968
    21  C   -0.297551
    22  C   -0.303389
    23  C   -0.479131
    24  H    0.149363
    25  H    0.149257
    26  H    0.155435
    27  H    0.152484
    28  H    0.155525
    29  H    0.155632
    30  H    0.161581
    31  C   -0.298228
    32  C   -0.299662
    33  C   -0.475670
    34  H    0.149487
    35  H    0.149891
    36  H    0.151831
    37  H    0.151877
    38  H    0.155223
    39  H    0.155147
    40  H    0.160173
 Sum of Mulliken charges =  -0.00000

 Dipole moment (field-independent basis, Debye):
    X=             -0.0277    Y=              0.0028    Z=              0.0018  Tot=              0.0279
 Quadrupole moment (field-independent basis, Debye-Ang):
   XX=            -86.1693   YY=            -85.8893   ZZ=            -82.8888
   XY=             -0.7847   XZ=              0.3263   YZ=              0.5356

 Normal termination of Gaussian 16 at Thu May  6 06:52:51 2021.
