 Gaussian 16, Revision A.03,
 Gaussian 16:  EM64L-G16RevA.03 25-Dec-2016

 -------------
 #p 6-31g* mp2
 -------------

 ------------------------------------------------------
 Input file generated by CHIRIPA (05-May-2021 14:55:20)
 ------------------------------------------------------
 Symbolic Z-matrix:
 Charge =  0 Multiplicity = 1

                         Standard orientation:
 ---------------------------------------------------------------------
 Center     Atomic      Atomic             Coordinates (Angstroms)
 Number     Number       Type             X           Y           Z
 ---------------------------------------------------------------------
      1          6           0       -0.501665    0.111177    1.124555
      2          6           0       -0.937270   -1.147228    0.696553
      3          6           0       -2.223810   -1.313830    0.175395
      4          6           0       -3.052169   -0.195411    0.096342
      5          6           0       -2.647216    1.071261    0.514488
      6          6           0       -1.356522    1.214460    1.032319
      7          1           0        0.499364    0.231508    1.528110
      8          1           0       -0.275537   -2.005827    0.766996
      9          1           0       -2.586674   -2.276670   -0.163258
     10          1           0       -3.329626    1.908453    0.431749
     11          1           0       -1.020912    2.192947    1.363944
     12          7           0       -4.416371   -0.359397   -0.453623
     13          8           0       -5.126940    0.641722   -0.512701
     14          8           0       -4.749233   -1.485943   -0.815195
     15          6           0        3.769145   -0.460706   -0.561188
     16          6           0        4.342835   -1.484648    0.418814
     17          6           0        4.638054   -2.832493   -0.239938
     18          1           0        2.848175   -0.863181   -1.004779
     19          1           0        4.478136   -0.318080   -1.388464
     20          1           0        3.633594   -1.624270    1.244707
     21          1           0        5.262443   -1.079609    0.860267
     22          1           0        5.363106   -2.713979   -1.051637
     23          1           0        3.725002   -3.261735   -0.665013
     24          1           0        5.047379   -3.549440    0.478602
     25          6           0        3.468826    0.891768    0.082512
     26          6           0        2.895136    1.915710   -0.897491
     27          6           0        2.599917    3.263555   -0.238738
     28          1           0        2.759836    0.749142    0.909788
     29          1           0        4.389796    1.294244    0.526103
     30          1           0        1.975528    1.510671   -1.338943
     31          1           0        3.604378    2.055333   -1.723383
     32          1           0        3.512970    3.692797    0.186336
     33          1           0        1.874865    3.145041    0.572960
     34          1           0        2.190592    3.980502   -0.957278
 ---------------------------------------------------------------------

 SCF Done:  E(RHF) =  -669.535519622     A.U. after   15 cycles
 E2 =    -0.2092039249D+01 EUMP2 =    -0.67162755887167D+03

 The electronic state is 1-A.
 Alpha  occ. eigenvalues --  -20.60783 -20.60777 -15.85837 -11.31217 -11.27786
 Alpha  occ. eigenvalues --  -11.27780 -11.27517 -11.26809 -11.26797 -11.22503
 Alpha  occ. eigenvalues --  -11.22477 -11.22418 -11.22276 -11.21994 -11.21827
 Alpha  occ. eigenvalues --   -1.59858  -1.39411  -1.19390  -1.09374  -1.08780
 Alpha  occ. eigenvalues --   -1.04794  -1.04409  -0.96867  -0.95615  -0.87877
 Alpha  occ. eigenvalues --   -0.86190  -0.82448  -0.80465  -0.79189  -0.77490
 Alpha  occ. eigenvalues --   -0.72054  -0.71181  -0.70533  -0.66023  -0.65042
 Alpha  occ. eigenvalues --   -0.64781  -0.62153  -0.61800  -0.60221  -0.58469
 Alpha  occ. eigenvalues --   -0.56229  -0.55263  -0.53524  -0.53277  -0.53117
 Alpha  occ. eigenvalues --   -0.52882  -0.50811  -0.48815  -0.48809  -0.48776
 Alpha  occ. eigenvalues --   -0.47508  -0.46719  -0.46646  -0.44813  -0.44680
 Alpha  occ. eigenvalues --   -0.37362  -0.36397
 Alpha virt. eigenvalues --    0.05021   0.11203   0.16400   0.18373   0.22438
 Alpha virt. eigenvalues --    0.23519   0.24934   0.25870   0.26251   0.27948
 Alpha virt. eigenvalues --    0.29729   0.30383   0.30906   0.31101   0.31845

 Mulliken charges:
               1
     1  C   -0.174313
     2  C   -0.221188
     3  C   -0.170770
     4  C    0.158618
     5  C   -0.170814
     6  C   -0.221419
     7  H    0.232878
     8  H    0.223687
     9  H    0.275725
    10  H    0.275882
    11  H    0.224917
    12  N    0.487998
    13  O   -0.460262
    14  O   -0.460339
    15  C   -0.300125
    16  C   -0.299247
    17  C   -0.475888
    18  H    0.149533
    19  H    0.154269
    20  H    0.144795
    21  H    0.155115
    22  H    0.158437
    23  H    0.153970
    24  H    0.162496
    25  C   -0.299914
    26  C   -0.302603
    27  C   -0.474589
    28  H    0.138573
    29  H    0.153863
    30  H    0.156151
    31  H    0.156373
    32  H    0.158189
    33  H    0.145272
    34  H    0.164731
 Sum of Mulliken charges =  -0.00000

 Dipole moment (field-independent basis, Debye):
    X=              4.9811    Y=              0.5993    Z=              1.8016  Tot=              5.3307
 Quadrupole moment (field-independent basis, Debye-Ang):
   XX=           -122.8669   YY=            -90.9428   ZZ=            -95.1658
   XY=             -3.1017   XZ=             -6.1440   YZ=             -0.0705

 Normal termination of Gaussian 16 at Thu May  6 19:07:29 2021.
