 Gaussian 16, Revision A.03,
 Gaussian 16:  EM64L-G16RevA.03 25-Dec-2016

 -------------
 #p 6-31g* mp2
 -------------

 ------------------------------------------------------
 Input file generated by CHIRIPA (05-May-2021 14:53:12)
 ------------------------------------------------------
 Symbolic Z-matrix:
 Charge =  0 Multiplicity = 1

                         Standard orientation:
 ---------------------------------------------------------------------
 Center     Atomic      Atomic             Coordinates (Angstroms)
 Number     Number       Type             X           Y           Z
 ---------------------------------------------------------------------
      1          6           0        3.389497   -0.470613    0.248584
      2          6           0        2.945016   -1.874888    0.658991
      3          6           0        1.459320   -1.944727    1.013426
      4          1           0        3.173046    0.229462    1.067112
      5          1           0        2.790500   -0.140700   -0.611506
      6          1           0        3.545619   -2.202606    1.517183
      7          1           0        3.162726   -2.571735   -0.160535
      8          1           0        0.844839   -1.643290    0.158938
      9          1           0        1.229907   -1.272063    1.846189
     10          1           0        1.163056   -2.957510    1.303871
     11          6           0        4.872294   -0.384731   -0.108719
     12          6           0        5.316775    1.019544   -0.519126
     13          6           0        6.802471    1.089383   -0.873561
     14          1           0        5.471291   -0.714644    0.751372
     15          1           0        5.088745   -1.084807   -0.927247
     16          1           0        5.099065    1.716391    0.300400
     17          1           0        4.716172    1.347262   -1.377318
     18          1           0        7.031884    0.416719   -1.706323
     19          1           0        7.416952    0.787945   -0.019073
     20          1           0        7.098735    2.102166   -1.164006
     21          6           0       -4.577182   -1.685030   -0.737773
     22          6           0       -5.195713   -0.435757   -0.622636
     23          6           0       -4.457583    0.689852   -0.244856
     24          6           0       -3.096757    0.529323    0.011408
     25          6           0       -2.451799   -0.701970   -0.094599
     26          6           0       -3.209610   -1.813922   -0.473852
     27          1           0       -5.158223   -2.554125   -1.031814
     28          1           0       -6.257629   -0.332688   -0.826981
     29          1           0       -4.911107    1.668811   -0.148037
     30          1           0       -1.391553   -0.773421    0.115619
     31          1           0       -2.726596   -2.782886   -0.562465
     32          7           0       -2.304915    1.713725    0.412127
     33          8           0       -1.107439    1.545879    0.632395
     34          8           0       -2.896736    2.787480    0.498356
 ---------------------------------------------------------------------

 SCF Done:  E(RHF) =  -669.535621080     A.U. after   15 cycles
 E2 =    -0.2091082055D+01 EUMP2 =    -0.67162670313449D+03

 The electronic state is 1-A.
 Alpha  occ. eigenvalues --  -20.60726 -20.60721 -15.85776 -11.31122 -11.27707
 Alpha  occ. eigenvalues --  -11.27653 -11.27452 -11.26722 -11.26700 -11.21575
 Alpha  occ. eigenvalues --  -11.21277 -11.21256 -11.21116 -11.21039 -11.20789
 Alpha  occ. eigenvalues --   -1.59801  -1.39354  -1.19302  -1.08704  -1.08200
 Alpha  occ. eigenvalues --   -1.04703  -1.03381  -0.95849  -0.95536  -0.86880
 Alpha  occ. eigenvalues --   -0.86101  -0.82369  -0.79450  -0.77974  -0.77410
 Alpha  occ. eigenvalues --   -0.71996  -0.71124  -0.70420  -0.64956  -0.64844
 Alpha  occ. eigenvalues --   -0.64704  -0.62078  -0.60773  -0.59213  -0.57434
 Alpha  occ. eigenvalues --   -0.55271  -0.55085  -0.53037  -0.52869  -0.52562
 Alpha  occ. eigenvalues --   -0.52199  -0.49789  -0.48755  -0.48750  -0.47746
 Alpha  occ. eigenvalues --   -0.46457  -0.45522  -0.45432  -0.44763  -0.43611
 Alpha  occ. eigenvalues --   -0.37292  -0.36306
 Alpha virt. eigenvalues --    0.05109   0.11338   0.16604   0.20743   0.23119
 Alpha virt. eigenvalues --    0.24190   0.25713   0.27052   0.27764   0.28024
 Alpha virt. eigenvalues --    0.29426   0.30850   0.31529   0.31821   0.31982

 Mulliken charges:
               1
     1  C   -0.298869
     2  C   -0.299054
     3  C   -0.480510
     4  H    0.156643
     5  H    0.152281
     6  H    0.152809
     7  H    0.149775
     8  H    0.147533
     9  H    0.166077
    10  H    0.156026
    11  C   -0.298645
    12  C   -0.299793
    13  C   -0.475695
    14  H    0.148516
    15  H    0.147459
    16  H    0.154766
    17  H    0.153286
    18  H    0.153785
    19  H    0.154446
    20  H    0.160570
    21  C   -0.170593
    22  C   -0.219187
    23  C   -0.170044
    24  C    0.157645
    25  C   -0.180846
    26  C   -0.222381
    27  H    0.225333
    28  H    0.223177
    29  H    0.275361
    30  H    0.291036
    31  H    0.223604
    32  N    0.486704
    33  O   -0.460527
    34  O   -0.460689
 Sum of Mulliken charges =  -0.00000

 Dipole moment (field-independent basis, Debye):
    X=             -2.7196    Y=             -4.0857    Z=             -1.3489  Tot=              5.0900
 Quadrupole moment (field-independent basis, Debye-Ang):
   XX=            -75.5037   YY=            -98.2871   ZZ=            -94.7147
   XY=              9.0112   XZ=              5.4360   YZ=             -0.6792

 Normal termination of Gaussian 16 at Thu May  6 12:01:09 2021.
