 Gaussian 16, Revision A.03,
 Gaussian 16:  EM64L-G16RevA.03 25-Dec-2016

 -------------
 #p 6-31g* mp2
 -------------

 ------------------------------------------------------
 Input file generated by CHIRIPA (05-May-2021 14:53:18)
 ------------------------------------------------------
 Symbolic Z-matrix:
 Charge =  0 Multiplicity = 1

                         Standard orientation:
 ---------------------------------------------------------------------
 Center     Atomic      Atomic             Coordinates (Angstroms)
 Number     Number       Type             X           Y           Z
 ---------------------------------------------------------------------
      1          6           0        5.121702    0.205631   -0.176814
      2          6           0        5.650178   -1.003383    0.595833
      3          6           0        7.131074   -1.274356    0.328790
      4          1           0        5.278036    0.042587   -1.251952
      5          1           0        5.712225    1.091806    0.094058
      6          1           0        5.057940   -1.886738    0.324624
      7          1           0        5.492393   -0.837525    1.669244
      8          1           0        7.738817   -0.410436    0.616698
      9          1           0        7.301895   -1.465610   -0.735562
     10          1           0        7.488066   -2.142814    0.891105
     11          6           0        3.642695    0.489268    0.079737
     12          6           0        3.114220    1.698282   -0.692909
     13          6           0        1.633323    1.969255   -0.425866
     14          1           0        3.052172   -0.396907   -0.191134
     15          1           0        3.486362    0.652312    1.154875
     16          1           0        3.272004    1.532425   -1.766320
     17          1           0        3.706457    2.581638   -0.421700
     18          1           0        1.462502    2.160509    0.638485
     19          1           0        1.025581    1.105335   -0.713775
     20          1           0        1.276331    2.837713   -0.988182
     21          6           0       -5.909226    0.079568    0.291578
     22          6           0       -5.394833   -0.451350   -0.895877
     23          6           0       -4.019318   -0.650137   -1.047494
     24          6           0       -3.183291   -0.305380    0.013398
     25          6           0       -3.665406    0.225522    1.208805
     26          6           0       -5.044395    0.415716    1.338283
     27          1           0       -6.979108    0.230652    0.400758
     28          1           0       -6.064101   -0.713318   -1.710431
     29          1           0       -3.594280   -1.059449   -1.955914
     30          1           0       -2.973273    0.477071    2.003218
     31          1           0       -5.441069    0.828212    2.261615
     32          7           0       -1.725256   -0.511278   -0.135393
     33          8           0       -1.009799   -0.199446    0.814091
     34          8           0       -1.325512   -0.980595   -1.198683
 ---------------------------------------------------------------------

 SCF Done:  E(RHF) =  -669.536366144     A.U. after   15 cycles
 E2 =    -0.2091335838D+01 EUMP2 =    -0.67162770198221D+03

 The electronic state is 1-A.
 Alpha  occ. eigenvalues --  -20.60989 -20.60976 -15.85991 -11.31306 -11.27864
 Alpha  occ. eigenvalues --  -11.27860 -11.27601 -11.26867 -11.26858 -11.20738
 Alpha  occ. eigenvalues --  -11.20380 -11.20372 -11.20289 -11.20060 -11.19355
 Alpha  occ. eigenvalues --   -1.60032  -1.39587  -1.19470  -1.08878  -1.07303
 Alpha  occ. eigenvalues --   -1.04863  -1.02386  -0.95722  -0.94818  -0.86264
 Alpha  occ. eigenvalues --   -0.85834  -0.82555  -0.78485  -0.77612  -0.77068
 Alpha  occ. eigenvalues --   -0.72205  -0.71342  -0.70579  -0.65124  -0.64867
 Alpha  occ. eigenvalues --   -0.63940  -0.62210  -0.59786  -0.58247  -0.56428
 Alpha  occ. eigenvalues --   -0.55372  -0.54097  -0.53196  -0.52955  -0.51559
 Alpha  occ. eigenvalues --   -0.51244  -0.49118  -0.48974  -0.48602  -0.46745
 Alpha  occ. eigenvalues --   -0.45511  -0.45009  -0.44589  -0.44479  -0.42656
 Alpha  occ. eigenvalues --   -0.37445  -0.36463
 Alpha virt. eigenvalues --    0.04893   0.11193   0.16396   0.21329   0.23938
 Alpha virt. eigenvalues --    0.25513   0.27247   0.27780   0.28187   0.28628
 Alpha virt. eigenvalues --    0.29244   0.30897   0.32430   0.32598   0.32753

 Mulliken charges:
               1
     1  C   -0.297690
     2  C   -0.298962
     3  C   -0.475058
     4  H    0.147789
     5  H    0.145893
     6  H    0.153284
     7  H    0.150793
     8  H    0.153341
     9  H    0.154099
    10  H    0.157906
    11  C   -0.298220
    12  C   -0.299008
    13  C   -0.480910
    14  H    0.159299
    15  H    0.148424
    16  H    0.148455
    17  H    0.144798
    18  H    0.153237
    19  H    0.178926
    20  H    0.148253
    21  C   -0.170498
    22  C   -0.218624
    23  C   -0.170741
    24  C    0.159943
    25  C   -0.170571
    26  C   -0.218618
    27  H    0.226034
    28  H    0.223837
    29  H    0.275807
    30  H    0.276005
    31  H    0.223886
    32  N    0.487889
    33  O   -0.457557
    34  O   -0.461442
 Sum of Mulliken charges =  -0.00000

 Dipole moment (field-independent basis, Debye):
    X=             -5.5167    Y=              0.5674    Z=              0.5647  Tot=              5.5744
 Quadrupole moment (field-independent basis, Debye-Ang):
   XX=            -64.8996   YY=            -95.7182   ZZ=            -90.0582
   XY=             -0.3701   XZ=             -0.6844   YZ=              2.4478

 Normal termination of Gaussian 16 at Thu May  6 18:59:23 2021.
