 Gaussian 16, Revision A.03,
 Gaussian 16:  EM64L-G16RevA.03 25-Dec-2016

 -------------
 #p 6-31g* mp2
 -------------

 ------------------------------------------------------
 Input file generated by CHIRIPA (05-May-2021 14:53:16)
 ------------------------------------------------------
 Symbolic Z-matrix:
 Charge =  0 Multiplicity = 1

                         Standard orientation:
 ---------------------------------------------------------------------
 Center     Atomic      Atomic             Coordinates (Angstroms)
 Number     Number       Type             X           Y           Z
 ---------------------------------------------------------------------
      1          6           0        4.146391   -0.203722   -0.354218
      2          6           0        5.340429    0.459714    0.332885
      3          6           0        6.328944    1.071583   -0.660215
      4          1           0        4.511092   -0.982603   -1.037798
      5          1           0        3.629761    0.540724   -0.975739
      6          1           0        5.853840   -0.285423    0.954010
      7          1           0        4.972833    1.236976    1.015052
      8          1           0        5.837535    1.834866   -1.272193
      9          1           0        6.723548    0.303816   -1.333582
     10          1           0        7.174674    1.540451   -0.147610
     11          6           0        3.149299   -0.820015    0.625434
     12          6           0        1.955260   -1.483451   -0.061668
     13          6           0        0.966745   -2.095320    0.931432
     14          1           0        3.665929   -1.564461    1.246956
     15          1           0        2.784597   -0.041134    1.309015
     16          1           0        2.322857   -2.260713   -0.743835
     17          1           0        1.441850   -0.738314   -0.682794
     18          1           0        0.572141   -1.327554    1.604799
     19          1           0        1.458154   -2.858603    1.543410
     20          1           0        0.121015   -2.564188    0.418827
     21          6           0       -4.033820   -1.810669   -0.384523
     22          6           0       -4.749377   -0.679733    0.022275
     23          6           0       -4.103718    0.550237    0.179897
     24          6           0       -2.735420    0.613607   -0.079012
     25          6           0       -1.994971   -0.495298   -0.485653
     26          6           0       -2.661320   -1.715010   -0.636744
     27          1           0       -4.543420   -2.762154   -0.504431
     28          1           0       -5.815356   -0.751069    0.218858
     29          1           0       -4.633393    1.441542    0.493646
     30          1           0       -0.933172   -0.393062   -0.674195
     31          1           0       -2.103064   -2.591656   -0.952792
     32          7           0       -2.040937    1.910292    0.084398
     33          8           0       -0.834771    1.939841   -0.149966
     34          8           0       -2.715918    2.872530    0.443749
 ---------------------------------------------------------------------

 SCF Done:  E(RHF) =  -669.534806560     A.U. after   15 cycles
 E2 =    -0.2092893436D+01 EUMP2 =    -0.67162769999606D+03

 The electronic state is 1-A.
 Alpha  occ. eigenvalues --  -20.60798 -20.60788 -15.85844 -11.31147 -11.27737
 Alpha  occ. eigenvalues --  -11.27681 -11.27478 -11.26737 -11.26717 -11.21868
 Alpha  occ. eigenvalues --  -11.21477 -11.21356 -11.21318 -11.21166 -11.20817
 Alpha  occ. eigenvalues --   -1.59868  -1.39424  -1.19334  -1.08740  -1.08375
 Alpha  occ. eigenvalues --   -1.04743  -1.03554  -0.96014  -0.95572  -0.87021
 Alpha  occ. eigenvalues --   -0.86136  -0.82420  -0.79633  -0.78152  -0.77476
 Alpha  occ. eigenvalues --   -0.72069  -0.71190  -0.70466  -0.65079  -0.64994
 Alpha  occ. eigenvalues --   -0.64682  -0.62241  -0.60854  -0.59369  -0.57598
 Alpha  occ. eigenvalues --   -0.55361  -0.55128  -0.53146  -0.52825  -0.52650
 Alpha  occ. eigenvalues --   -0.52408  -0.49916  -0.48824  -0.48817  -0.47942
 Alpha  occ. eigenvalues --   -0.46641  -0.45698  -0.45572  -0.44840  -0.43786
 Alpha  occ. eigenvalues --   -0.37321  -0.36291
 Alpha virt. eigenvalues --    0.05050   0.11271   0.16471   0.20127   0.23165
 Alpha virt. eigenvalues --    0.24160   0.26153   0.26428   0.27347   0.28166
 Alpha virt. eigenvalues --    0.29022   0.29812   0.31420   0.31709   0.32612

 Mulliken charges:
               1
     1  C   -0.299994
     2  C   -0.300209
     3  C   -0.476043
     4  H    0.147047
     5  H    0.155803
     6  H    0.150202
     7  H    0.155378
     8  H    0.157438
     9  H    0.153595
    10  H    0.160081
    11  C   -0.297917
    12  C   -0.308735
    13  C   -0.481790
    14  H    0.148336
    15  H    0.157766
    16  H    0.150869
    17  H    0.156784
    18  H    0.163614
    19  H    0.158751
    20  H    0.148615
    21  C   -0.170579
    22  C   -0.219349
    23  C   -0.169908
    24  C    0.154994
    25  C   -0.172710
    26  C   -0.223850
    27  H    0.225600
    28  H    0.223284
    29  H    0.275407
    30  H    0.289424
    31  H    0.223784
    32  N    0.487277
    33  O   -0.462940
    34  O   -0.460024
 Sum of Mulliken charges =  -0.00000

 Dipole moment (field-independent basis, Debye):
    X=             -2.3606    Y=             -4.4563    Z=             -0.5119  Tot=              5.0689
 Quadrupole moment (field-independent basis, Debye-Ang):
   XX=            -78.0029   YY=            -99.7374   ZZ=            -95.4108
   XY=              8.4717   XZ=              0.9990   YZ=              0.9801

 Normal termination of Gaussian 16 at Thu May  6 18:55:08 2021.
