 Gaussian 16, Revision A.03,
 Gaussian 16:  EM64L-G16RevA.03 25-Dec-2016

 -------------
 #p 6-31g* mp2
 -------------

 ------------------------------------------------------
 Input file generated by CHIRIPA (05-May-2021 14:53:15)
 ------------------------------------------------------
 Symbolic Z-matrix:
 Charge =  0 Multiplicity = 1

                         Standard orientation:
 ---------------------------------------------------------------------
 Center     Atomic      Atomic             Coordinates (Angstroms)
 Number     Number       Type             X           Y           Z
 ---------------------------------------------------------------------
      1          6           0       -4.661276   -0.146940   -0.466705
      2          6           0       -5.754604    0.421457    0.438582
      3          6           0       -7.053760    0.711094   -0.313813
      4          1           0       -4.464040    0.562156   -1.282319
      5          1           0       -5.027431   -1.070133   -0.936854
      6          1           0       -5.385993    1.342560    0.907956
      7          1           0       -5.949125   -0.288988    1.252244
      8          1           0       -7.447701   -0.203573   -0.768560
      9          1           0       -6.881370    1.437245   -1.114804
     10          1           0       -7.821614    1.116690    0.352334
     11          6           0       -3.356414   -0.441646    0.271001
     12          6           0       -2.263086   -1.010043   -0.634286
     13          6           0       -0.963930   -1.299680    0.118109
     14          1           0       -2.990259    0.481547    0.741151
     15          1           0       -3.553650   -1.150742    1.086615
     16          1           0       -2.068565   -0.299598   -1.447947
     17          1           0       -2.631697   -1.931146   -1.103659
     18          1           0       -1.136320   -2.025831    0.919101
     19          1           0       -0.569988   -0.385013    0.572857
     20          1           0       -0.196075   -1.705276   -0.548037
     21          6           0        2.720080    2.719013    0.103162
     22          6           0        1.965224    1.875742    0.925115
     23          6           0        2.184801    0.495057    0.918531
     24          6           0        3.171725   -0.010720    0.073864
     25          6           0        3.940251    0.803482   -0.756636
     26          6           0        3.703450    2.181141   -0.733615
     27          1           0        2.542816    3.790388    0.114660
     28          1           0        1.200862    2.290675    1.575981
     29          1           0        1.614930   -0.180691    1.544653
     30          1           0        4.695221    0.360503   -1.394765
     31          1           0        4.291202    2.833635   -1.373024
     32          7           0        3.413298   -1.470788    0.058194
     33          8           0        4.288675   -1.891596   -0.694981
     34          8           0        2.722692   -2.166732    0.799382
 ---------------------------------------------------------------------

 SCF Done:  E(RHF) =  -669.534918491     A.U. after   15 cycles
 E2 =    -0.2092176830D+01 EUMP2 =    -0.67162709532157D+03

 The electronic state is 1-A.
 Alpha  occ. eigenvalues --  -20.60789 -20.60770 -15.85819 -11.31156 -11.27760
 Alpha  occ. eigenvalues --  -11.27711 -11.27507 -11.26758 -11.26748 -11.21715
 Alpha  occ. eigenvalues --  -11.21571 -11.21490 -11.21433 -11.21172 -11.20943
 Alpha  occ. eigenvalues --   -1.59847  -1.39401  -1.19352  -1.08749  -1.08496
 Alpha  occ. eigenvalues --   -1.04762  -1.03564  -0.96023  -0.95579  -0.87045
 Alpha  occ. eigenvalues --   -0.86143  -0.82421  -0.79645  -0.78324  -0.77453
 Alpha  occ. eigenvalues --   -0.72040  -0.71167  -0.70474  -0.65142  -0.65005
 Alpha  occ. eigenvalues --   -0.64762  -0.62146  -0.60949  -0.59365  -0.57622
 Alpha  occ. eigenvalues --   -0.55412  -0.55196  -0.53125  -0.52915  -0.52628
 Alpha  occ. eigenvalues --   -0.52366  -0.49947  -0.48800  -0.48794  -0.47944
 Alpha  occ. eigenvalues --   -0.46672  -0.45855  -0.45789  -0.44824  -0.43774
 Alpha  occ. eigenvalues --   -0.37334  -0.36314
 Alpha virt. eigenvalues --    0.05041   0.11282   0.16454   0.21156   0.22808
 Alpha virt. eigenvalues --    0.24276   0.26132   0.26748   0.27528   0.27869
 Alpha virt. eigenvalues --    0.28952   0.30488   0.31591   0.31708   0.32161

 Mulliken charges:
               1
     1  C   -0.298128
     2  C   -0.299420
     3  C   -0.475683
     4  H    0.148813
     5  H    0.151035
     6  H    0.149939
     7  H    0.152600
     8  H    0.156087
     9  H    0.154694
    10  H    0.160153
    11  C   -0.297603
    12  C   -0.300921
    13  C   -0.475096
    14  H    0.144246
    15  H    0.150819
    16  H    0.150298
    17  H    0.154519
    18  H    0.159729
    19  H    0.141425
    20  H    0.169224
    21  C   -0.170221
    22  C   -0.220730
    23  C   -0.166852
    24  C    0.155789
    25  C   -0.170947
    26  C   -0.218955
    27  H    0.225480
    28  H    0.223161
    29  H    0.279737
    30  H    0.275507
    31  H    0.223278
    32  N    0.487947
    33  O   -0.460455
    34  O   -0.459470
 Sum of Mulliken charges =  -0.00000

 Dipole moment (field-independent basis, Debye):
    X=             -0.8165    Y=              5.0353    Z=              0.0316  Tot=              5.1011
 Quadrupole moment (field-independent basis, Debye-Ang):
   XX=            -98.9873   YY=            -94.3876   ZZ=            -93.0305
   XY=             17.7313   XZ=             -3.1691   YZ=             -0.2279

 Normal termination of Gaussian 16 at Thu May  6 04:14:47 2021.
