 Gaussian 16, Revision A.03,
 Gaussian 16:  EM64L-G16RevA.03 25-Dec-2016

 -------------
 #p 6-31g* mp2
 -------------

 ------------------------------------------------------
 Input file generated by CHIRIPA (05-May-2021 14:57:27)
 ------------------------------------------------------
 Symbolic Z-matrix:
 Charge =  0 Multiplicity = 1

                         Standard orientation:
 ---------------------------------------------------------------------
 Center     Atomic      Atomic             Coordinates (Angstroms)
 Number     Number       Type             X           Y           Z
 ---------------------------------------------------------------------
      1          6           0       -3.459436   -2.124640   -1.029342
      2          6           0       -2.417234   -1.814279   -0.149563
      3          6           0       -2.350945   -0.556416    0.457013
      4          6           0       -3.348120    0.371290    0.159872
      5          6           0       -4.399123    0.092073   -0.712321
      6          6           0       -4.445316   -1.172153   -1.307424
      7          1           0       -3.503125   -3.104250   -1.496089
      8          1           0       -1.650207   -2.552025    0.068256
      9          1           0       -1.555253   -0.289670    1.141950
     10          1           0       -5.149195    0.848234   -0.909883
     11          1           0       -5.255872   -1.410409   -1.990270
     12          7           0       -3.288580    1.706301    0.795953
     13          8           0       -4.179368    2.506101    0.517648
     14          8           0       -2.352252    1.927605    1.560775
     15          6           0        2.224489   -2.045953    1.166184
     16          6           0        1.709971   -1.591523   -0.052538
     17          6           0        2.329780   -0.542410   -0.737919
     18          6           0        3.467510    0.031908   -0.173101
     19          6           0        4.004170   -0.398537    1.039336
     20          6           0        3.367932   -1.449061    1.707278
     21          1           0        1.736625   -2.861477    1.691830
     22          1           0        0.822098   -2.053192   -0.475138
     23          1           0        1.952661   -0.170916   -1.683007
     24          1           0        4.890716    0.081539    1.435545
     25          1           0        3.769736   -1.799913    2.653587
     26          7           0        4.132371    1.143304   -0.889452
     27          8           0        5.133472    1.632511   -0.370691
     28          8           0        3.639800    1.504165   -1.956124
 ---------------------------------------------------------------------

 SCF Done:  E(RHF) =  -868.336627519     A.U. after   16 cycles
 E2 =    -0.2600167369D+01 EUMP2 =    -0.87093679488722D+03

 The electronic state is 1-A.
 Alpha  occ. eigenvalues --  -20.61111 -20.61106 -20.60887 -20.60881 -15.86175
 Alpha  occ. eigenvalues --  -15.85948 -11.31705 -11.31461 -11.28361 -11.28292
 Alpha  occ. eigenvalues --  -11.28128 -11.28099 -11.28041 -11.27922 -11.27487
 Alpha  occ. eigenvalues --  -11.27309 -11.27222 -11.27086  -1.60184  -1.59957
 Alpha  occ. eigenvalues --   -1.39733  -1.39507  -1.19923  -1.19673  -1.09285
 Alpha  occ. eigenvalues --   -1.09057  -1.05372  -1.05101  -0.96081  -0.95856
 Alpha  occ. eigenvalues --   -0.86761  -0.86509  -0.82932  -0.82681  -0.77957
 Alpha  occ. eigenvalues --   -0.77677  -0.72389  -0.72167  -0.71511  -0.71278
 Alpha  occ. eigenvalues --   -0.71018  -0.70811  -0.65593  -0.65509  -0.65336
 Alpha  occ. eigenvalues --   -0.65056  -0.62778  -0.62365  -0.55856  -0.55648
 Alpha  occ. eigenvalues --   -0.53696  -0.53537  -0.53402  -0.53124  -0.49163
 Alpha  occ. eigenvalues --   -0.49132  -0.48937  -0.48908  -0.45101  -0.44879
 Alpha  occ. eigenvalues --   -0.37909  -0.37691  -0.37015  -0.36651
 Alpha virt. eigenvalues --    0.04597   0.04874   0.10615   0.10863   0.15912
 Alpha virt. eigenvalues --    0.16324   0.18968   0.21931   0.25112   0.27688
 Alpha virt. eigenvalues --    0.27773   0.28535   0.29971   0.31366   0.31859

 Mulliken charges:
               1
     1  C   -0.170194
     2  C   -0.223284
     3  C   -0.170748
     4  C    0.158992
     5  C   -0.168867
     6  C   -0.218589
     7  H    0.226311
     8  H    0.213970
     9  H    0.277505
    10  H    0.278291
    11  H    0.225872
    12  N    0.488181
    13  O   -0.458271
    14  O   -0.458675
    15  C   -0.172203
    16  C   -0.224519
    17  C   -0.168808
    18  C    0.160000
    19  C   -0.168890
    20  C   -0.217449
    21  H    0.222228
    22  H    0.217764
    23  H    0.277760
    24  H    0.277868
    25  H    0.225197
    26  N    0.488281
    27  O   -0.458775
    28  O   -0.458945
 Sum of Mulliken charges =  -0.00000

 Dipole moment (field-independent basis, Debye):
    X=             -2.5547    Y=             -8.3762    Z=              0.2707  Tot=              8.7613
 Quadrupole moment (field-independent basis, Debye-Ang):
   XX=           -112.8289   YY=           -109.8603   ZZ=           -103.4265
   XY=              1.0084   XZ=             22.2464   YZ=             -1.2850

 Normal termination of Gaussian 16 at Fri May  7 05:07:39 2021.
