 Gaussian 16, Revision A.03,
 Gaussian 16:  EM64L-G16RevA.03 25-Dec-2016

 -------------
 #p 6-31g* mp2
 -------------

 ------------------------------------------------------
 Input file generated by CHIRIPA (05-May-2021 14:51:11)
 ------------------------------------------------------
 Symbolic Z-matrix:
 Charge =  0 Multiplicity = 1

                         Standard orientation:
 ---------------------------------------------------------------------
 Center     Atomic      Atomic             Coordinates (Angstroms)
 Number     Number       Type             X           Y           Z
 ---------------------------------------------------------------------
      1          6           0       -3.175129    0.699728   -0.481196
      2          6           0       -2.957595    2.021989    0.255208
      3          6           0       -1.828221    2.856597   -0.349553
      4          1           0       -2.241318    0.121175   -0.466391
      5          1           0       -3.396932    0.908245   -1.536999
      6          1           0       -2.737632    1.811096    1.309606
      7          1           0       -3.892087    2.597378    0.238814
      8          1           0       -2.043882    3.096006   -1.395868
      9          1           0       -0.882869    2.305257   -0.318992
     10          1           0       -1.689905    3.797464    0.192201
     11          6           0       -4.300892   -0.145796    0.111656
     12          6           0       -4.518426   -1.468057   -0.624748
     13          6           0       -5.647800   -2.302665   -0.019987
     14          1           0       -4.079089   -0.354313    1.167459
     15          1           0       -5.234703    0.432757    0.096851
     16          1           0       -3.583934   -2.043446   -0.608354
     17          1           0       -4.738388   -1.257164   -1.679147
     18          1           0       -6.593152   -1.751325   -0.050549
     19          1           0       -5.432139   -2.542074    1.026328
     20          1           0       -5.786116   -3.243532   -0.561741
     21          6           0        4.275815   -0.260339   -0.357375
     22          6           0        5.692226   -0.446577    0.187676
     23          6           0        6.757073   -0.410949   -0.908966
     24          1           0        4.068415   -1.045316   -1.097471
     25          1           0        4.219637    0.697262   -0.893324
     26          1           0        5.745342   -1.402902    0.723622
     27          1           0        5.896208    0.338821    0.926699
     28          1           0        6.733099    0.547124   -1.438231
     29          1           0        6.581375   -1.204495   -1.642463
     30          1           0        7.762097   -0.546013   -0.497208
     31          6           0        3.200206   -0.293594    0.726916
     32          6           0        1.783795   -0.107354    0.181864
     33          6           0        0.718948   -0.142982    1.278506
     34          1           0        3.256384   -1.251194    1.262864
     35          1           0        3.407607    0.491384    1.467010
     36          1           0        1.579812   -0.892754   -0.557159
     37          1           0        1.730679    0.848970   -0.354082
     38          1           0        0.894646    0.650563    2.012003
     39          1           0        0.742922   -1.101056    1.807771
     40          1           0       -0.286076   -0.007919    0.866748
 ---------------------------------------------------------------------

 SCF Done:  E(RHF) =  -470.733056884     A.U. after   11 cycles
 E2 =    -0.1583293709D+01 EUMP2 =    -0.47231635059337D+03

 The electronic state is 1-A.
 Alpha  occ. eigenvalues --  -11.21661 -11.21616 -11.21595 -11.21586 -11.21434
 Alpha  occ. eigenvalues --  -11.21401 -11.21372 -11.21342 -11.21116 -11.21080
 Alpha  occ. eigenvalues --  -11.21064 -11.21036  -1.08469  -1.08422  -1.03587
 Alpha  occ. eigenvalues --   -1.03501  -0.96023  -0.95965  -0.87038  -0.86984
 Alpha  occ. eigenvalues --   -0.79629  -0.79581  -0.78273  -0.78243  -0.65127
 Alpha  occ. eigenvalues --   -0.65069  -0.61071  -0.60889  -0.59436  -0.59244
 Alpha  occ. eigenvalues --   -0.57626  -0.57566  -0.55390  -0.55166  -0.52732
 Alpha  occ. eigenvalues --   -0.52656  -0.52449  -0.52388  -0.49966  -0.49900
 Alpha  occ. eigenvalues --   -0.47974  -0.47874  -0.46681  -0.46584  -0.45816
 Alpha  occ. eigenvalues --   -0.45777  -0.45734  -0.45685  -0.43791  -0.43768
 Alpha virt. eigenvalues --    0.20317   0.22992   0.23625   0.25121   0.26246
 Alpha virt. eigenvalues --    0.26338   0.27059   0.27471   0.27836   0.29128
 Alpha virt. eigenvalues --    0.30686   0.31420   0.31522   0.31770   0.32088

 Mulliken charges:
               1
     1  C   -0.304200
     2  C   -0.300040
     3  C   -0.480186
     4  H    0.153522
     5  H    0.150035
     6  H    0.152805
     7  H    0.152253
     8  H    0.154931
     9  H    0.159955
    10  H    0.160052
    11  C   -0.298167
    12  C   -0.299696
    13  C   -0.475729
    14  H    0.149882
    15  H    0.149776
    16  H    0.151985
    17  H    0.151897
    18  H    0.155163
    19  H    0.155304
    20  H    0.160198
    21  C   -0.298365
    22  C   -0.299699
    23  C   -0.475737
    24  H    0.149718
    25  H    0.149782
    26  H    0.151922
    27  H    0.152012
    28  H    0.155284
    29  H    0.155206
    30  H    0.160303
    31  C   -0.298312
    32  C   -0.301496
    33  C   -0.484757
    34  H    0.149677
    35  H    0.149918
    36  H    0.152131
    37  H    0.153460
    38  H    0.155835
    39  H    0.155357
    40  H    0.168022
 Sum of Mulliken charges =  -0.00000

 Dipole moment (field-independent basis, Debye):
    X=              0.0136    Y=             -0.0034    Z=              0.0029  Tot=              0.0143
 Quadrupole moment (field-independent basis, Debye-Ang):
   XX=            -85.6880   YY=            -84.0763   ZZ=            -84.9593
   XY=             -0.7687   XZ=              1.2631   YZ=              0.0825

 Normal termination of Gaussian 16 at Thu May  6 00:40:51 2021.
