 Gaussian 16, Revision A.03,
 Gaussian 16:  EM64L-G16RevA.03 25-Dec-2016

 -------------
 #p 6-31g* mp2
 -------------

 ------------------------------------------------------
 Input file generated by CHIRIPA (05-May-2021 14:57:24)
 ------------------------------------------------------
 Symbolic Z-matrix:
 Charge =  0 Multiplicity = 1

                         Standard orientation:
 ---------------------------------------------------------------------
 Center     Atomic      Atomic             Coordinates (Angstroms)
 Number     Number       Type             X           Y           Z
 ---------------------------------------------------------------------
      1          6           0       -1.186981    0.998157    1.141155
      2          6           0       -2.103973    1.767571    0.417520
      3          6           0       -3.283999    1.195842   -0.067467
      4          6           0       -3.516127   -0.154250    0.190719
      5          6           0       -2.621981   -0.947088    0.908495
      6          6           0       -1.448450   -0.354332    1.383905
      7          1           0       -0.272831    1.450457    1.514185
      8          1           0       -1.903537    2.818170    0.227487
      9          1           0       -4.011090    1.768333   -0.630505
     10          1           0       -2.849445   -1.991869    1.082016
     11          1           0       -0.738103   -0.954297    1.945594
     12          7           0       -4.761929   -0.770643   -0.317645
     13          8           0       -4.943081   -1.962193   -0.076748
     14          8           0       -5.533647   -0.050552   -0.947373
     15          6           0        4.858072   -1.885390    0.190083
     16          6           0        5.031659   -0.673374    0.866402
     17          6           0        4.180314    0.407153    0.616959
     18          6           0        3.161219    0.240024   -0.319419
     19          6           0        2.962648   -0.954862   -1.009423
     20          6           0        3.825940   -2.022025   -0.744023
     21          1           0        5.524057   -2.719580    0.390055
     22          1           0        5.832371   -0.564394    1.592369
     23          1           0        4.292090    1.356640    1.126271
     24          1           0        2.155450   -1.033290   -1.727545
     25          1           0        3.688760   -2.962120   -1.270756
     26          7           0        2.253615    1.376856   -0.591939
     27          8           0        1.363396    1.204111   -1.421582
     28          8           0        2.449637    2.419122    0.029263
 ---------------------------------------------------------------------

 SCF Done:  E(RHF) =  -868.339269876     A.U. after   16 cycles
 E2 =    -0.2599646114D+01 EUMP2 =    -0.87093891599017D+03

 The electronic state is 1-A.
 Alpha  occ. eigenvalues --  -20.61808 -20.61741 -20.60197 -20.60182 -15.86777
 Alpha  occ. eigenvalues --  -15.85240 -11.31965 -11.30421 -11.28521 -11.28477
 Alpha  occ. eigenvalues --  -11.28194 -11.27471 -11.27440 -11.27040 -11.26917
 Alpha  occ. eigenvalues --  -11.26608 -11.26015 -11.25808  -1.60850  -1.59272
 Alpha  occ. eigenvalues --   -1.40398  -1.38831  -1.20119  -1.18566  -1.09547
 Alpha  occ. eigenvalues --   -1.07977  -1.05481  -1.03951  -0.96410  -0.94852
 Alpha  occ. eigenvalues --   -0.86885  -0.85349  -0.83237  -0.81703  -0.78315
 Alpha  occ. eigenvalues --   -0.76787  -0.72999  -0.72216  -0.71464  -0.71203
 Alpha  occ. eigenvalues --   -0.70593  -0.69620  -0.65761  -0.65466  -0.64219
 Alpha  occ. eigenvalues --   -0.63950  -0.62820  -0.61317  -0.55976  -0.54414
 Alpha  occ. eigenvalues --   -0.53832  -0.53556  -0.52274  -0.52045  -0.49784
 Alpha  occ. eigenvalues --   -0.49756  -0.48228  -0.48203  -0.45831  -0.44279
 Alpha  occ. eigenvalues --   -0.38095  -0.37083  -0.36464  -0.35545
 Alpha virt. eigenvalues --    0.04168   0.05755   0.10570   0.12121   0.15708
 Alpha virt. eigenvalues --    0.17301   0.20794   0.22218   0.26727   0.27658
 Alpha virt. eigenvalues --    0.28112   0.28968   0.30440   0.31688   0.31991

 Mulliken charges:
               1
     1  C   -0.167411
     2  C   -0.211473
     3  C   -0.172004
     4  C    0.157700
     5  C   -0.172580
     6  C   -0.221386
     7  H    0.230431
     8  H    0.229609
     9  H    0.274038
    10  H    0.270958
    11  H    0.216950
    12  N    0.488209
    13  O   -0.464253
    14  O   -0.461427
    15  C   -0.170228
    16  C   -0.218768
    17  C   -0.172660
    18  C    0.154969
    19  C   -0.171317
    20  C   -0.219148
    21  H    0.228411
    22  H    0.225500
    23  H    0.275360
    24  H    0.278789
    25  H    0.226789
    26  N    0.485158
    27  O   -0.454130
    28  O   -0.466085
 Sum of Mulliken charges =  -0.00000

 Dipole moment (field-independent basis, Debye):
    X=              7.9038    Y=             -1.7273    Z=              2.6078  Tot=              8.5002
 Quadrupole moment (field-independent basis, Debye-Ang):
   XX=           -115.2687   YY=           -102.3822   ZZ=           -102.9338
   XY=            -21.1994   XZ=             -0.8050   YZ=              1.8903

 Normal termination of Gaussian 16 at Fri May  7 00:21:40 2021.
