 Gaussian 16, Revision A.03,
 Gaussian 16:  EM64L-G16RevA.03 25-Dec-2016

 -------------
 #p 6-31g* mp2
 -------------

 ------------------------------------------------------
 Input file generated by CHIRIPA (05-May-2021 14:55:24)
 ------------------------------------------------------
 Symbolic Z-matrix:
 Charge =  0 Multiplicity = 1

                         Standard orientation:
 ---------------------------------------------------------------------
 Center     Atomic      Atomic             Coordinates (Angstroms)
 Number     Number       Type             X           Y           Z
 ---------------------------------------------------------------------
      1          6           0        1.654138    0.339208   -0.563852
      2          6           0        2.404071    1.478424   -0.253517
      3          6           0        3.771056    1.375559    0.020927
      4          6           0        4.358460    0.112142   -0.024066
      5          6           0        3.638173   -1.041476   -0.330075
      6          6           0        2.272492   -0.914895   -0.601075
      7          1           0        0.592737    0.428327   -0.775709
      8          1           0        1.926502    2.453664   -0.223878
      9          1           0        4.375356    2.241099    0.263988
     10          1           0        4.142185   -2.000075   -0.351916
     11          1           0        1.692570   -1.801344   -0.841791
     12          7           0        5.804936   -0.009310    0.264653
     13          8           0        6.298844   -1.133838    0.218509
     14          8           0        6.417385    1.022323    0.531627
     15          6           0       -5.823264    0.310854   -0.134064
     16          6           0       -7.211626   -0.072352    0.379346
     17          6           0       -8.300488    0.897449   -0.080719
     18          1           0       -5.580246    1.326231    0.207837
     19          1           0       -5.843159    0.347160   -1.232099
     20          1           0       -7.188761   -0.109275    1.476036
     21          1           0       -7.451287   -1.087008    0.036343
     22          1           0       -8.352391    0.927955   -1.173868
     23          1           0       -8.088374    1.911244    0.274005
     24          1           0       -9.284861    0.604656    0.297623
     25          6           0       -4.724099   -0.649180    0.317489
     26          6           0       -3.335737   -0.265974   -0.195922
     27          6           0       -2.246876   -1.235775    0.264143
     28          1           0       -4.704204   -0.685485    1.415524
     29          1           0       -4.967117   -1.664556   -0.024413
     30          1           0       -3.096075    0.748682    0.147081
     31          1           0       -3.358602   -0.229051   -1.292613
     32          1           0       -2.458989   -2.249570   -0.090581
     33          1           0       -2.194972   -1.266280    1.357293
     34          1           0       -1.262503   -0.942982   -0.114200
 ---------------------------------------------------------------------

 SCF Done:  E(RHF) =  -669.535408651     A.U. after   15 cycles
 E2 =    -0.2090859779D+01 EUMP2 =    -0.67162626843004D+03

 The electronic state is 1-A.
 Alpha  occ. eigenvalues --  -20.60738 -20.60733 -15.85792 -11.31157 -11.27725
 Alpha  occ. eigenvalues --  -11.27721 -11.27452 -11.26740 -11.26728 -11.22575
 Alpha  occ. eigenvalues --  -11.22231 -11.22133 -11.22104 -11.21983 -11.21499
 Alpha  occ. eigenvalues --   -1.59814  -1.39367  -1.19328  -1.09150  -1.08724
 Alpha  occ. eigenvalues --   -1.04731  -1.04282  -0.96737  -0.95560  -0.87754
 Alpha  occ. eigenvalues --   -0.86128  -0.82393  -0.80352  -0.78924  -0.77438
 Alpha  occ. eigenvalues --   -0.72010  -0.71137  -0.70467  -0.65771  -0.64983
 Alpha  occ. eigenvalues --   -0.64742  -0.62081  -0.61663  -0.60175  -0.58355
 Alpha  occ. eigenvalues --   -0.55997  -0.55267  -0.53439  -0.53152  -0.53028
 Alpha  occ. eigenvalues --   -0.52820  -0.50654  -0.48771  -0.48765  -0.48662
 Alpha  occ. eigenvalues --   -0.47369  -0.46475  -0.46371  -0.44773  -0.44531
 Alpha  occ. eigenvalues --   -0.37302  -0.36335
 Alpha virt. eigenvalues --    0.05086   0.11300   0.16543   0.19647   0.22396
 Alpha virt. eigenvalues --    0.23785   0.25960   0.25984   0.26729   0.27418
 Alpha virt. eigenvalues --    0.28659   0.30493   0.30719   0.31354   0.32089

 Mulliken charges:
               1
     1  C   -0.173788
     2  C   -0.218946
     3  C   -0.170931
     4  C    0.158397
     5  C   -0.171030
     6  C   -0.219662
     7  H    0.230273
     8  H    0.223552
     9  H    0.275459
    10  H    0.275595
    11  H    0.224053
    12  N    0.488065
    13  O   -0.460474
    14  O   -0.460507
    15  C   -0.298809
    16  C   -0.300227
    17  C   -0.476072
    18  H    0.149923
    19  H    0.150024
    20  H    0.152879
    21  H    0.152801
    22  H    0.155606
    23  H    0.155563
    24  H    0.161852
    25  C   -0.298814
    26  C   -0.300743
    27  C   -0.478549
    28  H    0.151560
    29  H    0.151452
    30  H    0.150892
    31  H    0.152120
    32  H    0.158958
    33  H    0.161095
    34  H    0.148432
 Sum of Mulliken charges =  -0.00000

 Dipole moment (field-independent basis, Debye):
    X=             -5.3229    Y=              0.4040    Z=             -0.9764  Tot=              5.4268
 Quadrupole moment (field-independent basis, Debye-Ang):
   XX=           -139.6792   YY=            -89.7429   ZZ=            -94.8232
   XY=              2.3332   XZ=             -4.4903   YZ=              1.3163

 Normal termination of Gaussian 16 at Wed May  5 22:22:03 2021.
