 Gaussian 16, Revision A.03,
 Gaussian 16:  EM64L-G16RevA.03 25-Dec-2016

 -------------
 #p 6-31g* mp2
 -------------

 ------------------------------------------------------
 Input file generated by CHIRIPA (05-May-2021 14:57:25)
 ------------------------------------------------------
 Symbolic Z-matrix:
 Charge =  0 Multiplicity = 1

                         Standard orientation:
 ---------------------------------------------------------------------
 Center     Atomic      Atomic             Coordinates (Angstroms)
 Number     Number       Type             X           Y           Z
 ---------------------------------------------------------------------
      1          6           0        4.044081    1.988442   -0.020630
      2          6           0        3.126133    1.646428    0.977828
      3          6           0        2.568455    0.365144    1.020889
      4          6           0        2.952882   -0.553451    0.045344
      5          6           0        3.864966   -0.242898   -0.962104
      6          6           0        4.409923    1.044352   -0.985708
      7          1           0        4.472358    2.986091   -0.046524
      8          1           0        2.840173    2.377583    1.728616
      9          1           0        1.855612    0.073717    1.782692
     10          1           0        4.130602   -0.993216   -1.696868
     11          1           0        5.122583    1.307171   -1.762294
     12          7           0        2.369227   -1.913047    0.080632
     13          8           0        2.724306   -2.704208   -0.790356
     14          8           0        1.567730   -2.161793    0.978610
     15          6           0       -1.764338    2.500744   -0.016646
     16          6           0       -3.119194    2.492654   -0.364237
     17          6           0       -3.840942    1.295420   -0.380297
     18          6           0       -3.173279    0.119454   -0.041741
     19          6           0       -1.824314    0.094975    0.308951
     20          6           0       -1.122354    1.303988    0.318249
     21          1           0       -1.211352    3.435359   -0.006797
     22          1           0       -3.620361    3.420554   -0.624774
     23          1           0       -4.890631    1.260446   -0.645528
     24          1           0       -1.352052   -0.845976    0.563897
     25          1           0       -0.070239    1.307261    0.588597
     26          7           0       -3.926887   -1.154240   -0.055163
     27          8           0       -3.315607   -2.176781    0.247133
     28          8           0       -5.114577   -1.105902   -0.367724
 ---------------------------------------------------------------------

 SCF Done:  E(RHF) =  -868.336984623     A.U. after   16 cycles
 E2 =    -0.2601778779D+01 EUMP2 =    -0.87093876340186D+03

 The electronic state is 1-A.
 Alpha  occ. eigenvalues --  -20.61543 -20.61498 -20.60319 -20.60279 -15.86562
 Alpha  occ. eigenvalues --  -15.85358 -11.32094 -11.30848 -11.28720 -11.28600
 Alpha  occ. eigenvalues --  -11.28386 -11.27765 -11.27635 -11.27496 -11.27341
 Alpha  occ. eigenvalues --  -11.27318 -11.26553 -11.26474  -1.60576  -1.59380
 Alpha  occ. eigenvalues --   -1.40129  -1.38925  -1.20276  -1.19062  -1.09618
 Alpha  occ. eigenvalues --   -1.08456  -1.05712  -1.04481  -0.96433  -0.95253
 Alpha  occ. eigenvalues --   -0.87081  -0.85886  -0.83262  -0.82085  -0.78307
 Alpha  occ. eigenvalues --   -0.77082  -0.72762  -0.71903  -0.71572  -0.71355
 Alpha  occ. eigenvalues --   -0.70710  -0.70188  -0.65919  -0.65688  -0.64718
 Alpha  occ. eigenvalues --   -0.64540  -0.63044  -0.61786  -0.56149  -0.55053
 Alpha  occ. eigenvalues --   -0.54056  -0.53773  -0.52822  -0.52500  -0.49532
 Alpha  occ. eigenvalues --   -0.49520  -0.48357  -0.48312  -0.45486  -0.44302
 Alpha  occ. eigenvalues --   -0.38230  -0.37301  -0.37092  -0.36091
 Alpha virt. eigenvalues --    0.04157   0.05438   0.10268   0.11545   0.15569
 Alpha virt. eigenvalues --    0.16858   0.20121   0.22000   0.25800   0.27040
 Alpha virt. eigenvalues --    0.28283   0.28865   0.30373   0.31203   0.32108

 Mulliken charges:
               1
     1  C   -0.170569
     2  C   -0.221220
     3  C   -0.183659
     4  C    0.161657
     5  C   -0.169576
     6  C   -0.217148
     7  H    0.228157
     8  H    0.224389
     9  H    0.275800
    10  H    0.279614
    11  H    0.227327
    12  N    0.488272
    13  O   -0.452544
    14  O   -0.461517
    15  C   -0.173339
    16  C   -0.219053
    17  C   -0.170839
    18  C    0.158413
    19  C   -0.179231
    20  C   -0.225201
    21  H    0.220541
    22  H    0.221286
    23  H    0.274973
    24  H    0.291448
    25  H    0.221877
    26  N    0.487271
    27  O   -0.453758
    28  O   -0.463372
 Sum of Mulliken charges =  -0.00000

 Dipole moment (field-independent basis, Debye):
    X=              5.0758    Y=              8.9690    Z=             -0.2018  Tot=             10.3076
 Quadrupole moment (field-independent basis, Debye-Ang):
   XX=           -104.4342   YY=           -108.5332   ZZ=           -102.1784
   XY=             -3.6586   XZ=             -2.1824   YZ=              0.4440

 Normal termination of Gaussian 16 at Wed May  5 22:46:38 2021.
