 Gaussian 16, Revision A.03,
 Gaussian 16:  EM64L-G16RevA.03 25-Dec-2016

 -------------
 #p 6-31g* mp2
 -------------

 ------------------------------------------------------
 Input file generated by CHIRIPA (05-May-2021 14:51:12)
 ------------------------------------------------------
 Symbolic Z-matrix:
 Charge =  0 Multiplicity = 1

                         Standard orientation:
 ---------------------------------------------------------------------
 Center     Atomic      Atomic             Coordinates (Angstroms)
 Number     Number       Type             X           Y           Z
 ---------------------------------------------------------------------
      1          6           0        3.841087   -0.250279   -0.440403
      2          6           0        3.435281   -1.716017   -0.282539
      3          6           0        4.594498   -2.680744   -0.534154
      4          1           0        4.237555   -0.093199   -1.452867
      5          1           0        4.662263   -0.027486    0.254888
      6          1           0        2.614186   -1.935616   -0.976942
      7          1           0        3.039556   -1.869584    0.729605
      8          1           0        5.413382   -2.490222    0.167082
      9          1           0        4.985596   -2.556628   -1.549161
     10          1           0        4.282243   -3.723046   -0.415992
     11          6           0        2.692934    0.726332   -0.192005
     12          6           0        3.098740    2.192070   -0.349870
     13          6           0        1.939522    3.156797   -0.098254
     14          1           0        1.871758    0.503539   -0.887296
     15          1           0        2.296466    0.569251    0.820459
     16          1           0        3.494465    2.345637   -1.362013
     17          1           0        3.919835    2.411668    0.344533
     18          1           0        1.548425    3.032681    0.916753
     19          1           0        1.120639    2.966274   -0.799490
     20          1           0        2.251778    4.199099   -0.216416
     21          6           0       -2.835045   -0.499532    0.889312
     22          6           0       -1.454349    0.154179    0.955083
     23          6           0       -0.601921   -0.379383    2.106808
     24          1           0       -3.357705   -0.334235    1.841389
     25          1           0       -2.713741   -1.586536    0.783950
     26          1           0       -1.578221    1.239765    1.058900
     27          1           0       -0.934990   -0.012528    0.002671
     28          1           0       -0.448841   -1.458639    2.004943
     29          1           0       -1.095726   -0.199232    3.067174
     30          1           0        0.380843    0.101481    2.135175
     31          6           0       -3.698976    0.023479   -0.256904
     32          6           0       -5.079671   -0.630232   -0.322675
     33          6           0       -5.932101   -0.096670   -1.474400
     34          1           0       -3.820280    1.110483   -0.151542
     35          1           0       -3.176315   -0.141817   -1.208980
     36          1           0       -5.599031   -0.463526    0.629738
     37          1           0       -4.955800   -1.715818   -0.426491
     38          1           0       -5.438294   -0.276821   -2.434766
     39          1           0       -6.085180    0.982586   -1.372535
     40          1           0       -6.914864   -0.577534   -1.502766
 ---------------------------------------------------------------------

 SCF Done:  E(RHF) =  -470.733197317     A.U. after   11 cycles
 E2 =    -0.1583296805D+01 EUMP2 =    -0.47231649412177D+03

 The electronic state is 1-A.
 Alpha  occ. eigenvalues --  -11.21605 -11.21602 -11.21588 -11.21542 -11.21404
 Alpha  occ. eigenvalues --  -11.21380 -11.21344 -11.21318 -11.21073 -11.21069
 Alpha  occ. eigenvalues --  -11.21062 -11.21012  -1.08445  -1.08391  -1.03539
 Alpha  occ. eigenvalues --   -1.03489  -0.95994  -0.95939  -0.87012  -0.86956
 Alpha  occ. eigenvalues --   -0.79600  -0.79552  -0.78288  -0.78181  -0.65080
 Alpha  occ. eigenvalues --   -0.65029  -0.60940  -0.60886  -0.59438  -0.59254
 Alpha  occ. eigenvalues --   -0.57663  -0.57494  -0.55277  -0.55233  -0.52735
 Alpha  occ. eigenvalues --   -0.52647  -0.52453  -0.52294  -0.49929  -0.49885
 Alpha  occ. eigenvalues --   -0.47905  -0.47899  -0.46637  -0.46588  -0.45879
 Alpha  occ. eigenvalues --   -0.45725  -0.45701  -0.45566  -0.43791  -0.43712
 Alpha virt. eigenvalues --    0.20904   0.23167   0.23655   0.24573   0.25095
 Alpha virt. eigenvalues --    0.26348   0.26868   0.27766   0.28201   0.29515
 Alpha virt. eigenvalues --    0.30521   0.31377   0.31597   0.31994   0.32030

 Mulliken charges:
               1
     1  C   -0.297826
     2  C   -0.299998
     3  C   -0.475676
     4  H    0.149576
     5  H    0.149446
     6  H    0.151374
     7  H    0.152781
     8  H    0.155257
     9  H    0.155126
    10  H    0.160201
    11  C   -0.305406
    12  C   -0.299413
    13  C   -0.476359
    14  H    0.150777
    15  H    0.156063
    16  H    0.151921
    17  H    0.151753
    18  H    0.155179
    19  H    0.156070
    20  H    0.160201
    21  C   -0.298456
    22  C   -0.300512
    23  C   -0.479937
    24  H    0.149522
    25  H    0.149391
    26  H    0.152307
    27  H    0.153498
    28  H    0.155093
    29  H    0.154489
    30  H    0.163900
    31  C   -0.298180
    32  C   -0.299610
    33  C   -0.475686
    34  H    0.149603
    35  H    0.149245
    36  H    0.151956
    37  H    0.151872
    38  H    0.155052
    39  H    0.155197
    40  H    0.160209
 Sum of Mulliken charges =  -0.00000

 Dipole moment (field-independent basis, Debye):
    X=              0.0173    Y=              0.0078    Z=             -0.0040  Tot=              0.0194
 Quadrupole moment (field-independent basis, Debye-Ang):
   XX=            -85.7361   YY=            -85.0282   ZZ=            -84.0849
   XY=              0.5321   XZ=             -0.4225   YZ=              0.5953

 Normal termination of Gaussian 16 at Wed May  5 16:49:23 2021.
