 Gaussian 16, Revision A.03,
 Gaussian 16:  EM64L-G16RevA.03 25-Dec-2016

 -------------
 #p 6-31g* mp2
 -------------

 ------------------------------------------------------
 Input file generated by CHIRIPA (05-May-2021 14:57:21)
 ------------------------------------------------------
 Symbolic Z-matrix:
 Charge =  0 Multiplicity = 1

                         Standard orientation:
 ---------------------------------------------------------------------
 Center     Atomic      Atomic             Coordinates (Angstroms)
 Number     Number       Type             X           Y           Z
 ---------------------------------------------------------------------
      1          6           0       -3.321663    2.552688    0.278935
      2          6           0       -2.279811    1.656160    0.019510
      3          6           0       -2.544742    0.297763   -0.178271
      4          6           0       -3.869179   -0.131663   -0.109364
      5          6           0       -4.928862    0.736946    0.147308
      6          6           0       -4.640539    2.091034    0.341895
      7          1           0       -3.106773    3.606250    0.431336
      8          1           0       -1.254592    2.011863   -0.029957
      9          1           0       -1.757286   -0.418027   -0.380697
     10          1           0       -5.940706    0.352608    0.190598
     11          1           0       -5.451659    2.785012    0.543202
     12          7           0       -4.162032   -1.567456   -0.317055
     13          8           0       -5.337428   -1.920659   -0.251263
     14          8           0       -3.210628   -2.312440   -0.541703
     15          6           0        1.419952   -0.495185    0.745240
     16          6           0        1.720062   -0.006530   -0.530563
     17          6           0        3.046772    0.213449   -0.912659
     18          6           0        4.053030   -0.067250    0.010351
     19          6           0        3.786046   -0.554878    1.288719
     20          6           0        2.452082   -0.767319    1.649215
     21          1           0        0.386514   -0.663142    1.033671
     22          1           0        0.920539    0.205697   -1.234669
     23          1           0        3.307365    0.591068   -1.893940
     24          1           0        4.604568   -0.757116    1.968822
     25          1           0        2.221974   -1.146885    2.640692
     26          7           0        5.461398    0.161642   -0.382724
     27          8           0        6.329745   -0.093521    0.448842
     28          8           0        5.670263    0.591879   -1.514939
 ---------------------------------------------------------------------

 SCF Done:  E(RHF) =  -868.337031067     A.U. after   16 cycles
 E2 =    -0.2600435470D+01 EUMP2 =    -0.87093746653714D+03

 The electronic state is 1-A.
 Alpha  occ. eigenvalues --  -20.61586 -20.61565 -20.61060 -20.61053 -15.86634
 Alpha  occ. eigenvalues --  -15.86118 -11.32111 -11.31578 -11.28792 -11.28599
 Alpha  occ. eigenvalues --  -11.28348 -11.28200 -11.28138 -11.27975 -11.27741
 Alpha  occ. eigenvalues --  -11.27619 -11.27303 -11.27156  -1.60650  -1.60133
 Alpha  occ. eigenvalues --   -1.40203  -1.39684  -1.20268  -1.19775  -1.09621
 Alpha  occ. eigenvalues --   -1.09166  -1.05705  -1.05193  -0.96456  -0.95976
 Alpha  occ. eigenvalues --   -0.87076  -0.86604  -0.83296  -0.82803  -0.78356
 Alpha  occ. eigenvalues --   -0.77821  -0.72848  -0.72336  -0.71977  -0.71457
 Alpha  occ. eigenvalues --   -0.71426  -0.70852  -0.65925  -0.65688  -0.65440
 Alpha  occ. eigenvalues --   -0.65235  -0.63065  -0.62501  -0.56150  -0.55719
 Alpha  occ. eigenvalues --   -0.53988  -0.53794  -0.53490  -0.53294  -0.49616
 Alpha  occ. eigenvalues --   -0.49597  -0.49103  -0.49082  -0.45586  -0.45067
 Alpha  occ. eigenvalues --   -0.38204  -0.37776  -0.37302  -0.36791
 Alpha virt. eigenvalues --    0.04169   0.04718   0.10326   0.10758   0.15645
 Alpha virt. eigenvalues --    0.16186   0.17968   0.22020   0.24789   0.26788
 Alpha virt. eigenvalues --    0.27458   0.29391   0.30270   0.30878   0.31591

 Mulliken charges:
               1
     1  C   -0.170334
     2  C   -0.220221
     3  C   -0.181270
     4  C    0.161622
     5  C   -0.169852
     6  C   -0.217478
     7  H    0.229428
     8  H    0.223576
     9  H    0.269629
    10  H    0.278504
    11  H    0.227213
    12  N    0.487919
    13  O   -0.456447
    14  O   -0.461988
    15  C   -0.173659
    16  C   -0.223519
    17  C   -0.169672
    18  C    0.158710
    19  C   -0.169853
    20  C   -0.218190
    21  H    0.226453
    22  H    0.218743
    23  H    0.276958
    24  H    0.277484
    25  H    0.226804
    26  N    0.487990
    27  O   -0.458912
    28  O   -0.459638
 Sum of Mulliken charges =  -0.00000

 Dipole moment (field-independent basis, Debye):
    X=             -4.0422    Y=              4.3072    Z=              2.2016  Tot=              6.3039
 Quadrupole moment (field-independent basis, Debye-Ang):
   XX=           -146.2471   YY=           -106.3413   ZZ=           -101.6633
   XY=            -24.8846   XZ=              3.4867   YZ=             -2.2873

 Normal termination of Gaussian 16 at Wed May  5 22:32:10 2021.
