 Gaussian 16, Revision A.03,
 Gaussian 16:  EM64L-G16RevA.03 25-Dec-2016

 -------------
 #p 6-31g* mp2
 -------------

 ------------------------------------------------------
 Input file generated by CHIRIPA (05-May-2021 14:55:23)
 ------------------------------------------------------
 Symbolic Z-matrix:
 Charge =  0 Multiplicity = 1

                         Standard orientation:
 ---------------------------------------------------------------------
 Center     Atomic      Atomic             Coordinates (Angstroms)
 Number     Number       Type             X           Y           Z
 ---------------------------------------------------------------------
      1          6           0        3.736460   -1.580274   -1.036969
      2          6           0        2.351764   -1.486662   -1.211257
      3          6           0        1.649857   -0.374981   -0.735821
      4          6           0        2.367571    0.629154   -0.087833
      5          6           0        3.747220    0.564906    0.101195
      6          6           0        4.428548   -0.555997   -0.382454
      7          1           0        4.273725   -2.447437   -1.409489
      8          1           0        1.811674   -2.280615   -1.719181
      9          1           0        0.577910   -0.276903   -0.857177
     10          1           0        4.258156    1.372319    0.611536
     11          1           0        5.503925   -0.626013   -0.245677
     12          7           0        1.635387    1.810923    0.419837
     13          8           0        2.290871    2.682091    0.987324
     14          8           0        0.419880    1.843647    0.240649
     15          6           0       -3.813843   -0.483524   -0.207881
     16          6           0       -4.297762    0.961396   -0.334427
     17          6           0       -5.556745    1.090175   -1.192432
     18          1           0       -3.618689   -0.887308   -1.210786
     19          1           0       -4.617541   -1.095490    0.224510
     20          1           0       -3.492907    1.570727   -0.765169
     21          1           0       -4.491605    1.361848    0.668907
     22          1           0       -6.377188    0.506398   -0.762686
     23          1           0       -5.372815    0.716465   -2.204910
     24          1           0       -5.885250    2.131325   -1.269557
     25          6           0       -2.556062   -0.628500    0.646928
     26          6           0       -2.072143   -2.073419    0.773474
     27          6           0       -0.813160   -2.202198    1.631479
     28          1           0       -1.752364   -0.016535    0.214537
     29          1           0       -2.751217   -0.224716    1.649833
     30          1           0       -1.878301   -2.473873   -0.229860
     31          1           0       -2.876998   -2.682751    1.204215
     32          1           0       -0.997091   -1.828488    2.643956
     33          1           0        0.007282   -1.618423    1.201733
     34          1           0       -0.484655   -3.243350    1.708604
 ---------------------------------------------------------------------

 SCF Done:  E(RHF) =  -669.534880681     A.U. after   15 cycles
 E2 =    -0.2093788753D+01 EUMP2 =    -0.67162866943413D+03

 The electronic state is 1-A.
 Alpha  occ. eigenvalues --  -20.60919 -20.60913 -15.85957 -11.31299 -11.27857
 Alpha  occ. eigenvalues --  -11.27853 -11.27589 -11.26869 -11.26858 -11.21537
 Alpha  occ. eigenvalues --  -11.21060 -11.20999 -11.20996 -11.20881 -11.20655
 Alpha  occ. eigenvalues --   -1.59983  -1.39539  -1.19474  -1.08864  -1.08091
 Alpha  occ. eigenvalues --   -1.04878  -1.03250  -0.95720  -0.95681  -0.86718
 Alpha  occ. eigenvalues --   -0.86271  -0.82541  -0.79306  -0.77918  -0.77526
 Alpha  occ. eigenvalues --   -0.72183  -0.71298  -0.70592  -0.65126  -0.64997
 Alpha  occ. eigenvalues --   -0.64643  -0.62249  -0.60634  -0.59064  -0.57289
 Alpha  occ. eigenvalues --   -0.55372  -0.55039  -0.53206  -0.52962  -0.52409
 Alpha  occ. eigenvalues --   -0.52081  -0.49669  -0.48950  -0.48928  -0.47604
 Alpha  occ. eigenvalues --   -0.46340  -0.45428  -0.45337  -0.44811  -0.43467
 Alpha  occ. eigenvalues --   -0.37438  -0.36415
 Alpha virt. eigenvalues --    0.04906   0.11104   0.16402   0.20206   0.23113
 Alpha virt. eigenvalues --    0.24451   0.26360   0.27324   0.27858   0.28257
 Alpha virt. eigenvalues --    0.29321   0.31005   0.31648   0.31904   0.32282

 Mulliken charges:
               1
     1  C   -0.170236
     2  C   -0.219670
     3  C   -0.173005
     4  C    0.156994
     5  C   -0.170319
     6  C   -0.218381
     7  H    0.226217
     8  H    0.224959
     9  H    0.282350
    10  H    0.275956
    11  H    0.223959
    12  N    0.491170
    13  O   -0.459083
    14  O   -0.464889
    15  C   -0.297350
    16  C   -0.300659
    17  C   -0.475602
    18  H    0.143957
    19  H    0.147372
    20  H    0.160032
    21  H    0.153805
    22  H    0.153190
    23  H    0.152644
    24  H    0.160873
    25  C   -0.312522
    26  C   -0.300544
    27  C   -0.479152
    28  H    0.169780
    29  H    0.153733
    30  H    0.141581
    31  H    0.152705
    32  H    0.159479
    33  H    0.154661
    34  H    0.155997
 Sum of Mulliken charges =  -0.00000

 Dipole moment (field-independent basis, Debye):
    X=              2.7248    Y=             -3.9569    Z=             -1.7348  Tot=              5.1080
 Quadrupole moment (field-independent basis, Debye-Ang):
   XX=            -79.5751   YY=           -100.2301   ZZ=            -94.2318
   XY=             -6.6444   XZ=             -4.1829   YZ=              0.2171

 Normal termination of Gaussian 16 at Thu May  6 11:01:33 2021.
