 Gaussian 16, Revision A.03,
 Gaussian 16:  EM64L-G16RevA.03 25-Dec-2016

 -------------
 #p 6-31g* mp2
 -------------

 ------------------------------------------------------
 Input file generated by CHIRIPA (05-May-2021 14:51:10)
 ------------------------------------------------------
 Symbolic Z-matrix:
 Charge =  0 Multiplicity = 1

                         Standard orientation:
 ---------------------------------------------------------------------
 Center     Atomic      Atomic             Coordinates (Angstroms)
 Number     Number       Type             X           Y           Z
 ---------------------------------------------------------------------
      1          6           0       -2.954992   -0.032918    0.145629
      2          6           0       -2.185333   -1.344466    0.305168
      3          6           0       -0.677570   -1.131955    0.444031
      4          1           0       -2.575996    0.502364   -0.735722
      5          1           0       -2.752816    0.610614    1.013031
      6          1           0       -2.389993   -1.985892   -0.561609
      7          1           0       -2.566336   -1.876778    1.186131
      8          1           0       -0.454757   -0.512873    1.319070
      9          1           0       -0.277412   -0.622607   -0.438601
     10          1           0       -0.146880   -2.082474    0.556918
     11          6           0       -4.463539   -0.228932    0.005658
     12          6           0       -5.233198    1.082615   -0.153881
     13          6           0       -6.740961    0.870104   -0.292744
     14          1           0       -4.665714   -0.872465   -0.861745
     15          1           0       -4.842535   -0.764214    0.887009
     16          1           0       -4.852195    1.614927   -1.034845
     17          1           0       -5.028538    1.724042    0.712896
     18          1           0       -7.141118    0.360756    0.589888
     19          1           0       -6.963773    0.251022   -1.167783
     20          1           0       -7.271650    1.820623   -0.405632
     21          6           0        3.981811   -0.580057   -0.136101
     22          6           0        2.890409   -1.650889   -0.124068
     23          6           0        3.451323   -3.068053   -0.245788
     24          1           0        4.562345   -0.667660   -1.064677
     25          1           0        4.681743   -0.770509    0.689259
     26          1           0        2.191968   -1.457672   -0.948364
     27          1           0        2.312285   -1.560604    0.804499
     28          1           0        4.132514   -3.285281    0.583302
     29          1           0        4.011513   -3.181764   -1.179520
     30          1           0        2.653973   -3.817706   -0.235079
     31          6           0        3.436719    0.841907   -0.015185
     32          6           0        4.528121    1.912740   -0.027218
     33          6           0        3.967208    3.329905    0.094502
     34          1           0        2.736788    1.032360   -0.840546
     35          1           0        2.856186    0.929511    0.913389
     36          1           0        5.106246    1.822454   -0.955786
     37          1           0        5.226562    1.719523    0.797078
     38          1           0        3.407016    3.443615    1.028233
     39          1           0        3.286016    3.547131   -0.734589
     40          1           0        4.764558    4.079557    0.083791
 ---------------------------------------------------------------------

 SCF Done:  E(RHF) =  -470.732463230     A.U. after   11 cycles
 E2 =    -0.1583146074D+01 EUMP2 =    -0.47231560930404D+03

 The electronic state is 1-A.
 Alpha  occ. eigenvalues --  -11.21588 -11.21562 -11.21543 -11.21436 -11.21382
 Alpha  occ. eigenvalues --  -11.21337 -11.21322 -11.21271 -11.21062 -11.21043
 Alpha  occ. eigenvalues --  -11.21015 -11.20978  -1.08412  -1.08355  -1.03535
 Alpha  occ. eigenvalues --   -1.03433  -0.95973  -0.95905  -0.87027  -0.86892
 Alpha  occ. eigenvalues --   -0.79738  -0.79385  -0.78267  -0.78095  -0.65056
 Alpha  occ. eigenvalues --   -0.64979  -0.60953  -0.60820  -0.59500  -0.59143
 Alpha  occ. eigenvalues --   -0.57646  -0.57440  -0.55255  -0.55201  -0.52751
 Alpha  occ. eigenvalues --   -0.52565  -0.52396  -0.52298  -0.49957  -0.49821
 Alpha  occ. eigenvalues --   -0.47917  -0.47796  -0.46698  -0.46473  -0.45873
 Alpha  occ. eigenvalues --   -0.45722  -0.45613  -0.45531  -0.43777  -0.43617
 Alpha virt. eigenvalues --    0.21987   0.23059   0.23701   0.24788   0.25622
 Alpha virt. eigenvalues --    0.26087   0.26925   0.27151   0.27863   0.29454
 Alpha virt. eigenvalues --    0.30517   0.30949   0.31601   0.31835   0.32391

 Mulliken charges:
               1
     1  C   -0.298409
     2  C   -0.301114
     3  C   -0.474977
     4  H    0.149418
     5  H    0.149387
     6  H    0.151457
     7  H    0.151378
     8  H    0.153774
     9  H    0.156572
    10  H    0.162616
    11  C   -0.298188
    12  C   -0.299576
    13  C   -0.475679
    14  H    0.149405
    15  H    0.149569
    16  H    0.151865
    17  H    0.151897
    18  H    0.155146
    19  H    0.155134
    20  H    0.160206
    21  C   -0.298251
    22  C   -0.302325
    23  C   -0.476459
    24  H    0.148847
    25  H    0.148850
    26  H    0.153952
    27  H    0.157014
    28  H    0.154800
    29  H    0.154825
    30  H    0.159405
    31  C   -0.298168
    32  C   -0.299567
    33  C   -0.475581
    34  H    0.148959
    35  H    0.150004
    36  H    0.151772
    37  H    0.151826
    38  H    0.155099
    39  H    0.155039
    40  H    0.160075
 Sum of Mulliken charges =  -0.00000

 Dipole moment (field-independent basis, Debye):
    X=             -0.0032    Y=             -0.0022    Z=              0.0079  Tot=              0.0088
 Quadrupole moment (field-independent basis, Debye-Ang):
   XX=            -86.3834   YY=            -86.0694   ZZ=            -82.6945
   XY=              0.2833   XZ=             -0.1009   YZ=             -0.0967

 Normal termination of Gaussian 16 at Wed May  5 15:09:29 2021.
