 Gaussian 16, Revision A.03,
 Gaussian 16:  EM64L-G16RevA.03 25-Dec-2016

 -------------
 #p 6-31g* mp2
 -------------

 ------------------------------------------------------
 Input file generated by CHIRIPA (05-May-2021 14:53:18)
 ------------------------------------------------------
 Symbolic Z-matrix:
 Charge =  0 Multiplicity = 1

                         Standard orientation:
 ---------------------------------------------------------------------
 Center     Atomic      Atomic             Coordinates (Angstroms)
 Number     Number       Type             X           Y           Z
 ---------------------------------------------------------------------
      1          6           0       -4.379804    0.247585    0.229441
      2          6           0       -5.671765    0.480144   -0.554611
      3          6           0       -6.591114    1.504453    0.111258
      4          1           0       -4.630158   -0.087953    1.245159
      5          1           0       -3.848007    1.202986    0.338055
      6          1           0       -6.200284   -0.475657   -0.662908
      7          1           0       -5.418302    0.814984   -1.568640
      8          1           0       -6.086394    2.471423    0.205208
      9          1           0       -6.872820    1.173449    1.116086
     10          1           0       -7.508697    1.655361   -0.465916
     11          6           0       -3.450355   -0.773861   -0.423629
     12          6           0       -2.158394   -1.006419    0.360424
     13          6           0       -1.239044   -2.030728   -0.305445
     14          1           0       -3.982152   -1.729261   -0.532242
     15          1           0       -3.200000   -0.438322   -1.439346
     16          1           0       -2.411857   -1.341259    1.374453
     17          1           0       -1.629874   -0.050618    0.468721
     18          1           0       -0.957339   -1.699724   -1.310273
     19          1           0       -1.743765   -2.997698   -0.399395
     20          1           0       -0.321462   -2.181636    0.271729
     21          6           0        2.756664   -2.292913    0.255511
     22          6           0        3.483144   -1.750421   -0.809594
     23          6           0        3.656842   -0.367539   -0.919199
     24          6           0        3.087851    0.447121    0.058486
     25          6           0        2.358713   -0.063180    1.131444
     26          6           0        2.197751   -1.449048    1.220928
     27          1           0        2.626678   -3.368329    0.332840
     28          1           0        3.918325   -2.403363   -1.560813
     29          1           0        4.214559    0.079085   -1.733385
     30          1           0        1.936727    0.613145    1.864883
     31          1           0        1.633064   -1.867562    2.049192
     32          7           0        3.264995    1.912697   -0.046898
     33          8           0        2.753730    2.608936    0.827457
     34          8           0        3.911752    2.337427   -1.001858
 ---------------------------------------------------------------------

 SCF Done:  E(RHF) =  -669.534791145     A.U. after   15 cycles
 E2 =    -0.2092304748D+01 EUMP2 =    -0.67162709589263D+03

 The electronic state is 1-A.
 Alpha  occ. eigenvalues --  -20.60805 -20.60800 -15.85859 -11.31237 -11.27804
 Alpha  occ. eigenvalues --  -11.27801 -11.27544 -11.26822 -11.26812 -11.21894
 Alpha  occ. eigenvalues --  -11.21668 -11.21573 -11.21468 -11.21352 -11.21095
 Alpha  occ. eigenvalues --   -1.59881  -1.39434  -1.19416  -1.08813  -1.08589
 Alpha  occ. eigenvalues --   -1.04826  -1.03703  -0.96155  -0.95637  -0.87181
 Alpha  occ. eigenvalues --   -0.86218  -0.82470  -0.79777  -0.78396  -0.77517
 Alpha  occ. eigenvalues --   -0.72078  -0.71204  -0.70514  -0.65216  -0.65070
 Alpha  occ. eigenvalues --   -0.64841  -0.62179  -0.61097  -0.59573  -0.57792
 Alpha  occ. eigenvalues --   -0.55434  -0.55315  -0.53453  -0.52922  -0.52688
 Alpha  occ. eigenvalues --   -0.52409  -0.50083  -0.48838  -0.48831  -0.48092
 Alpha  occ. eigenvalues --   -0.46804  -0.45942  -0.45853  -0.44837  -0.43976
 Alpha  occ. eigenvalues --   -0.37334  -0.36375
 Alpha virt. eigenvalues --    0.05007   0.11121   0.16472   0.20990   0.22791
 Alpha virt. eigenvalues --    0.24229   0.26471   0.26729   0.27341   0.28155
 Alpha virt. eigenvalues --    0.28425   0.30751   0.31236   0.31722   0.31967

 Mulliken charges:
               1
     1  C   -0.298914
     2  C   -0.299841
     3  C   -0.475957
     4  H    0.148776
     5  H    0.151966
     6  H    0.151237
     7  H    0.152814
     8  H    0.156659
     9  H    0.154779
    10  H    0.160552
    11  C   -0.298155
    12  C   -0.300351
    13  C   -0.479010
    14  H    0.148863
    15  H    0.151258
    16  H    0.148581
    17  H    0.153929
    18  H    0.157356
    19  H    0.152211
    20  H    0.158163
    21  C   -0.168045
    22  C   -0.218228
    23  C   -0.170829
    24  C    0.158415
    25  C   -0.171050
    26  C   -0.219468
    27  H    0.226615
    28  H    0.223846
    29  H    0.275791
    30  H    0.276033
    31  H    0.224630
    32  N    0.488028
    33  O   -0.460356
    34  O   -0.460298
 Sum of Mulliken charges =  -0.00000

 Dipole moment (field-independent basis, Debye):
    X=             -0.5765    Y=             -5.1178    Z=              0.3405  Tot=              5.1614
 Quadrupole moment (field-independent basis, Debye-Ang):
   XX=            -98.0244   YY=           -100.0360   ZZ=            -91.2927
   XY=            -16.1786   XZ=             -1.4009   YZ=             -0.1796

 Normal termination of Gaussian 16 at Thu May  6 10:44:28 2021.
