 Gaussian 16, Revision A.03,
 Gaussian 16:  EM64L-G16RevA.03 25-Dec-2016

 -------------
 #p 6-31g* mp2
 -------------

 ------------------------------------------------------
 Input file generated by CHIRIPA (05-May-2021 14:53:18)
 ------------------------------------------------------
 Symbolic Z-matrix:
 Charge =  0 Multiplicity = 1

                         Standard orientation:
 ---------------------------------------------------------------------
 Center     Atomic      Atomic             Coordinates (Angstroms)
 Number     Number       Type             X           Y           Z
 ---------------------------------------------------------------------
      1          6           0       -3.539898    0.853910   -0.318641
      2          6           0       -2.478582    1.838692    0.173090
      3          6           0       -2.563246    3.196376   -0.524992
      4          1           0       -3.430068    0.717632   -1.403219
      5          1           0       -4.536136    1.288593   -0.157531
      6          1           0       -1.484691    1.401697    0.012370
      7          1           0       -2.590830    1.972494    1.256655
      8          1           0       -3.541662    3.656983   -0.354274
      9          1           0       -2.429238    3.082943   -1.605629
     10          1           0       -1.795528    3.884885   -0.158352
     11          6           0       -3.468108   -0.507892    0.369886
     12          6           0       -4.529424   -1.492674   -0.121845
     13          6           0       -4.444760   -2.850358    0.576237
     14          1           0       -2.471870   -0.942575    0.208776
     15          1           0       -3.577938   -0.371614    1.454464
     16          1           0       -4.417176   -1.626476   -1.205410
     17          1           0       -5.523315   -1.055679    0.038875
     18          1           0       -4.578768   -2.736925    1.656873
     19          1           0       -3.466344   -3.310965    0.405518
     20          1           0       -5.212478   -3.538867    0.209596
     21          6           0        3.152098   -2.599708   -0.366509
     22          6           0        1.879979   -2.064943   -0.595117
     23          6           0        1.638792   -0.700852   -0.406349
     24          6           0        2.697421    0.103099    0.013480
     25          6           0        3.975911   -0.399907    0.249563
     26          6           0        4.194166   -1.766951    0.054359
     27          1           0        3.330551   -3.660513   -0.515649
     28          1           0        1.068808   -2.709291   -0.922015
     29          1           0        0.663708   -0.260568   -0.575992
     30          1           0        4.764655    0.267500    0.574937
     31          1           0        5.183133   -2.179501    0.232668
     32          7           0        2.454226    1.548764    0.216727
     33          8           0        3.403655    2.235865    0.587015
     34          8           0        1.318784    1.967402    0.001896
 ---------------------------------------------------------------------

 SCF Done:  E(RHF) =  -669.535845712     A.U. after   15 cycles
 E2 =    -0.2091736335D+01 EUMP2 =    -0.67162758204723D+03

 The electronic state is 1-A.
 Alpha  occ. eigenvalues --  -20.60892 -20.60887 -15.85933 -11.31268 -11.27841
 Alpha  occ. eigenvalues --  -11.27829 -11.27571 -11.26846 -11.26836 -11.21683
 Alpha  occ. eigenvalues --  -11.21401 -11.21260 -11.21065 -11.20845 -11.20193
 Alpha  occ. eigenvalues --   -1.59959  -1.39514  -1.19439  -1.08839  -1.08228
 Alpha  occ. eigenvalues --   -1.04839  -1.03208  -0.95704  -0.95660  -0.86707
 Alpha  occ. eigenvalues --   -0.86239  -0.82516  -0.79332  -0.78003  -0.77536
 Alpha  occ. eigenvalues --   -0.72160  -0.71273  -0.70550  -0.65102  -0.64918
 Alpha  occ. eigenvalues --   -0.64802  -0.62193  -0.60606  -0.59093  -0.57241
 Alpha  occ. eigenvalues --   -0.55341  -0.55004  -0.53167  -0.52936  -0.52336
 Alpha  occ. eigenvalues --   -0.52105  -0.49673  -0.48940  -0.48905  -0.47608
 Alpha  occ. eigenvalues --   -0.46396  -0.45519  -0.45411  -0.44885  -0.43481
 Alpha  occ. eigenvalues --   -0.37416  -0.36439
 Alpha virt. eigenvalues --    0.04961   0.11208   0.16458   0.19814   0.22894
 Alpha virt. eigenvalues --    0.24193   0.25265   0.27257   0.27679   0.28192
 Alpha virt. eigenvalues --    0.29664   0.30295   0.31577   0.31849   0.32645

 Mulliken charges:
               1
     1  C   -0.298734
     2  C   -0.308119
     3  C   -0.474711
     4  H    0.146474
     5  H    0.149188
     6  H    0.167136
     7  H    0.150890
     8  H    0.149393
     9  H    0.152076
    10  H    0.172471
    11  C   -0.295343
    12  C   -0.299451
    13  C   -0.474547
    14  H    0.138386
    15  H    0.151705
    16  H    0.150342
    17  H    0.153958
    18  H    0.156498
    19  H    0.149815
    20  H    0.160352
    21  C   -0.170299
    22  C   -0.220367
    23  C   -0.172289
    24  C    0.156637
    25  C   -0.170304
    26  C   -0.218785
    27  H    0.225995
    28  H    0.223930
    29  H    0.281189
    30  H    0.275796
    31  H    0.223770
    32  N    0.491928
    33  O   -0.459496
    34  O   -0.465484
 Sum of Mulliken charges =  -0.00000

 Dipole moment (field-independent basis, Debye):
    X=              1.0103    Y=             -4.9605    Z=             -0.6680  Tot=              5.1062
 Quadrupole moment (field-independent basis, Debye-Ang):
   XX=            -85.4123   YY=            -97.0933   ZZ=            -94.9693
   XY=            -13.5592   XZ=             -1.0405   YZ=              0.8257

 Normal termination of Gaussian 16 at Thu May  6 06:02:08 2021.
