 Gaussian 16, Revision A.03,
 Gaussian 16:  EM64L-G16RevA.03 25-Dec-2016

 -------------
 #p 6-31g* mp2
 -------------

 ------------------------------------------------------
 Input file generated by CHIRIPA (05-May-2021 14:57:22)
 ------------------------------------------------------
 Symbolic Z-matrix:
 Charge =  0 Multiplicity = 1

                         Standard orientation:
 ---------------------------------------------------------------------
 Center     Atomic      Atomic             Coordinates (Angstroms)
 Number     Number       Type             X           Y           Z
 ---------------------------------------------------------------------
      1          6           0       -1.106760    0.307642   -0.694504
      2          6           0       -1.912764    1.440706   -0.542702
      3          6           0       -3.285611    1.309872   -0.313087
      4          6           0       -3.821637    0.025063   -0.240764
      5          6           0       -3.044868   -1.123103   -0.387849
      6          6           0       -1.674384   -0.968397   -0.616730
      7          1           0       -0.041218    0.418549   -0.872589
      8          1           0       -1.474669    2.432940   -0.602625
      9          1           0       -3.932774    2.170053   -0.191898
     10          1           0       -3.510343   -2.099093   -0.323082
     11          1           0       -1.050861   -1.850131   -0.734237
     12          7           0       -5.273758   -0.126082    0.001931
     13          8           0       -5.721717   -1.269075    0.061399
     14          8           0       -5.936475    0.901306    0.128091
     15          6           0        1.459160   -0.159976    1.639459
     16          6           0        2.071272    1.073944    1.395980
     17          6           0        3.247907    1.146820    0.644469
     18          6           0        3.787568   -0.039339    0.149409
     19          6           0        3.201315   -1.283832    0.374873
     20          6           0        2.025137   -1.332858    1.129029
     21          1           0        0.545300   -0.207324    2.224279
     22          1           0        1.633968    1.986445    1.791139
     23          1           0        3.742615    2.088748    0.440868
     24          1           0        3.660859   -2.176319   -0.032194
     25          1           0        1.551946   -2.292533    1.316534
     26          7           0        5.032977    0.025187   -0.647582
     27          8           0        5.488479   -1.034290   -1.072626
     28          8           0        5.530043    1.134018   -0.832128
 ---------------------------------------------------------------------

 SCF Done:  E(RHF) =  -868.337125313     A.U. after   16 cycles
 E2 =    -0.2601827965D+01 EUMP2 =    -0.87093895327767D+03

 The electronic state is 1-A.
 Alpha  occ. eigenvalues --  -20.61585 -20.61580 -20.61229 -20.61224 -15.86650
 Alpha  occ. eigenvalues --  -15.86290 -11.32192 -11.31718 -11.28822 -11.28818
 Alpha  occ. eigenvalues --  -11.28511 -11.28341 -11.28331 -11.27954 -11.27803
 Alpha  occ. eigenvalues --  -11.27786 -11.27320 -11.27301  -1.60660  -1.60306
 Alpha  occ. eigenvalues --   -1.40208  -1.39857  -1.20421  -1.19919  -1.09770
 Alpha  occ. eigenvalues --   -1.09267  -1.05835  -1.05339  -0.96558  -0.96084
 Alpha  occ. eigenvalues --   -0.87205  -0.86713  -0.83370  -0.82930  -0.78396
 Alpha  occ. eigenvalues --   -0.77985  -0.72855  -0.72501  -0.71996  -0.71636
 Alpha  occ. eigenvalues --   -0.71451  -0.70965  -0.66033  -0.65809  -0.65552
 Alpha  occ. eigenvalues --   -0.65326  -0.63153  -0.62678  -0.56254  -0.55938
 Alpha  occ. eigenvalues --   -0.54117  -0.53889  -0.53548  -0.53410  -0.49630
 Alpha  occ. eigenvalues --   -0.49604  -0.49266  -0.49254  -0.45574  -0.45249
 Alpha  occ. eigenvalues --   -0.38788  -0.37535  -0.37420  -0.36956
 Alpha virt. eigenvalues --    0.03942   0.04754   0.09884   0.10849   0.15338
 Alpha virt. eigenvalues --    0.16300   0.20044   0.21277   0.25370   0.27421
 Alpha virt. eigenvalues --    0.27548   0.27837   0.29542   0.31089   0.31402

 Mulliken charges:
               1
     1  C   -0.173276
     2  C   -0.224249
     3  C   -0.170161
     4  C    0.157500
     5  C   -0.170776
     6  C   -0.224899
     7  H    0.235824
     8  H    0.222833
     9  H    0.276774
    10  H    0.276214
    11  H    0.221420
    12  N    0.488128
    13  O   -0.459773
    14  O   -0.459416
    15  C   -0.172104
    16  C   -0.226515
    17  C   -0.171696
    18  C    0.157237
    19  C   -0.170926
    20  C   -0.226411
    21  H    0.233896
    22  H    0.226127
    23  H    0.278501
    24  H    0.278633
    25  H    0.225244
    26  N    0.488157
    27  O   -0.458042
    28  O   -0.458244
 Sum of Mulliken charges =  -0.00000

 Dipole moment (field-independent basis, Debye):
    X=              0.8836    Y=              0.3240    Z=              1.9937  Tot=              2.2046
 Quadrupole moment (field-independent basis, Debye-Ang):
   XX=           -177.8840   YY=            -94.7843   ZZ=           -104.8873
   XY=             -3.1041   XZ=             12.1254   YZ=              0.5094

 Normal termination of Gaussian 16 at Thu May  6 08:08:14 2021.
