 Gaussian 16, Revision A.03,
 Gaussian 16:  EM64L-G16RevA.03 25-Dec-2016

 -------------
 #p 6-31g* mp2
 -------------

 ------------------------------------------------------
 Input file generated by CHIRIPA (05-May-2021 14:53:15)
 ------------------------------------------------------
 Symbolic Z-matrix:
 Charge =  0 Multiplicity = 1

                         Standard orientation:
 ---------------------------------------------------------------------
 Center     Atomic      Atomic             Coordinates (Angstroms)
 Number     Number       Type             X           Y           Z
 ---------------------------------------------------------------------
      1          6           0       -4.010262    0.377705   -0.256877
      2          6           0       -4.252062   -0.987377    0.388156
      3          6           0       -5.651114   -1.535434    0.105172
      4          1           0       -4.764642    1.087730    0.108800
      5          1           0       -4.159755    0.294241   -1.342271
      6          1           0       -4.100805   -0.901678    1.471850
      7          1           0       -3.496901   -1.694187    0.021047
      8          1           0       -5.809553   -1.649489   -0.972088
      9          1           0       -6.416889   -0.852477    0.486958
     10          1           0       -5.802473   -2.511978    0.575611
     11          6           0       -2.616007    0.938740    0.017020
     12          6           0       -2.374207    2.303822   -0.628013
     13          6           0       -0.975154    2.851879   -0.345029
     14          1           0       -2.466514    1.022204    1.102415
     15          1           0       -1.861626    0.228715   -0.348657
     16          1           0       -3.129368    3.010632   -0.260904
     17          1           0       -2.525464    2.218123   -1.711707
     18          1           0       -0.209380    2.168922   -0.726815
     19          1           0       -0.816716    2.965934    0.732231
     20          1           0       -0.823796    3.828423   -0.815468
     21          6           0        0.414812   -1.794921    0.130361
     22          6           0        0.547543   -0.619737    0.877253
     23          6           0        1.747228    0.097996    0.864438
     24          6           0        2.798520   -0.390425    0.090149
     25          6           0        2.697154   -1.557997   -0.664695
     26          6           0        1.488149   -2.259480   -0.636876
     27          1           0       -0.520752   -2.346162    0.146144
     28          1           0       -0.284350   -0.256590    1.474012
     29          1           0        1.877230    1.010688    1.433217
     30          1           0        3.544067   -1.895084   -1.249954
     31          1           0        1.387924   -3.171840   -1.217911
     32          7           0        4.073506    0.360806    0.068641
     33          8           0        4.984802   -0.090529   -0.621630
     34          8           0        4.137402    1.386730    0.742461
 ---------------------------------------------------------------------

 SCF Done:  E(RHF) =  -669.534095852     A.U. after   15 cycles
 E2 =    -0.2094264783D+01 EUMP2 =    -0.67162836063551D+03

 The electronic state is 1-A.
 Alpha  occ. eigenvalues --  -20.60743 -20.60736 -15.85794 -11.31174 -11.27719
 Alpha  occ. eigenvalues --  -11.27683 -11.27441 -11.26763 -11.26651 -11.22594
 Alpha  occ. eigenvalues --  -11.22254 -11.22195 -11.22161 -11.21844 -11.21526
 Alpha  occ. eigenvalues --   -1.59817  -1.39370  -1.19338  -1.09262  -1.08725
 Alpha  occ. eigenvalues --   -1.04741  -1.04258  -0.96700  -0.95563  -0.87723
 Alpha  occ. eigenvalues --   -0.86133  -0.82396  -0.80352  -0.79163  -0.77405
 Alpha  occ. eigenvalues --   -0.72011  -0.71140  -0.70435  -0.65888  -0.64977
 Alpha  occ. eigenvalues --   -0.64732  -0.62088  -0.61662  -0.60067  -0.58327
 Alpha  occ. eigenvalues --   -0.55976  -0.55231  -0.53377  -0.53258  -0.53106
 Alpha  occ. eigenvalues --   -0.52684  -0.50646  -0.48788  -0.48767  -0.48632
 Alpha  occ. eigenvalues --   -0.47390  -0.46572  -0.46553  -0.44772  -0.44531
 Alpha  occ. eigenvalues --   -0.37281  -0.36253
 Alpha virt. eigenvalues --    0.05041   0.11216   0.16451   0.19788   0.22595
 Alpha virt. eigenvalues --    0.22913   0.24694   0.25465   0.26790   0.28671
 Alpha virt. eigenvalues --    0.29374   0.30106   0.31091   0.31307   0.31743

 Mulliken charges:
               1
     1  C   -0.297290
     2  C   -0.300988
     3  C   -0.475823
     4  H    0.153010
     5  H    0.152346
     6  H    0.151176
     7  H    0.143532
     8  H    0.157159
     9  H    0.158486
    10  H    0.161150
    11  C   -0.308097
    12  C   -0.298607
    13  C   -0.480718
    14  H    0.142600
    15  H    0.154206
    16  H    0.153794
    17  H    0.154660
    18  H    0.161255
    19  H    0.149835
    20  H    0.165449
    21  C   -0.176463
    22  C   -0.217323
    23  C   -0.173620
    24  C    0.158140
    25  C   -0.171673
    26  C   -0.218646
    27  H    0.228034
    28  H    0.231715
    29  H    0.276480
    30  H    0.275381
    31  H    0.223350
    32  N    0.488106
    33  O   -0.460584
    34  O   -0.460033
 Sum of Mulliken charges =  -0.00000

 Dipole moment (field-independent basis, Debye):
    X=             -4.6034    Y=             -2.5619    Z=              0.0045  Tot=              5.2683
 Quadrupole moment (field-independent basis, Debye-Ang):
   XX=           -120.0285   YY=            -90.7005   ZZ=            -92.5851
   XY=             -7.9364   XZ=             -1.7944   YZ=              2.3679

 Normal termination of Gaussian 16 at Thu May  6 07:26:33 2021.
