 Gaussian 16, Revision A.03,
 Gaussian 16:  EM64L-G16RevA.03 25-Dec-2016

 -------------
 #p 6-31g* mp2
 -------------

 ------------------------------------------------------
 Input file generated by CHIRIPA (05-May-2021 14:53:13)
 ------------------------------------------------------
 Symbolic Z-matrix:
 Charge =  0 Multiplicity = 1

                         Standard orientation:
 ---------------------------------------------------------------------
 Center     Atomic      Atomic             Coordinates (Angstroms)
 Number     Number       Type             X           Y           Z
 ---------------------------------------------------------------------
      1          6           0        4.061777   -0.741028   -0.222725
      2          6           0        5.142533   -1.458988    0.586277
      3          6           0        5.128026   -2.973743    0.378669
      4          1           0        3.077401   -1.141350    0.056007
      5          1           0        4.200704   -0.967263   -1.288986
      6          1           0        5.002442   -1.230351    1.650568
      7          1           0        6.124435   -1.056777    0.305725
      8          1           0        5.290498   -3.219642   -0.675721
      9          1           0        4.162130   -3.394203    0.676764
     10          1           0        5.908616   -3.466988    0.966248
     11          6           0        4.063565    0.773868   -0.025710
     12          6           0        2.982809    1.491828   -0.834712
     13          6           0        2.997317    3.006583   -0.627104
     14          1           0        3.924638    1.000103    1.040551
     15          1           0        5.047941    1.174190   -0.304442
     16          1           0        2.000907    1.089616   -0.554160
     17          1           0        3.122900    1.263191   -1.899003
     18          1           0        3.963212    3.427043   -0.925199
     19          1           0        2.834844    3.252482    0.427286
     20          1           0        2.216727    3.499827   -1.214683
     21          6           0       -1.094377    1.217980    0.822553
     22          6           0       -2.192810    1.131054    1.684185
     23          6           0       -3.350245    0.451603    1.292724
     24          6           0       -3.375008   -0.131818    0.026905
     25          6           0       -2.296959   -0.062536   -0.854173
     26          6           0       -1.149859    0.621959   -0.441647
     27          1           0       -0.199268    1.747753    1.134830
     28          1           0       -2.152544    1.592968    2.666558
     29          1           0       -4.215038    0.369021    1.939817
     30          1           0       -2.366837   -0.533140   -1.827346
     31          1           0       -0.298314    0.687865   -1.112893
     32          7           0       -4.594861   -0.853792   -0.398667
     33          8           0       -4.591571   -1.359222   -1.519008
     34          8           0       -5.531175   -0.900574    0.396171
 ---------------------------------------------------------------------

 SCF Done:  E(RHF) =  -669.535442371     A.U. after   15 cycles
 E2 =    -0.2091488355D+01 EUMP2 =    -0.67162693072543D+03

 The electronic state is 1-A.
 Alpha  occ. eigenvalues --  -20.60743 -20.60738 -15.85796 -11.31160 -11.27731
 Alpha  occ. eigenvalues --  -11.27720 -11.27464 -11.26748 -11.26703 -11.22819
 Alpha  occ. eigenvalues --  -11.22305 -11.22194 -11.22185 -11.22107 -11.21529
 Alpha  occ. eigenvalues --   -1.59819  -1.39372  -1.19332  -1.09298  -1.08727
 Alpha  occ. eigenvalues --   -1.04735  -1.04380  -0.96797  -0.95563  -0.87814
 Alpha  occ. eigenvalues --   -0.86138  -0.82393  -0.80486  -0.79075  -0.77440
 Alpha  occ. eigenvalues --   -0.72015  -0.71142  -0.70448  -0.65967  -0.64982
 Alpha  occ. eigenvalues --   -0.64742  -0.62145  -0.61718  -0.60187  -0.58402
 Alpha  occ. eigenvalues --   -0.56080  -0.55227  -0.53504  -0.53216  -0.53064
 Alpha  occ. eigenvalues --   -0.52835  -0.50742  -0.48829  -0.48770  -0.48713
 Alpha  occ. eigenvalues --   -0.47520  -0.46607  -0.46511  -0.44778  -0.44616
 Alpha  occ. eigenvalues --   -0.37313  -0.36336
 Alpha virt. eigenvalues --    0.05091   0.11271   0.16585   0.19059   0.22564
 Alpha virt. eigenvalues --    0.23759   0.25167   0.25828   0.27058   0.27906
 Alpha virt. eigenvalues --    0.29045   0.29712   0.30928   0.31459   0.32236

 Mulliken charges:
               1
     1  C   -0.299432
     2  C   -0.300179
     3  C   -0.476351
     4  H    0.149158
     5  H    0.151101
     6  H    0.152243
     7  H    0.153274
     8  H    0.156247
     9  H    0.156302
    10  H    0.162202
    11  C   -0.297551
    12  C   -0.307307
    13  C   -0.477217
    14  H    0.148970
    15  H    0.153639
    16  H    0.144128
    17  H    0.156146
    18  H    0.161618
    19  H    0.152838
    20  H    0.160974
    21  C   -0.173337
    22  C   -0.218644
    23  C   -0.171129
    24  C    0.158648
    25  C   -0.171046
    26  C   -0.223450
    27  H    0.227039
    28  H    0.223264
    29  H    0.275496
    30  H    0.275771
    31  H    0.229514
    32  N    0.487976
    33  O   -0.460409
    34  O   -0.460495
 Sum of Mulliken charges =  -0.00000

 Dipole moment (field-independent basis, Debye):
    X=              4.5288    Y=              2.5264    Z=              1.4764  Tot=              5.3919
 Quadrupole moment (field-independent basis, Debye-Ang):
   XX=           -122.0723   YY=            -96.9588   ZZ=            -90.3196
   XY=             -9.4966   XZ=             -7.7968   YZ=              0.7635

 Normal termination of Gaussian 16 at Wed May  5 17:01:38 2021.
