 Gaussian 16, Revision A.03,
 Gaussian 16:  EM64L-G16RevA.03 25-Dec-2016

 -------------
 #p 6-31g* mp2
 -------------

 ------------------------------------------------------
 Input file generated by CHIRIPA (05-May-2021 14:51:08)
 ------------------------------------------------------
 Symbolic Z-matrix:
 Charge =  0 Multiplicity = 1

                         Standard orientation:
 ---------------------------------------------------------------------
 Center     Atomic      Atomic             Coordinates (Angstroms)
 Number     Number       Type             X           Y           Z
 ---------------------------------------------------------------------
      1          6           0        2.400734   -1.001264   -0.561025
      2          6           0        1.222662   -1.953273   -0.351716
      3          6           0        1.293073   -3.187641   -1.251255
      4          1           0        2.428563   -0.688427   -1.613785
      5          1           0        3.338268   -1.541816   -0.370691
      6          1           0        0.287568   -1.410713   -0.541043
      7          1           0        1.197521   -2.263729    0.700710
      8          1           0        2.210008   -3.753626   -1.057627
      9          1           0        1.294885   -2.895764   -2.306436
     10          1           0        0.441289   -3.854534   -1.085190
     11          6           0        2.344485    0.237511    0.331164
     12          6           0        3.522557    1.189520    0.121855
     13          6           0        3.452146    2.423888    1.021394
     14          1           0        1.406951    0.778064    0.140829
     15          1           0        2.316656   -0.075326    1.383924
     16          1           0        3.547698    1.499976   -0.930572
     17          1           0        4.457651    0.646960    0.311181
     18          1           0        3.450334    2.132011    2.076574
     19          1           0        2.535211    2.989874    0.827766
     20          1           0        4.303930    3.090781    0.855328
     21          6           0       -2.249075   -0.141834    0.657055
     22          6           0       -2.619157   -1.561031    0.224734
     23          6           0       -2.366383   -2.597502    1.320008
     24          1           0       -1.190092   -0.118554    0.948532
     25          1           0       -2.826023    0.122969    1.553942
     26          1           0       -2.042702   -1.822566   -0.671879
     27          1           0       -3.677333   -1.580892   -0.065930
     28          1           0       -2.953242   -2.363952    2.214241
     29          1           0       -1.309323   -2.607000    1.604850
     30          1           0       -2.637794   -3.605010    0.989668
     31          6           0       -2.496144    0.905586   -0.427194
     32          6           0       -2.126062    2.324784    0.005127
     33          6           0       -2.378836    3.361255   -1.090147
     34          1           0       -1.919197    0.640784   -1.324081
     35          1           0       -3.555126    0.882308   -0.718671
     36          1           0       -1.067885    2.344644    0.295792
     37          1           0       -2.702517    2.586318    0.901741
     38          1           0       -3.435896    3.370752   -1.374988
     39          1           0       -1.791977    3.127705   -1.984380
     40          1           0       -2.107425    4.368763   -0.759807
 ---------------------------------------------------------------------

 SCF Done:  E(RHF) =  -470.732269985     A.U. after   11 cycles
 E2 =    -0.1585598227D+01 EUMP2 =    -0.47231786821116D+03

 The electronic state is 1-A.
 Alpha  occ. eigenvalues --  -11.21664 -11.21638 -11.21632 -11.21556 -11.21485
 Alpha  occ. eigenvalues --  -11.21420 -11.21412 -11.21307 -11.21122 -11.21117
 Alpha  occ. eigenvalues --  -11.21104 -11.21006  -1.08552  -1.08393  -1.03649
 Alpha  occ. eigenvalues --   -1.03475  -0.96056  -0.95959  -0.87062  -0.86987
 Alpha  occ. eigenvalues --   -0.79677  -0.79593  -0.78408  -0.78183  -0.65447
 Alpha  occ. eigenvalues --   -0.64816  -0.61222  -0.60801  -0.59350  -0.59328
 Alpha  occ. eigenvalues --   -0.57648  -0.57578  -0.55332  -0.55246  -0.52731
 Alpha  occ. eigenvalues --   -0.52666  -0.52464  -0.52397  -0.50104  -0.49833
 Alpha  occ. eigenvalues --   -0.48118  -0.47769  -0.46825  -0.46549  -0.46280
 Alpha  occ. eigenvalues --   -0.45816  -0.45629  -0.45234  -0.43847  -0.43774
 Alpha virt. eigenvalues --    0.19604   0.21668   0.23672   0.24781   0.25475
 Alpha virt. eigenvalues --    0.25937   0.26460   0.27234   0.28743   0.30111
 Alpha virt. eigenvalues --    0.31013   0.31370   0.31389   0.31845   0.32225

 Mulliken charges:
               1
     1  C   -0.297397
     2  C   -0.308988
     3  C   -0.476938
     4  H    0.149412
     5  H    0.149817
     6  H    0.161829
     7  H    0.152392
     8  H    0.155571
     9  H    0.154967
    10  H    0.161818
    11  C   -0.303527
    12  C   -0.299566
    13  C   -0.475966
    14  H    0.153128
    15  H    0.149842
    16  H    0.152088
    17  H    0.152402
    18  H    0.155438
    19  H    0.155166
    20  H    0.160601
    21  C   -0.305253
    22  C   -0.302341
    23  C   -0.478774
    24  H    0.155592
    25  H    0.150291
    26  H    0.153462
    27  H    0.152436
    28  H    0.154830
    29  H    0.159696
    30  H    0.159405
    31  C   -0.298538
    32  C   -0.302463
    33  C   -0.475621
    34  H    0.148290
    35  H    0.150198
    36  H    0.153477
    37  H    0.152550
    38  H    0.155479
    39  H    0.154810
    40  H    0.160385
 Sum of Mulliken charges =  -0.00000

 Dipole moment (field-independent basis, Debye):
    X=              0.0292    Y=             -0.0062    Z=              0.0108  Tot=              0.0318
 Quadrupole moment (field-independent basis, Debye-Ang):
   XX=            -83.6419   YY=            -86.1556   ZZ=            -84.9550
   XY=             -0.4215   XZ=             -0.0779   YZ=             -0.2482

 Normal termination of Gaussian 16 at Wed May  5 16:36:17 2021.
