 Gaussian 16, Revision A.03,
 Gaussian 16:  EM64L-G16RevA.03 25-Dec-2016

 -------------
 #p 6-31g* mp2
 -------------

 ------------------------------------------------------
 Input file generated by CHIRIPA (05-May-2021 14:57:21)
 ------------------------------------------------------
 Symbolic Z-matrix:
 Charge =  0 Multiplicity = 1

                         Standard orientation:
 ---------------------------------------------------------------------
 Center     Atomic      Atomic             Coordinates (Angstroms)
 Number     Number       Type             X           Y           Z
 ---------------------------------------------------------------------
      1          6           0       -1.944238    1.501961    0.164323
      2          6           0       -1.922231    0.103795    0.130141
      3          6           0       -3.108067   -0.621536   -0.018974
      4          6           0       -4.303450    0.086746   -0.131613
      5          6           0       -4.358021    1.479364   -0.101150
      6          6           0       -3.159920    2.184080    0.048772
      7          1           0       -1.018288    2.057408    0.280472
      8          1           0       -0.979581   -0.428600    0.219649
      9          1           0       -3.119834   -1.704311   -0.048607
     10          1           0       -5.313130    1.982141   -0.192800
     11          1           0       -3.180031    3.269877    0.074985
     12          7           0       -5.565334   -0.670217   -0.289901
     13          8           0       -6.605441   -0.022631   -0.387089
     14          8           0       -5.490397   -1.896778   -0.313783
     15          6           0        6.206299    0.743829   -0.893320
     16          6           0        5.346944    1.564910   -0.155854
     17          6           0        4.174656    1.046338    0.402152
     18          6           0        3.891410   -0.303860    0.202089
     19          6           0        4.727542   -1.147442   -0.527665
     20          6           0        5.894405   -0.607345   -1.076548
     21          1           0        7.114854    1.155029   -1.323250
     22          1           0        5.586622    2.614619   -0.011937
     23          1           0        3.491669    1.659475    0.977486
     24          1           0        4.461818   -2.189954   -0.654067
     25          1           0        6.559935   -1.247368   -1.648812
     26          7           0        2.653233   -0.864244    0.787997
     27          8           0        2.426319   -2.057055    0.597336
     28          8           0        1.933107   -0.100051    1.426798
 ---------------------------------------------------------------------

 SCF Done:  E(RHF) =  -868.340213540     A.U. after   16 cycles
 E2 =    -0.2598452308D+01 EUMP2 =    -0.87093866584776D+03

 The electronic state is 1-A.
 Alpha  occ. eigenvalues --  -20.61936 -20.61897 -20.60054 -20.60042 -15.86931
 Alpha  occ. eigenvalues --  -15.85094 -11.32024 -11.30303 -11.28582 -11.28531
 Alpha  occ. eigenvalues --  -11.28232 -11.27511 -11.27479 -11.26889 -11.26750
 Alpha  occ. eigenvalues --  -11.26499 -11.25902 -11.25596  -1.60981  -1.59129
 Alpha  occ. eigenvalues --   -1.40539  -1.38687  -1.20166  -1.18438  -1.09610
 Alpha  occ. eigenvalues --   -1.07855  -1.05526  -1.03798  -0.96490  -0.94725
 Alpha  occ. eigenvalues --   -0.86936  -0.85194  -0.83330  -0.81552  -0.78414
 Alpha  occ. eigenvalues --   -0.76626  -0.73148  -0.72286  -0.71317  -0.71265
 Alpha  occ. eigenvalues --   -0.70450  -0.69538  -0.65819  -0.65521  -0.64076
 Alpha  occ. eigenvalues --   -0.63754  -0.62877  -0.61129  -0.56027  -0.54294
 Alpha  occ. eigenvalues --   -0.53870  -0.53611  -0.52163  -0.51862  -0.49920
 Alpha  occ. eigenvalues --   -0.49883  -0.48082  -0.48057  -0.45998  -0.44127
 Alpha  occ. eigenvalues --   -0.38124  -0.37116  -0.36414  -0.35403
 Alpha virt. eigenvalues --    0.04067   0.05871   0.10543   0.12250   0.15619
 Alpha virt. eigenvalues --    0.17419   0.20703   0.22478   0.26638   0.27517
 Alpha virt. eigenvalues --    0.28477   0.29171   0.30415   0.31704   0.32188

 Mulliken charges:
               1
     1  C   -0.171913
     2  C   -0.223235
     3  C   -0.173132
     4  C    0.158197
     5  C   -0.173154
     6  C   -0.218993
     7  H    0.225486
     8  H    0.243119
     9  H    0.275889
    10  H    0.272085
    11  H    0.218736
    12  N    0.488084
    13  O   -0.463576
    14  O   -0.461210
    15  C   -0.169622
    16  C   -0.218330
    17  C   -0.171288
    18  C    0.157814
    19  C   -0.170184
    20  C   -0.218378
    21  H    0.228488
    22  H    0.225200
    23  H    0.273156
    24  H    0.277347
    25  H    0.226429
    26  N    0.487970
    27  O   -0.456792
    28  O   -0.468193
 Sum of Mulliken charges =  -0.00000

 Dipole moment (field-independent basis, Debye):
    X=              9.4172    Y=              4.5053    Z=             -1.5291  Tot=             10.5508
 Quadrupole moment (field-independent basis, Debye-Ang):
   XX=           -108.5471   YY=            -98.1615   ZZ=           -106.6800
   XY=             -8.0783   XZ=            -11.1818   YZ=              2.5493

 Normal termination of Gaussian 16 at Wed May  5 20:52:33 2021.
