 Gaussian 16, Revision A.03,
 Gaussian 16:  EM64L-G16RevA.03 25-Dec-2016

 -------------
 #p 6-31g* mp2
 -------------

 ------------------------------------------------------
 Input file generated by CHIRIPA (05-May-2021 14:53:15)
 ------------------------------------------------------
 Symbolic Z-matrix:
 Charge =  0 Multiplicity = 1

                         Standard orientation:
 ---------------------------------------------------------------------
 Center     Atomic      Atomic             Coordinates (Angstroms)
 Number     Number       Type             X           Y           Z
 ---------------------------------------------------------------------
      1          6           0       -2.717976   -0.271168    0.224593
      2          6           0       -3.719286   -1.381032   -0.097223
      3          6           0       -3.690696   -2.517666    0.925049
      4          1           0       -1.707437   -0.699722    0.270377
      5          1           0       -2.933509    0.128766    1.225090
      6          1           0       -3.502791   -1.777810   -1.097379
      7          1           0       -4.727536   -0.949752   -0.142435
      8          1           0       -3.928404   -2.142028    1.925545
      9          1           0       -2.696700   -2.974791    0.965175
     10          1           0       -4.414156   -3.300160    0.675711
     11          6           0       -2.734699    0.872251   -0.788344
     12          6           0       -1.733390    1.982115   -0.466528
     13          6           0       -1.761979    3.118749   -1.488800
     14          1           0       -2.519167    0.472318   -1.788840
     15          1           0       -3.745239    1.300805   -0.834127
     16          1           0       -0.725139    1.550835   -0.421316
     17          1           0       -1.949884    2.378893    0.533629
     18          1           0       -2.755975    3.575874   -1.528925
     19          1           0       -1.524271    2.743111   -2.489295
     20          1           0       -1.038519    3.901243   -1.239462
     21          6           0        2.574854   -2.281223   -1.186955
     22          6           0        3.384689   -1.148842   -1.322605
     23          6           0        3.147423   -0.009354   -0.548125
     24          6           0        2.086940   -0.036957    0.356255
     25          6           0        1.262390   -1.149790    0.514407
     26          6           0        1.518152   -2.278088   -0.270499
     27          1           0        2.766351   -3.162059   -1.792640
     28          1           0        4.206046   -1.148434   -2.033532
     29          1           0        3.758760    0.880876   -0.632846
     30          1           0        0.451091   -1.120251    1.231580
     31          1           0        0.887587   -3.156088   -0.163025
     32          7           0        1.825967    1.163445    1.181680
     33          8           0        0.885373    1.113844    1.971275
     34          8           0        2.566951    2.131192    1.023424
 ---------------------------------------------------------------------

 SCF Done:  E(RHF) =  -669.534896943     A.U. after   15 cycles
 E2 =    -0.2094043618D+01 EUMP2 =    -0.67162894056021D+03

 The electronic state is 1-A.
 Alpha  occ. eigenvalues --  -20.60848 -20.60831 -15.85870 -11.31261 -11.27833
 Alpha  occ. eigenvalues --  -11.27807 -11.27574 -11.26850 -11.26840 -11.21682
 Alpha  occ. eigenvalues --  -11.21336 -11.21294 -11.21109 -11.20974 -11.20540
 Alpha  occ. eigenvalues --   -1.59907  -1.39460  -1.19440  -1.08829  -1.08248
 Alpha  occ. eigenvalues --   -1.04843  -1.03329  -0.95817  -0.95659  -0.86835
 Alpha  occ. eigenvalues --   -0.86238  -0.82492  -0.79411  -0.78073  -0.77486
 Alpha  occ. eigenvalues --   -0.72099  -0.71239  -0.70547  -0.65090  -0.64990
 Alpha  occ. eigenvalues --   -0.64759  -0.62188  -0.60736  -0.59195  -0.57387
 Alpha  occ. eigenvalues --   -0.55356  -0.55124  -0.53172  -0.52945  -0.52491
 Alpha  occ. eigenvalues --   -0.52220  -0.49788  -0.48867  -0.48859  -0.47727
 Alpha  occ. eigenvalues --   -0.46466  -0.45760  -0.45437  -0.44605  -0.43575
 Alpha  occ. eigenvalues --   -0.37410  -0.36415
 Alpha virt. eigenvalues --    0.04945   0.11115   0.16415   0.20430   0.23139
 Alpha virt. eigenvalues --    0.24199   0.25722   0.27312   0.27530   0.28247
 Alpha virt. eigenvalues --    0.29044   0.30668   0.31689   0.32052   0.32340

 Mulliken charges:
               1
     1  C   -0.299573
     2  C   -0.299614
     3  C   -0.473759
     4  H    0.142380
     5  H    0.156267
     6  H    0.149362
     7  H    0.154046
     8  H    0.158844
     9  H    0.144706
    10  H    0.160709
    11  C   -0.298906
    12  C   -0.296080
    13  C   -0.477376
    14  H    0.145724
    15  H    0.149266
    16  H    0.147369
    17  H    0.162596
    18  H    0.153163
    19  H    0.150464
    20  H    0.165655
    21  C   -0.170516
    22  C   -0.218367
    23  C   -0.171201
    24  C    0.155217
    25  C   -0.171890
    26  C   -0.219959
    27  H    0.226023
    28  H    0.223839
    29  H    0.275994
    30  H    0.279108
    31  H    0.224051
    32  N    0.489229
    33  O   -0.457144
    34  O   -0.459625
 Sum of Mulliken charges =  -0.00000

 Dipole moment (field-independent basis, Debye):
    X=              0.9665    Y=             -4.0906    Z=             -2.7894  Tot=              5.0446
 Quadrupole moment (field-independent basis, Debye-Ang):
   XX=            -87.5380   YY=            -94.4275   ZZ=            -96.7444
   XY=             -7.5906   XZ=             -8.4923   YZ=             -1.3825

 Normal termination of Gaussian 16 at Thu May  6 18:50:50 2021.
