 Gaussian 16, Revision A.03,
 Gaussian 16:  EM64L-G16RevA.03 25-Dec-2016

 -------------
 #p 6-31g* mp2
 -------------

 ------------------------------------------------------
 Input file generated by CHIRIPA (05-May-2021 14:51:07)
 ------------------------------------------------------
 Symbolic Z-matrix:
 Charge =  0 Multiplicity = 1

                         Standard orientation:
 ---------------------------------------------------------------------
 Center     Atomic      Atomic             Coordinates (Angstroms)
 Number     Number       Type             X           Y           Z
 ---------------------------------------------------------------------
      1          6           0       -2.330396    1.197516   -0.318321
      2          6           0       -2.057508    2.239528    0.766911
      3          6           0       -0.968644    3.236385    0.368862
      4          1           0       -1.400182    0.657098   -0.541021
      5          1           0       -2.622985    1.711034   -1.244650
      6          1           0       -1.766862    1.724137    1.691310
      7          1           0       -2.988524    2.777397    0.987190
      8          1           0       -1.254328    3.776593   -0.539522
      9          1           0       -0.025725    2.717349    0.168599
     10          1           0       -0.789688    3.972208    1.159052
     11          6           0       -3.416517    0.193905    0.064867
     12          6           0       -3.689404   -0.848107   -1.020365
     13          6           0       -4.778269   -1.844965   -0.622316
     14          1           0       -3.123928   -0.319614    0.991196
     15          1           0       -4.346731    0.734322    0.287568
     16          1           0       -2.758389   -1.385977   -1.240644
     17          1           0       -3.980051   -0.332717   -1.944764
     18          1           0       -5.721188   -1.325928   -0.422052
     19          1           0       -4.492584   -2.385173    0.286068
     20          1           0       -4.957225   -2.580787   -1.412506
     21          6           0        3.262450   -0.222090   -0.329125
     22          6           0        4.769151   -0.231129   -0.068826
     23          6           0        5.533681    0.721409   -0.988586
     24          1           0        3.076211   -0.493769   -1.377195
     25          1           0        2.880985    0.800095   -0.198667
     26          1           0        5.147422   -1.253255   -0.198384
     27          1           0        4.951813    0.040417    0.978796
     28          1           0        5.184190    1.750177   -0.854071
     29          1           0        5.380910    0.449154   -2.037938
     30          1           0        6.608886    0.699066   -0.785369
     31          6           0        2.484463   -1.169331    0.582578
     32          6           0        0.977762   -1.160291    0.322280
     33          6           0        0.213231   -2.112829    1.242040
     34          1           0        2.865927   -2.191515    0.452121
     35          1           0        2.670701   -0.897652    1.630648
     36          1           0        0.795099   -1.431837   -0.725343
     37          1           0        0.599491   -0.138166    0.451837
     38          1           0        0.366002   -1.840575    2.291392
     39          1           0        0.562722   -3.141597    1.107523
     40          1           0       -0.861973   -2.090487    1.038823
 ---------------------------------------------------------------------

 SCF Done:  E(RHF) =  -470.733050184     A.U. after   11 cycles
 E2 =    -0.1584152611D+01 EUMP2 =    -0.47231720279538D+03

 The electronic state is 1-A.
 Alpha  occ. eigenvalues --  -11.21699 -11.21638 -11.21595 -11.21594 -11.21469
 Alpha  occ. eigenvalues --  -11.21409 -11.21363 -11.21274 -11.21178 -11.21099
 Alpha  occ. eigenvalues --  -11.21091 -11.21067  -1.08514  -1.08397  -1.03604
 Alpha  occ. eigenvalues --   -1.03525  -0.96055  -0.95963  -0.87069  -0.86982
 Alpha  occ. eigenvalues --   -0.79700  -0.79572  -0.78386  -0.78143  -0.65258
 Alpha  occ. eigenvalues --   -0.64970  -0.61108  -0.60820  -0.59414  -0.59332
 Alpha  occ. eigenvalues --   -0.57675  -0.57567  -0.55358  -0.55218  -0.52744
 Alpha  occ. eigenvalues --   -0.52671  -0.52470  -0.52396  -0.50019  -0.49902
 Alpha  occ. eigenvalues --   -0.48101  -0.47843  -0.46810  -0.46571  -0.46086
 Alpha  occ. eigenvalues --   -0.45795  -0.45726  -0.45292  -0.43838  -0.43768
 Alpha virt. eigenvalues --    0.19306   0.21779   0.23464   0.24983   0.25753
 Alpha virt. eigenvalues --    0.26342   0.26621   0.27526   0.28834   0.29514
 Alpha virt. eigenvalues --    0.30300   0.31266   0.31730   0.31788   0.32246

 Mulliken charges:
               1
     1  C   -0.305945
     2  C   -0.299885
     3  C   -0.477567
     4  H    0.158871
     5  H    0.149200
     6  H    0.151734
     7  H    0.152135
     8  H    0.155710
     9  H    0.155338
    10  H    0.160230
    11  C   -0.299522
    12  C   -0.301397
    13  C   -0.475718
    14  H    0.150502
    15  H    0.149665
    16  H    0.152931
    17  H    0.152138
    18  H    0.155311
    19  H    0.155002
    20  H    0.160258
    21  C   -0.298941
    22  C   -0.299699
    23  C   -0.475810
    24  H    0.149936
    25  H    0.149528
    26  H    0.152080
    27  H    0.152096
    28  H    0.155471
    29  H    0.155270
    30  H    0.160388
    31  C   -0.297602
    32  C   -0.306145
    33  C   -0.479692
    34  H    0.149865
    35  H    0.149891
    36  H    0.152084
    37  H    0.157513
    38  H    0.155489
    39  H    0.156046
    40  H    0.163244
 Sum of Mulliken charges =  -0.00000

 Dipole moment (field-independent basis, Debye):
    X=              0.0337    Y=             -0.0152    Z=             -0.0064  Tot=              0.0375
 Quadrupole moment (field-independent basis, Debye-Ang):
   XX=            -85.3317   YY=            -84.8959   ZZ=            -84.5119
   XY=             -1.5922   XZ=              0.7383   YZ=              0.7477

 Normal termination of Gaussian 16 at Thu May  6 06:50:22 2021.
