 Gaussian 16, Revision A.03,
 Gaussian 16:  EM64L-G16RevA.03 25-Dec-2016

 -------------
 #p 6-31g* mp2
 -------------

 ------------------------------------------------------
 Input file generated by CHIRIPA (05-May-2021 14:57:27)
 ------------------------------------------------------
 Symbolic Z-matrix:
 Charge =  0 Multiplicity = 1

                         Standard orientation:
 ---------------------------------------------------------------------
 Center     Atomic      Atomic             Coordinates (Angstroms)
 Number     Number       Type             X           Y           Z
 ---------------------------------------------------------------------
      1          6           0        2.884466    2.279085    0.639546
      2          6           0        4.194325    1.857780    0.891124
      3          6           0        4.613928    0.579032    0.512593
      4          6           0        3.693289   -0.256202   -0.118358
      5          6           0        2.381539    0.134518   -0.382820
      6          6           0        1.983841    1.417627    0.004496
      7          1           0        2.567016    3.274141    0.937010
      8          1           0        4.895920    2.524667    1.384148
      9          1           0        5.622061    0.227252    0.695172
     10          1           0        1.704886   -0.552738   -0.876011
     11          1           0        0.965967    1.742132   -0.192160
     12          7           0        4.125909   -1.612264   -0.523742
     13          8           0        3.295635   -2.329134   -1.078159
     14          8           0        5.287079   -1.932597   -0.279389
     15          6           0       -4.403972   -2.234257    0.835959
     16          6           0       -5.015585   -1.625021   -0.264624
     17          6           0       -4.590509   -0.369126   -0.708005
     18          6           0       -3.546389    0.251868   -0.024288
     19          6           0       -2.916958   -0.329319    1.075407
     20          6           0       -3.358453   -1.585605    1.501289
     21          1           0       -4.740558   -3.210018    1.173592
     22          1           0       -5.827775   -2.126435   -0.783254
     23          1           0       -5.046294    0.125297   -1.557253
     24          1           0       -2.109710    0.195147    1.572100
     25          1           0       -2.881611   -2.056358    2.356308
     26          7           0       -3.087689    1.581635   -0.484414
     27          8           0       -2.165806    2.107936    0.135082
     28          8           0       -3.658729    2.072425   -1.455843
 ---------------------------------------------------------------------

 SCF Done:  E(RHF) =  -868.340152479     A.U. after   16 cycles
 E2 =    -0.2598324960D+01 EUMP2 =    -0.87093847743865D+03

 The electronic state is 1-A.
 Alpha  occ. eigenvalues --  -20.61621 -20.61543 -20.60516 -20.60509 -15.86608
 Alpha  occ. eigenvalues --  -15.85560 -11.31699 -11.30777 -11.28249 -11.28213
 Alpha  occ. eigenvalues --  -11.27897 -11.27329 -11.27269 -11.27174 -11.27161
 Alpha  occ. eigenvalues --  -11.26943 -11.26319 -11.26098  -1.60642  -1.59593
 Alpha  occ. eigenvalues --   -1.40206  -1.39151  -1.19840  -1.18908  -1.09280
 Alpha  occ. eigenvalues --   -1.08317  -1.05200  -1.04273  -0.96163  -0.95188
 Alpha  occ. eigenvalues --   -0.86610  -0.85663  -0.83007  -0.82016  -0.78092
 Alpha  occ. eigenvalues --   -0.77095  -0.72837  -0.71946  -0.71780  -0.70937
 Alpha  occ. eigenvalues --   -0.70916  -0.69995  -0.65494  -0.65192  -0.64543
 Alpha  occ. eigenvalues --   -0.64217  -0.62553  -0.61604  -0.55695  -0.54741
 Alpha  occ. eigenvalues --   -0.53543  -0.53284  -0.52633  -0.52321  -0.49605
 Alpha  occ. eigenvalues --   -0.49558  -0.48547  -0.48520  -0.45661  -0.44590
 Alpha  occ. eigenvalues --   -0.37794  -0.36872  -0.36790  -0.35886
 Alpha virt. eigenvalues --    0.04384   0.05403   0.10865   0.11771   0.15914
 Alpha virt. eigenvalues --    0.16951   0.20973   0.22101   0.26842   0.27449
 Alpha virt. eigenvalues --    0.28416   0.28845   0.30536   0.31493   0.32388

 Mulliken charges:
               1
     1  C   -0.172452
     2  C   -0.218697
     3  C   -0.172813
     4  C    0.158308
     5  C   -0.174811
     6  C   -0.228045
     7  H    0.228929
     8  H    0.221877
     9  H    0.273527
    10  H    0.273007
    11  H    0.244496
    12  N    0.488079
    13  O   -0.462766
    14  O   -0.461780
    15  C   -0.169436
    16  C   -0.218150
    17  C   -0.170408
    18  C    0.157462
    19  C   -0.172307
    20  C   -0.217608
    21  H    0.228591
    22  H    0.225748
    23  H    0.276471
    24  H    0.273082
    25  H    0.226306
    26  N    0.489521
    27  O   -0.471015
    28  O   -0.455115
 Sum of Mulliken charges =  -0.00000

 Dipole moment (field-independent basis, Debye):
    X=             -3.5367    Y=              0.0924    Z=              3.0429  Tot=              4.6665
 Quadrupole moment (field-independent basis, Debye-Ang):
   XX=            -98.3945   YY=           -110.4361   ZZ=           -102.9307
   XY=             36.3044   XZ=              4.6534   YZ=             -0.1927

 Normal termination of Gaussian 16 at Thu May  6 06:49:29 2021.
