 Gaussian 16, Revision A.03,
 Gaussian 16:  EM64L-G16RevA.03 25-Dec-2016

 -------------
 #p 6-31g* mp2
 -------------

 ------------------------------------------------------
 Input file generated by CHIRIPA (05-May-2021 14:55:25)
 ------------------------------------------------------
 Symbolic Z-matrix:
 Charge =  0 Multiplicity = 1

                         Standard orientation:
 ---------------------------------------------------------------------
 Center     Atomic      Atomic             Coordinates (Angstroms)
 Number     Number       Type             X           Y           Z
 ---------------------------------------------------------------------
      1          6           0       -4.699086   -0.387914   -1.725658
      2          6           0       -3.402460    0.068104   -1.985136
      3          6           0       -2.475785    0.201829   -0.946898
      4          6           0       -2.881370   -0.130908    0.344643
      5          6           0       -4.165924   -0.587921    0.635076
      6          6           0       -5.076015   -0.713896   -0.418684
      7          1           0       -5.412508   -0.488784   -2.538216
      8          1           0       -3.106953    0.322002   -2.999166
      9          1           0       -1.465532    0.552506   -1.119621
     10          1           0       -4.431222   -0.833269    1.656271
     11          1           0       -6.082316   -1.068293   -0.214219
     12          7           0       -1.909119    0.006559    1.451996
     13          8           0       -2.291159   -0.293125    2.581098
     14          8           0       -0.783439    0.411386    1.169869
     15          6           0        3.911422    0.946403   -0.063176
     16          6           0        2.596802    1.657875   -0.384997
     17          6           0        2.648783    3.157411   -0.090911
     18          1           0        4.157450    1.105540    0.995639
     19          1           0        4.721658    1.407236   -0.645022
     20          1           0        1.789052    1.194933    0.196244
     21          1           0        2.353776    1.496866   -1.443123
     22          1           0        3.434902    3.638801   -0.681573
     23          1           0        2.866968    3.335152    0.967108
     24          1           0        1.698712    3.646223   -0.328161
     25          6           0        3.875098   -0.553280   -0.351896
     26          6           0        5.189718   -1.264752   -0.030076
     27          6           0        5.137736   -2.764287   -0.324162
     28          1           0        3.064862   -1.014113    0.229950
     29          1           0        3.629071   -0.712417   -1.410712
     30          1           0        5.432743   -1.103743    1.028051
     31          1           0        5.997467   -0.801810   -0.611316
     32          1           0        4.919552   -2.942029   -1.382180
     33          1           0        4.351618   -3.245677    0.266500
     34          1           0        6.087807   -3.253100   -0.086911
 ---------------------------------------------------------------------

 SCF Done:  E(RHF) =  -669.536191067     A.U. after   15 cycles
 E2 =    -0.2090895993D+01 EUMP2 =    -0.67162708705955D+03

 The electronic state is 1-A.
 Alpha  occ. eigenvalues --  -20.60923 -20.60911 -15.85969 -11.31272 -11.27837
 Alpha  occ. eigenvalues --  -11.27828 -11.27575 -11.26844 -11.26833 -11.21057
 Alpha  occ. eigenvalues --  -11.20717 -11.20659 -11.20624 -11.20600 -11.20318
 Alpha  occ. eigenvalues --   -1.59988  -1.39544  -1.19442  -1.08849  -1.07722
 Alpha  occ. eigenvalues --   -1.04836  -1.02844  -0.95694  -0.95322  -0.86342
 Alpha  occ. eigenvalues --   -0.86237  -0.82531  -0.78916  -0.77630  -0.77475
 Alpha  occ. eigenvalues --   -0.72197  -0.71304  -0.70551  -0.65102  -0.64840
 Alpha  occ. eigenvalues --   -0.64337  -0.62183  -0.60225  -0.58697  -0.56929
 Alpha  occ. eigenvalues --   -0.55343  -0.54609  -0.53170  -0.52928  -0.52032
 Alpha  occ. eigenvalues --   -0.51752  -0.49269  -0.48949  -0.48939  -0.47233
 Alpha  occ. eigenvalues --   -0.45915  -0.45099  -0.44988  -0.44897  -0.43103
 Alpha  occ. eigenvalues --   -0.37423  -0.36438
 Alpha virt. eigenvalues --    0.04951   0.11217   0.16452   0.21200   0.23541
 Alpha virt. eigenvalues --    0.24754   0.26911   0.27317   0.27630   0.28632
 Alpha virt. eigenvalues --    0.28881   0.30778   0.31828   0.32035   0.32578

 Mulliken charges:
               1
     1  C   -0.170577
     2  C   -0.218667
     3  C   -0.170873
     4  C    0.157450
     5  C   -0.170818
     6  C   -0.218613
     7  H    0.225928
     8  H    0.223922
     9  H    0.276889
    10  H    0.275726
    11  H    0.223719
    12  N    0.497022
    13  O   -0.459317
    14  O   -0.469521
    15  C   -0.296943
    16  C   -0.313024
    17  C   -0.473383
    18  H    0.151382
    19  H    0.145069
    20  H    0.181739
    21  H    0.140922
    22  H    0.149902
    23  H    0.157532
    24  H    0.157072
    25  C   -0.299327
    26  C   -0.299157
    27  C   -0.475462
    28  H    0.156450
    29  H    0.144705
    30  H    0.152870
    31  H    0.149735
    32  H    0.152765
    33  H    0.156284
    34  H    0.158599
 Sum of Mulliken charges =  -0.00000

 Dipole moment (field-independent basis, Debye):
    X=             -3.6541    Y=             -0.5337    Z=             -3.7524  Tot=              5.2648
 Quadrupole moment (field-independent basis, Debye-Ang):
   XX=            -73.5855   YY=            -96.5458   ZZ=            -94.9093
   XY=              3.3019   XZ=              7.9303   YZ=             -1.0588

 Normal termination of Gaussian 16 at Thu May  6 17:43:07 2021.
