 Gaussian 16, Revision A.03,
 Gaussian 16:  EM64L-G16RevA.03 25-Dec-2016

 -------------
 #p 6-31g* mp2
 -------------

 ------------------------------------------------------
 Input file generated by CHIRIPA (05-May-2021 14:55:23)
 ------------------------------------------------------
 Symbolic Z-matrix:
 Charge =  0 Multiplicity = 1

                         Standard orientation:
 ---------------------------------------------------------------------
 Center     Atomic      Atomic             Coordinates (Angstroms)
 Number     Number       Type             X           Y           Z
 ---------------------------------------------------------------------
      1          6           0       -2.630448    2.249642    0.229196
      2          6           0       -1.816322    1.322979   -0.430362
      3          6           0       -2.220555   -0.008651   -0.564174
      4          6           0       -3.450563   -0.380873   -0.023971
      5          6           0       -4.284000    0.518907    0.638653
      6          6           0       -3.859521    1.845361    0.760662
      7          1           0       -2.308566    3.282073    0.328560
      8          1           0       -0.861303    1.634121   -0.844094
      9          1           0       -1.609966   -0.746757   -1.069939
     10          1           0       -5.230697    0.178949    1.040662
     11          1           0       -4.493845    2.562848    1.273391
     12          7           0       -3.889223   -1.787870   -0.159383
     13          8           0       -4.977348   -2.090642    0.325332
     14          8           0       -3.136613   -2.561260   -0.747671
     15          6           0        5.052278   -0.031022    0.066520
     16          6           0        5.209697   -1.532374    0.309718
     17          6           0        6.672019   -1.960588    0.436372
     18          1           0        5.597112    0.245165   -0.846618
     19          1           0        5.526134    0.518667    0.891564
     20          1           0        4.734476   -2.079079   -0.514840
     21          1           0        4.664265   -1.805052    1.222279
     22          1           0        7.154643   -1.441241    1.270611
     23          1           0        7.225253   -1.716825   -0.476378
     24          1           0        6.761401   -3.037514    0.609868
     25          6           0        3.596085    0.412417   -0.062288
     26          6           0        3.438667    1.913770   -0.305486
     27          6           0        1.976345    2.341983   -0.432141
     28          1           0        3.122231   -0.137271   -0.887333
     29          1           0        3.051251    0.136230    0.850850
     30          1           0        3.984098    2.186448   -1.218047
     31          1           0        3.913887    2.460475    0.519071
     32          1           0        1.423111    2.098220    0.480609
     33          1           0        1.493720    1.822637   -1.266379
     34          1           0        1.886963    3.418910   -0.605637
 ---------------------------------------------------------------------

 SCF Done:  E(RHF) =  -669.535399634     A.U. after   15 cycles
 E2 =    -0.2091151661D+01 EUMP2 =    -0.67162655129532D+03

 The electronic state is 1-A.
 Alpha  occ. eigenvalues --  -20.60696 -20.60691 -15.85747 -11.31091 -11.27657
 Alpha  occ. eigenvalues --  -11.27633 -11.27376 -11.26675 -11.26566 -11.22377
 Alpha  occ. eigenvalues --  -11.22225 -11.21956 -11.21872 -11.21770 -11.21272
 Alpha  occ. eigenvalues --   -1.59772  -1.39326  -1.19253  -1.08961  -1.08652
 Alpha  occ. eigenvalues --   -1.04652  -1.04105  -0.96592  -0.95493  -0.87635
 Alpha  occ. eigenvalues --   -0.86042  -0.82327  -0.80199  -0.78724  -0.77372
 Alpha  occ. eigenvalues --   -0.71966  -0.71094  -0.70364  -0.65586  -0.64901
 Alpha  occ. eigenvalues --   -0.64667  -0.62028  -0.61495  -0.59974  -0.58162
 Alpha  occ. eigenvalues --   -0.55888  -0.55156  -0.53372  -0.53171  -0.52976
 Alpha  occ. eigenvalues --   -0.52500  -0.50536  -0.48744  -0.48723  -0.48444
 Alpha  occ. eigenvalues --   -0.47196  -0.46273  -0.46165  -0.44736  -0.44336
 Alpha  occ. eigenvalues --   -0.37235  -0.36249
 Alpha virt. eigenvalues --    0.05150   0.11354   0.16643   0.20785   0.22427
 Alpha virt. eigenvalues --    0.23844   0.25519   0.26260   0.27163   0.28229
 Alpha virt. eigenvalues --    0.28898   0.30057   0.31008   0.31310   0.32175

 Mulliken charges:
               1
     1  C   -0.174136
     2  C   -0.225556
     3  C   -0.174059
     4  C    0.158833
     5  C   -0.171600
     6  C   -0.218418
     7  H    0.225713
     8  H    0.238004
     9  H    0.275143
    10  H    0.275123
    11  H    0.222839
    12  N    0.488080
    13  O   -0.460832
    14  O   -0.460697
    15  C   -0.298847
    16  C   -0.300348
    17  C   -0.476110
    18  H    0.150422
    19  H    0.150261
    20  H    0.153306
    21  H    0.153269
    22  H    0.155300
    23  H    0.155417
    24  H    0.162142
    25  C   -0.299414
    26  C   -0.299014
    27  C   -0.484010
    28  H    0.149284
    29  H    0.151328
    30  H    0.154802
    31  H    0.154956
    32  H    0.157608
    33  H    0.149442
    34  H    0.161768
 Sum of Mulliken charges =  -0.00000

 Dipole moment (field-independent basis, Debye):
    X=              1.7873    Y=              4.9584    Z=              0.5093  Tot=              5.2952
 Quadrupole moment (field-independent basis, Debye-Ang):
   XX=           -102.4992   YY=            -99.0754   ZZ=            -93.2668
   XY=            -18.4622   XZ=             -4.2154   YZ=              0.5836

 Normal termination of Gaussian 16 at Wed May  5 19:03:42 2021.
