 Gaussian 16, Revision A.03,
 Gaussian 16:  EM64L-G16RevA.03 25-Dec-2016

 -------------
 #p 6-31g* mp2
 -------------

 ------------------------------------------------------
 Input file generated by CHIRIPA (05-May-2021 14:57:23)
 ------------------------------------------------------
 Symbolic Z-matrix:
 Charge =  0 Multiplicity = 1

                         Standard orientation:
 ---------------------------------------------------------------------
 Center     Atomic      Atomic             Coordinates (Angstroms)
 Number     Number       Type             X           Y           Z
 ---------------------------------------------------------------------
      1          6           0       -3.313162    2.146311    0.713651
      2          6           0       -3.959492    0.972614    1.115166
      3          6           0       -3.517145   -0.272948    0.659696
      4          6           0       -2.420539   -0.308134   -0.200250
      5          6           0       -1.755567    0.843542   -0.618274
      6          6           0       -2.215198    2.078149   -0.150264
      7          1           0       -3.663501    3.109638    1.072341
      8          1           0       -4.812433    1.022523    1.786021
      9          1           0       -3.998966   -1.197209    0.954667
     10          1           0       -0.907922    0.761898   -1.287789
     11          1           0       -1.711306    2.988020   -0.463750
     12          7           0       -1.943097   -1.620955   -0.689073
     13          8           0       -0.974784   -1.625028   -1.446034
     14          8           0       -2.546233   -2.621014   -0.305997
     15          6           0        2.472836   -2.273836    0.996704
     16          6           0        2.701061   -1.205792    1.870613
     17          6           0        2.717874    0.109032    1.395741
     18          6           0        2.501779    0.320462    0.034899
     19          6           0        2.271689   -0.722596   -0.860856
     20          6           0        2.259255   -2.029261   -0.363843
     21          1           0        2.461477   -3.292053    1.374196
     22          1           0        2.867237   -1.392750    2.927721
     23          1           0        2.892172    0.954458    2.050182
     24          1           0        2.109252   -0.504801   -1.909473
     25          1           0        2.081761   -2.856769   -1.044849
     26          7           0        2.517259    1.708088   -0.479547
     27          8           0        2.324167    1.867827   -1.682807
     28          8           0        2.722194    2.609696    0.330233
 ---------------------------------------------------------------------

 SCF Done:  E(RHF) =  -868.340754293     A.U. after   16 cycles
 E2 =    -0.2600866536D+01 EUMP2 =    -0.87094162082969D+03

 The electronic state is 1-A.
 Alpha  occ. eigenvalues --  -20.61090 -20.61067 -20.60827 -20.60812 -15.86095
 Alpha  occ. eigenvalues --  -15.85837 -11.31163 -11.30759 -11.27726 -11.27617
 Alpha  occ. eigenvalues --  -11.27369 -11.27315 -11.27166 -11.26887 -11.26689
 Alpha  occ. eigenvalues --  -11.26546 -11.26268 -11.26020  -1.60140  -1.59903
 Alpha  occ. eigenvalues --   -1.39706  -1.39464  -1.19301  -1.18883  -1.08755
 Alpha  occ. eigenvalues --   -1.08365  -1.04647  -1.04181  -0.95646  -0.95267
 Alpha  occ. eigenvalues --   -0.86063  -0.85619  -0.82502  -0.82087  -0.77581
 Alpha  occ. eigenvalues --   -0.77185  -0.72366  -0.72057  -0.71447  -0.71230
 Alpha  occ. eigenvalues --   -0.70398  -0.69979  -0.64956  -0.64638  -0.64512
 Alpha  occ. eigenvalues --   -0.64170  -0.61988  -0.61529  -0.55168  -0.54722
 Alpha  occ. eigenvalues --   -0.53011  -0.52743  -0.52555  -0.52263  -0.49114
 Alpha  occ. eigenvalues --   -0.49067  -0.48840  -0.48778  -0.45187  -0.44952
 Alpha  occ. eigenvalues --   -0.37290  -0.36875  -0.36222  -0.35659
 Alpha virt. eigenvalues --    0.04847   0.05336   0.11365   0.11878   0.16361
 Alpha virt. eigenvalues --    0.17019   0.21464   0.22113   0.27089   0.27866
 Alpha virt. eigenvalues --    0.28379   0.29087   0.31054   0.31581   0.32112

 Mulliken charges:
               1
     1  C   -0.170455
     2  C   -0.218964
     3  C   -0.171944
     4  C    0.158433
     5  C   -0.175099
     6  C   -0.219899
     7  H    0.227047
     8  H    0.222729
     9  H    0.273525
    10  H    0.279673
    11  H    0.233574
    12  N    0.489848
    13  O   -0.466957
    14  O   -0.462030
    15  C   -0.173308
    16  C   -0.219534
    17  C   -0.173764
    18  C    0.151071
    19  C   -0.164361
    20  C   -0.206659
    21  H    0.226581
    22  H    0.220801
    23  H    0.271376
    24  H    0.276738
    25  H    0.233182
    26  N    0.486582
    27  O   -0.465521
    28  O   -0.462663
 Sum of Mulliken charges =  -0.00000

 Dipole moment (field-independent basis, Debye):
    X=             -1.8100    Y=             -0.4061    Z=              3.4166  Tot=              3.8877
 Quadrupole moment (field-independent basis, Debye-Ang):
   XX=            -95.7238   YY=           -109.6736   ZZ=           -100.6433
   XY=            -21.8815   XZ=             -0.8732   YZ=             -0.4443

 Normal termination of Gaussian 16 at Thu May  6 22:43:19 2021.
