 Gaussian 16, Revision A.03,
 Gaussian 16:  EM64L-G16RevA.03 25-Dec-2016

 -------------
 #p 6-31g* mp2
 -------------

 ------------------------------------------------------
 Input file generated by CHIRIPA (05-May-2021 14:55:22)
 ------------------------------------------------------
 Symbolic Z-matrix:
 Charge =  0 Multiplicity = 1

                         Standard orientation:
 ---------------------------------------------------------------------
 Center     Atomic      Atomic             Coordinates (Angstroms)
 Number     Number       Type             X           Y           Z
 ---------------------------------------------------------------------
      1          6           0        3.680117    2.499512   -0.395923
      2          6           0        3.214817    1.675205   -1.425746
      3          6           0        2.880433    0.341721   -1.171667
      4          6           0        3.024157   -0.136707    0.129770
      5          6           0        3.485075    0.659624    1.177005
      6          6           0        3.813526    1.989989    0.899881
      7          1           0        3.937569    3.534183   -0.602249
      8          1           0        3.110210    2.068205   -2.433046
      9          1           0        2.517855   -0.318441   -1.950218
     10          1           0        3.578821    0.239384    2.171001
     11          1           0        4.174637    2.627849    1.701616
     12          7           0        2.673301   -1.546756    0.410951
     13          8           0        2.808813   -1.944209    1.566072
     14          8           0        2.269431   -2.227800   -0.529105
     15          6           0       -3.187791   -0.173044   -0.019595
     16          6           0       -2.553467   -1.282364   -0.859253
     17          6           0       -1.038332   -1.371006   -0.674037
     18          1           0       -2.727544    0.788324   -0.285847
     19          1           0       -2.956614   -0.347343    1.040392
     20          1           0       -2.786936   -1.106787   -1.917214
     21          1           0       -3.015411   -2.241177   -0.591108
     22          1           0       -0.789245   -1.569849    0.373349
     23          1           0       -0.559472   -0.429013   -0.960291
     24          1           0       -0.605483   -2.170508   -1.283380
     25          6           0       -4.702086   -0.071911   -0.193981
     26          6           0       -5.336409    1.037409    0.645677
     27          6           0       -6.851543    1.126051    0.460461
     28          1           0       -4.933262    0.102387   -1.253968
     29          1           0       -5.162331   -1.033279    0.072270
     30          1           0       -4.874464    1.996222    0.377532
     31          1           0       -5.102939    0.861831    1.703638
     32          1           0       -7.330404    0.184058    0.746716
     33          1           0       -7.100631    1.324893   -0.586925
     34          1           0       -7.284393    1.925553    1.069803
 ---------------------------------------------------------------------

 SCF Done:  E(RHF) =  -669.535935925     A.U. after   15 cycles
 E2 =    -0.2091728598D+01 EUMP2 =    -0.67162766452341D+03

 The electronic state is 1-A.
 Alpha  occ. eigenvalues --  -20.60821 -20.60793 -15.85834 -11.31198 -11.27764
 Alpha  occ. eigenvalues --  -11.27760 -11.27512 -11.26787 -11.26778 -11.21412
 Alpha  occ. eigenvalues --  -11.21110 -11.21053 -11.20985 -11.20921 -11.20242
 Alpha  occ. eigenvalues --   -1.59863  -1.39420  -1.19369  -1.08766  -1.08083
 Alpha  occ. eigenvalues --   -1.04774  -1.03128  -0.95627  -0.95536  -0.86574
 Alpha  occ. eigenvalues --   -0.86170  -0.82440  -0.79210  -0.77901  -0.77478
 Alpha  occ. eigenvalues --   -0.72068  -0.71163  -0.70480  -0.65027  -0.64782
 Alpha  occ. eigenvalues --   -0.64718  -0.62122  -0.60535  -0.58931  -0.57168
 Alpha  occ. eigenvalues --   -0.55279  -0.54868  -0.53102  -0.52867  -0.52205
 Alpha  occ. eigenvalues --   -0.51992  -0.49532  -0.48819  -0.48818  -0.47520
 Alpha  occ. eigenvalues --   -0.46259  -0.45459  -0.45365  -0.44817  -0.43285
 Alpha  occ. eigenvalues --   -0.37343  -0.36372
 Alpha virt. eigenvalues --    0.05037   0.11225   0.16507   0.21357   0.23177
 Alpha virt. eigenvalues --    0.24649   0.26894   0.27194   0.27723   0.27897
 Alpha virt. eigenvalues --    0.28762   0.30914   0.31567   0.32052   0.32372

 Mulliken charges:
               1
     1  C   -0.170763
     2  C   -0.219116
     3  C   -0.170532
     4  C    0.159401
     5  C   -0.171008
     6  C   -0.218471
     7  H    0.225584
     8  H    0.223447
     9  H    0.276339
    10  H    0.275551
    11  H    0.223476
    12  N    0.489033
    13  O   -0.460520
    14  O   -0.457803
    15  C   -0.297697
    16  C   -0.301611
    17  C   -0.475981
    18  H    0.145967
    19  H    0.150139
    20  H    0.148019
    21  H    0.153032
    22  H    0.158321
    23  H    0.143091
    24  H    0.174727
    25  C   -0.297761
    26  C   -0.299173
    27  C   -0.475454
    28  H    0.148163
    29  H    0.150282
    30  H    0.150057
    31  H    0.152014
    32  H    0.155596
    33  H    0.154488
    34  H    0.159166
 Sum of Mulliken charges =  -0.00000

 Dipole moment (field-independent basis, Debye):
    X=              1.3961    Y=              4.8412    Z=             -0.9786  Tot=              5.1326
 Quadrupole moment (field-independent basis, Debye-Ang):
   XX=            -89.4605   YY=            -96.0167   ZZ=            -89.8834
   XY=             15.7185   XZ=             -1.7025   YZ=              1.0344

 Normal termination of Gaussian 16 at Wed May  5 19:01:53 2021.
