 Gaussian 16, Revision A.03,
 Gaussian 16:  EM64L-G16RevA.03 25-Dec-2016

 -------------
 #p 6-31g* mp2
 -------------

 ------------------------------------------------------
 Input file generated by CHIRIPA (05-May-2021 14:57:26)
 ------------------------------------------------------
 Symbolic Z-matrix:
 Charge =  0 Multiplicity = 1

                         Standard orientation:
 ---------------------------------------------------------------------
 Center     Atomic      Atomic             Coordinates (Angstroms)
 Number     Number       Type             X           Y           Z
 ---------------------------------------------------------------------
      1          6           0        1.608518    2.009412   -1.227449
      2          6           0        1.021629    0.812316   -0.804313
      3          6           0        1.797662   -0.188349   -0.211868
      4          6           0        3.163712    0.042560   -0.057341
      5          6           0        3.777738    1.224552   -0.468627
      6          6           0        2.982277    2.211353   -1.058553
      7          1           0        0.998131    2.781368   -1.686696
      8          1           0       -0.045004    0.652738   -0.934208
      9          1           0        1.369161   -1.124545    0.124794
     10          1           0        4.843604    1.354673   -0.325743
     11          1           0        3.440772    3.140044   -1.386214
     12          7           0        3.995547   -1.009461    0.568521
     13          8           0        5.196849   -0.781586    0.693347
     14          8           0        3.430485   -2.041990    0.922395
     15          6           0       -3.425655    2.072393    1.145476
     16          6           0       -4.361454    1.515189    0.267794
     17          6           0       -4.150721    0.248025   -0.283961
     18          6           0       -2.988037   -0.437173    0.065265
     19          6           0       -2.036966    0.091145    0.936835
     20          6           0       -2.268439    1.359849    1.476612
     21          1           0       -3.597413    3.057355    1.569440
     22          1           0       -5.261063    2.066273    0.008844
     23          1           0       -4.858675   -0.207025   -0.965980
     24          1           0       -1.149664   -0.482301    1.176152
     25          1           0       -1.539955    1.790099    2.157964
     26          7           0       -2.753966   -1.779479   -0.512512
     27          8           0       -1.721643   -2.362794   -0.188957
     28          8           0       -3.607258   -2.222847   -1.277990
 ---------------------------------------------------------------------

 SCF Done:  E(RHF) =  -868.337024159     A.U. after   16 cycles
 E2 =    -0.2602255188D+01 EUMP2 =    -0.87093927934668D+03

 The electronic state is 1-A.
 Alpha  occ. eigenvalues --  -20.61592 -20.61574 -20.60644 -20.60622 -15.86627
 Alpha  occ. eigenvalues --  -15.85689 -11.32069 -11.31138 -11.28616 -11.28572
 Alpha  occ. eigenvalues --  -11.28303 -11.27735 -11.27632 -11.27598 -11.27584
 Alpha  occ. eigenvalues --  -11.27490 -11.26783 -11.26657  -1.60650  -1.59713
 Alpha  occ. eigenvalues --   -1.40203  -1.39261  -1.20237  -1.19322  -1.09594
 Alpha  occ. eigenvalues --   -1.08708  -1.05634  -1.04723  -0.96422  -0.95523
 Alpha  occ. eigenvalues --   -0.87018  -0.86119  -0.83233  -0.82355  -0.78311
 Alpha  occ. eigenvalues --   -0.77367  -0.72825  -0.71989  -0.71902  -0.71304
 Alpha  occ. eigenvalues --   -0.71041  -0.70419  -0.65852  -0.65599  -0.64960
 Alpha  occ. eigenvalues --   -0.64743  -0.63006  -0.61988  -0.56076  -0.55256
 Alpha  occ. eigenvalues --   -0.54059  -0.53674  -0.53058  -0.52696  -0.49598
 Alpha  occ. eigenvalues --   -0.49582  -0.48675  -0.48651  -0.45579  -0.44648
 Alpha  occ. eigenvalues --   -0.38206  -0.37468  -0.37160  -0.36244
 Alpha virt. eigenvalues --    0.04182   0.05124   0.10314   0.11277   0.15680
 Alpha virt. eigenvalues --    0.16585   0.20381   0.21670   0.25560   0.27035
 Alpha virt. eigenvalues --    0.27685   0.28673   0.30583   0.30922   0.31481

 Mulliken charges:
               1
     1  C   -0.173710
     2  C   -0.224290
     3  C   -0.183311
     4  C    0.159553
     5  C   -0.171352
     6  C   -0.218830
     7  H    0.224039
     8  H    0.228484
     9  H    0.287802
    10  H    0.275422
    11  H    0.222440
    12  N    0.487644
    13  O   -0.461678
    14  O   -0.456723
    15  C   -0.172054
    16  C   -0.218268
    17  C   -0.171082
    18  C    0.158266
    19  C   -0.186473
    20  C   -0.218598
    21  H    0.228454
    22  H    0.226465
    23  H    0.278254
    24  H    0.279523
    25  H    0.229109
    26  N    0.488796
    27  O   -0.462695
    28  O   -0.455188
 Sum of Mulliken charges =  -0.00000

 Dipole moment (field-independent basis, Debye):
    X=             -4.0068    Y=              8.3641    Z=             -0.1277  Tot=              9.2752
 Quadrupole moment (field-independent basis, Debye-Ang):
   XX=           -110.9973   YY=           -107.8001   ZZ=           -104.2465
   XY=             -0.1984   XZ=            -11.1153   YZ=             -1.2317

 Normal termination of Gaussian 16 at Thu May  6 08:22:39 2021.
