 Gaussian 16, Revision A.03,
 Gaussian 16:  EM64L-G16RevA.03 25-Dec-2016

 -------------
 #p 6-31g* mp2
 -------------

 ------------------------------------------------------
 Input file generated by CHIRIPA (05-May-2021 14:51:10)
 ------------------------------------------------------
 Symbolic Z-matrix:
 Charge =  0 Multiplicity = 1

                         Standard orientation:
 ---------------------------------------------------------------------
 Center     Atomic      Atomic             Coordinates (Angstroms)
 Number     Number       Type             X           Y           Z
 ---------------------------------------------------------------------
      1          6           0        4.448749   -0.059494    0.009084
      2          6           0        4.950167    1.359566   -0.260789
      3          6           0        6.464620    1.423298   -0.461200
      4          1           0        4.954916   -0.457304    0.899302
      5          1           0        4.736134   -0.708209   -0.829948
      6          1           0        4.660718    2.005713    0.577859
      7          1           0        4.442606    1.754115   -1.150356
      8          1           0        6.767349    0.801911   -1.310221
      9          1           0        6.986700    1.054939    0.427813
     10          1           0        6.801518    2.446858   -0.652732
     11          6           0        2.936686   -0.139475    0.211560
     12          6           0        2.435267   -1.558535    0.481432
     13          6           0        0.920814   -1.622267    0.681844
     14          1           0        2.649300    0.509240    1.050591
     15          1           0        2.430519    0.258335   -0.678658
     16          1           0        2.942828   -1.953084    1.370999
     17          1           0        2.724716   -2.204682   -0.357215
     18          1           0        0.398735   -1.253908   -0.207170
     19          1           0        0.618086   -1.000880    1.530864
     20          1           0        0.583916   -2.645827    0.873375
     21          6           0       -4.136328    0.685831   -0.317299
     22          6           0       -3.879122    1.956501    0.493396
     23          6           0       -4.774230    3.120678    0.067640
     24          1           0       -3.978983    0.900431   -1.383195
     25          1           0       -5.191033    0.397308   -0.208920
     26          1           0       -2.824887    2.241764    0.384634
     27          1           0       -4.036912    1.738802    1.557504
     28          1           0       -5.830267    2.860431    0.192771
     29          1           0       -4.611356    3.366251   -0.986763
     30          1           0       -4.573655    4.018823    0.660064
     31          6           0       -3.249106   -0.486862    0.096656
     32          6           0       -3.506312   -1.757532   -0.714040
     33          6           0       -2.611204   -2.921709   -0.288284
     34          1           0       -2.194401   -0.198338   -0.011724
     35          1           0       -3.406452   -0.701462    1.162551
     36          1           0       -3.348523   -1.539833   -1.778148
     37          1           0       -4.560548   -2.042795   -0.605277
     38          1           0       -2.774078   -3.167282    0.766120
     39          1           0       -1.555167   -2.661462   -0.413415
     40          1           0       -2.811780   -3.819853   -0.880708
 ---------------------------------------------------------------------

 SCF Done:  E(RHF) =  -470.732488993     A.U. after   11 cycles
 E2 =    -0.1583135469D+01 EUMP2 =    -0.47231562446206D+03

 The electronic state is 1-A.
 Alpha  occ. eigenvalues --  -11.21629 -11.21624 -11.21557 -11.21499 -11.21437
 Alpha  occ. eigenvalues --  -11.21376 -11.21330 -11.21259 -11.21106 -11.21089
 Alpha  occ. eigenvalues --  -11.21039 -11.20853  -1.08464  -1.08351  -1.03577
 Alpha  occ. eigenvalues --   -1.03436  -0.96045  -0.95871  -0.87087  -0.86871
 Alpha  occ. eigenvalues --   -0.79710  -0.79447  -0.78291  -0.78139  -0.65112
 Alpha  occ. eigenvalues --   -0.64975  -0.61054  -0.60784  -0.59420  -0.59249
 Alpha  occ. eigenvalues --   -0.57648  -0.57485  -0.55424  -0.55090  -0.52846
 Alpha  occ. eigenvalues --   -0.52596  -0.52444  -0.52187  -0.50080  -0.49717
 Alpha  occ. eigenvalues --   -0.47989  -0.47793  -0.46756  -0.46444  -0.45898
 Alpha  occ. eigenvalues --   -0.45744  -0.45684  -0.45478  -0.43771  -0.43700
 Alpha virt. eigenvalues --    0.21897   0.23000   0.23705   0.24738   0.26012
 Alpha virt. eigenvalues --    0.26683   0.27099   0.27386   0.28007   0.29298
 Alpha virt. eigenvalues --    0.30701   0.31231   0.31536   0.31856   0.32214

 Mulliken charges:
               1
     1  C   -0.298286
     2  C   -0.299657
     3  C   -0.475724
     4  H    0.149806
     5  H    0.149585
     6  H    0.151980
     7  H    0.151859
     8  H    0.155214
     9  H    0.155245
    10  H    0.160317
    11  C   -0.298653
    12  C   -0.300024
    13  C   -0.479619
    14  H    0.149657
    15  H    0.149340
    16  H    0.152206
    17  H    0.152047
    18  H    0.156020
    19  H    0.156513
    20  H    0.163844
    21  C   -0.298106
    22  C   -0.299576
    23  C   -0.475629
    24  H    0.149175
    25  H    0.149385
    26  H    0.151875
    27  H    0.151801
    28  H    0.155121
    29  H    0.155039
    30  H    0.160051
    31  C   -0.301184
    32  C   -0.299292
    33  C   -0.483251
    34  H    0.153009
    35  H    0.149360
    36  H    0.150713
    37  H    0.151282
    38  H    0.153943
    39  H    0.166054
    40  H    0.158561
 Sum of Mulliken charges =  -0.00000

 Dipole moment (field-independent basis, Debye):
    X=              0.0715    Y=             -0.0045    Z=              0.0261  Tot=              0.0762
 Quadrupole moment (field-independent basis, Debye-Ang):
   XX=            -86.0520   YY=            -85.6996   ZZ=            -83.3498
   XY=              0.4162   XZ=             -0.3228   YZ=              0.1104

 Normal termination of Gaussian 16 at Thu May  6 03:47:55 2021.
