 Gaussian 16, Revision A.03,
 Gaussian 16:  EM64L-G16RevA.03 25-Dec-2016

 -------------
 #p 6-31g* mp2
 -------------

 ------------------------------------------------------
 Input file generated by CHIRIPA (05-May-2021 14:55:19)
 ------------------------------------------------------
 Symbolic Z-matrix:
 Charge =  0 Multiplicity = 1

                         Standard orientation:
 ---------------------------------------------------------------------
 Center     Atomic      Atomic             Coordinates (Angstroms)
 Number     Number       Type             X           Y           Z
 ---------------------------------------------------------------------
      1          6           0        5.047402    1.963013   -0.368459
      2          6           0        5.207269    0.722308   -0.994250
      3          6           0        4.315766   -0.323223   -0.736110
      4          6           0        3.270940   -0.092224    0.157348
      5          6           0        3.085133    1.132597    0.796549
      6          6           0        3.988710    2.163844    0.523371
      7          1           0        5.744632    2.769658   -0.574829
      8          1           0        6.028540    0.563481   -1.687310
      9          1           0        4.416123   -1.293727   -1.206714
     10          1           0        2.256728    1.260803    1.482645
     11          1           0        3.862102    3.126344    1.010821
     12          7           0        2.320754   -1.191520    0.438589
     13          8           0        1.408468   -0.962580    1.229763
     14          8           0        2.506277   -2.261272   -0.137474
     15          6           0       -5.096764    0.097329    0.046147
     16          6           0       -5.428358    1.534801   -0.355980
     17          6           0       -6.851254    1.942588    0.027254
     18          1           0       -5.815562   -0.584553   -0.428523
     19          1           0       -5.231086   -0.012771    1.131149
     20          1           0       -5.292115    1.642519   -1.439701
     21          1           0       -4.708569    2.213324    0.119548
     22          1           0       -6.996414    1.863423    1.109502
     23          1           0       -7.583275    1.289376   -0.458606
     24          1           0       -7.067052    2.973730   -0.269461
     25          6           0       -3.677744   -0.325048   -0.330296
     26          6           0       -3.346150   -1.762520    0.071830
     27          6           0       -1.923253   -2.170307   -0.311403
     28          1           0       -3.543421   -0.214948   -1.415298
     29          1           0       -2.958946    0.356834    0.144373
     30          1           0       -4.065938   -2.441043   -0.403698
     31          1           0       -3.482393   -1.870239    1.155551
     32          1           0       -1.191232   -1.517095    0.174455
     33          1           0       -1.778093   -2.091142   -1.393653
     34          1           0       -1.707455   -3.201449   -0.014689
 ---------------------------------------------------------------------

 SCF Done:  E(RHF) =  -669.536186426     A.U. after   15 cycles
 E2 =    -0.2090902105D+01 EUMP2 =    -0.67162708853054D+03

 The electronic state is 1-A.
 Alpha  occ. eigenvalues --  -20.60935 -20.60929 -15.85960 -11.31287 -11.27852
 Alpha  occ. eigenvalues --  -11.27845 -11.27588 -11.26858 -11.26848 -11.21156
 Alpha  occ. eigenvalues --  -11.20772 -11.20714 -11.20580 -11.20491 -11.19460
 Alpha  occ. eigenvalues --   -1.59986  -1.39544  -1.19454  -1.08857  -1.07691
 Alpha  occ. eigenvalues --   -1.04852  -1.02694  -0.95700  -0.95113  -0.86253
 Alpha  occ. eigenvalues --   -0.86125  -0.82534  -0.78795  -0.77586  -0.77468
 Alpha  occ. eigenvalues --   -0.72181  -0.71299  -0.70564  -0.65110  -0.64855
 Alpha  occ. eigenvalues --   -0.64329  -0.62200  -0.60089  -0.58561  -0.56725
 Alpha  occ. eigenvalues --   -0.55358  -0.54398  -0.53182  -0.52944  -0.51785
 Alpha  occ. eigenvalues --   -0.51549  -0.49220  -0.48934  -0.48781  -0.47085
 Alpha  occ. eigenvalues --   -0.45860  -0.45091  -0.44971  -0.44742  -0.42953
 Alpha  occ. eigenvalues --   -0.37432  -0.36453
 Alpha virt. eigenvalues --    0.04913   0.11202   0.16396   0.21335   0.23552
 Alpha virt. eigenvalues --    0.25233   0.27252   0.27357   0.28130   0.28249
 Alpha virt. eigenvalues --    0.29005   0.30887   0.32241   0.32407   0.32542

 Mulliken charges:
               1
     1  C   -0.170589
     2  C   -0.218568
     3  C   -0.170702
     4  C    0.158479
     5  C   -0.170737
     6  C   -0.218519
     7  H    0.225975
     8  H    0.223820
     9  H    0.275948
    10  H    0.275471
    11  H    0.223772
    12  N    0.488729
    13  O   -0.460256
    14  O   -0.457892
    15  C   -0.297554
    16  C   -0.298812
    17  C   -0.475226
    18  H    0.148515
    19  H    0.148978
    20  H    0.150648
    21  H    0.150237
    22  H    0.154738
    23  H    0.154807
    24  H    0.158118
    25  C   -0.297438
    26  C   -0.299608
    27  C   -0.481709
    28  H    0.146758
    29  H    0.149278
    30  H    0.146991
    31  H    0.150953
    32  H    0.176321
    33  H    0.147124
    34  H    0.161950
 Sum of Mulliken charges =  -0.00000

 Dipole moment (field-independent basis, Debye):
    X=              3.6812    Y=              3.8389    Z=             -0.9291  Tot=              5.3992
 Quadrupole moment (field-independent basis, Debye-Ang):
   XX=            -73.9635   YY=            -94.2769   ZZ=            -92.9706
   XY=             11.4542   XZ=             -4.3631   YZ=              3.0006

 Normal termination of Gaussian 16 at Thu May  6 17:23:58 2021.
