 Gaussian 16, Revision A.03,
 Gaussian 16:  EM64L-G16RevA.03 25-Dec-2016

 -------------
 #p 6-31g* mp2
 -------------

 ------------------------------------------------------
 Input file generated by CHIRIPA (05-May-2021 14:53:15)
 ------------------------------------------------------
 Symbolic Z-matrix:
 Charge =  0 Multiplicity = 1

                         Standard orientation:
 ---------------------------------------------------------------------
 Center     Atomic      Atomic             Coordinates (Angstroms)
 Number     Number       Type             X           Y           Z
 ---------------------------------------------------------------------
      1          6           0       -4.403396   -0.356092   -0.232880
      2          6           0       -4.180929   -1.606041    0.619248
      3          6           0       -5.377577   -2.557524    0.596726
      4          1           0       -5.298701    0.169910    0.125861
      5          1           0       -4.612681   -0.659075   -1.268155
      6          1           0       -3.970759   -1.300743    1.652320
      7          1           0       -3.285940   -2.129027    0.258559
      8          1           0       -5.585769   -2.890554   -0.425208
      9          1           0       -6.274479   -2.057564    0.976472
     10          1           0       -5.197078   -3.444239    1.212370
     11          6           0       -3.215871    0.604823   -0.220446
     12          6           0       -3.438338    1.854772   -1.072574
     13          6           0       -2.241690    2.806255   -1.050052
     14          1           0       -3.006586    0.907806    0.814829
     15          1           0       -2.320566    0.078821   -0.579187
     16          1           0       -4.333328    2.377758   -0.711885
     17          1           0       -3.648508    1.549474   -2.105646
     18          1           0       -1.344788    2.306295   -1.429798
     19          1           0       -2.033498    3.139285   -0.028118
     20          1           0       -2.422190    3.692970   -1.665696
     21          6           0        1.372081    1.026144    1.767887
     22          6           0        0.907278    0.508699    0.554326
     23          6           0        1.787123   -0.115747   -0.334768
     24          6           0        3.131364   -0.205758    0.023287
     25          6           0        3.624893    0.299925    1.224954
     26          6           0        2.727016    0.920293    2.098745
     27          1           0        0.681593    1.509645    2.452613
     28          1           0       -0.144454    0.589476    0.294750
     29          1           0        1.454143   -0.525036   -1.280824
     30          1           0        4.678881    0.204344    1.456022
     31          1           0        3.090804    1.321236    3.040525
     32          7           0        4.072361   -0.864671   -0.909856
     33          8           0        5.251937   -0.931257   -0.571031
     34          8           0        3.612520   -1.302065   -1.962410
 ---------------------------------------------------------------------

 SCF Done:  E(RHF) =  -669.535384760     A.U. after   15 cycles
 E2 =    -0.2091909319D+01 EUMP2 =    -0.67162729407841D+03

 The electronic state is 1-A.
 Alpha  occ. eigenvalues --  -20.60703 -20.60698 -15.85755 -11.31100 -11.27664
 Alpha  occ. eigenvalues --  -11.27649 -11.27386 -11.26682 -11.26577 -11.22535
 Alpha  occ. eigenvalues --  -11.22472 -11.22270 -11.22158 -11.22025 -11.21576
 Alpha  occ. eigenvalues --   -1.59779  -1.39333  -1.19262  -1.09317  -1.08658
 Alpha  occ. eigenvalues --   -1.04663  -1.04320  -0.96787  -0.95502  -0.87798
 Alpha  occ. eigenvalues --   -0.86061  -0.82341  -0.80400  -0.79168  -0.77376
 Alpha  occ. eigenvalues --   -0.71974  -0.71101  -0.70376  -0.65956  -0.64911
 Alpha  occ. eigenvalues --   -0.64660  -0.62053  -0.61678  -0.60145  -0.58403
 Alpha  occ. eigenvalues --   -0.56085  -0.55164  -0.53433  -0.53247  -0.52970
 Alpha  occ. eigenvalues --   -0.52772  -0.50727  -0.48786  -0.48731  -0.48631
 Alpha  occ. eigenvalues --   -0.47427  -0.46627  -0.46582  -0.44744  -0.44602
 Alpha  occ. eigenvalues --   -0.37239  -0.36258
 Alpha virt. eigenvalues --    0.05136   0.11358   0.16599   0.19801   0.22518
 Alpha virt. eigenvalues --    0.23780   0.24928   0.25969   0.27176   0.28260
 Alpha virt. eigenvalues --    0.29213   0.30110   0.30746   0.31361   0.31692

 Mulliken charges:
               1
     1  C   -0.297553
     2  C   -0.300638
     3  C   -0.476307
     4  H    0.152467
     5  H    0.153105
     6  H    0.150878
     7  H    0.152569
     8  H    0.157146
     9  H    0.156049
    10  H    0.162520
    11  C   -0.304065
    12  C   -0.299786
    13  C   -0.479025
    14  H    0.145958
    15  H    0.144723
    16  H    0.155581
    17  H    0.156351
    18  H    0.153723
    19  H    0.151760
    20  H    0.166777
    21  C   -0.173773
    22  C   -0.227083
    23  C   -0.174968
    24  C    0.159026
    25  C   -0.171520
    26  C   -0.218286
    27  H    0.225375
    28  H    0.240010
    29  H    0.274354
    30  H    0.275196
    31  H    0.222882
    32  N    0.488118
    33  O   -0.460747
    34  O   -0.460818
 Sum of Mulliken charges =  -0.00000

 Dipole moment (field-independent basis, Debye):
    X=             -3.5971    Y=              2.3367    Z=              3.2342  Tot=              5.3721
 Quadrupole moment (field-independent basis, Debye-Ang):
   XX=           -112.5038   YY=            -96.4220   ZZ=            -92.2469
   XY=              7.9458   XZ=             13.0473   YZ=              0.3431

 Normal termination of Gaussian 16 at Wed May  5 23:32:14 2021.
