 Gaussian 16, Revision A.03,
 Gaussian 16:  EM64L-G16RevA.03 25-Dec-2016

 -------------
 #p 6-31g* mp2
 -------------

 ------------------------------------------------------
 Input file generated by CHIRIPA (05-May-2021 14:51:14)
 ------------------------------------------------------
 Symbolic Z-matrix:
 Charge =  0 Multiplicity = 1

                         Standard orientation:
 ---------------------------------------------------------------------
 Center     Atomic      Atomic             Coordinates (Angstroms)
 Number     Number       Type             X           Y           Z
 ---------------------------------------------------------------------
      1          6           0       -3.319639   -0.588241   -0.129581
      2          6           0       -4.508303   -1.547714   -0.196465
      3          6           0       -4.088281   -3.015709   -0.116673
      4          1           0       -2.625007   -0.817429   -0.949279
      5          1           0       -2.768697   -0.762670    0.804995
      6          1           0       -5.057639   -1.370580   -1.129990
      7          1           0       -5.200280   -1.316090    0.623373
      8          1           0       -3.559136   -3.214590    0.820905
      9          1           0       -3.415684   -3.269389   -0.942421
     10          1           0       -4.953519   -3.684111   -0.166290
     11          6           0       -3.723469    0.882974   -0.208156
     12          6           0       -2.534805    1.842447   -0.141272
     13          6           0       -2.954827    3.310442   -0.221064
     14          1           0       -4.274412    1.057403   -1.142732
     15          1           0       -4.418101    1.112163    0.611542
     16          1           0       -1.842828    1.610823   -0.961111
     17          1           0       -1.985469    1.665313    0.792253
     18          1           0       -3.627424    3.564123    0.604684
     19          1           0       -3.483972    3.509323   -1.158642
     20          1           0       -2.089589    3.978845   -0.171447
     21          6           0        2.788733   -0.294856    0.011863
     22          6           0        1.831372    0.139825    1.122042
     23          6           0        0.368955   -0.161884    0.793254
     24          1           0        2.509771    0.210534   -0.922860
     25          1           0        2.666851   -1.372165   -0.166875
     26          1           0        1.956009    1.215725    1.299586
     27          1           0        2.112763   -0.366513    2.054274
     28          1           0        0.222918   -1.235529    0.636541
     29          1           0        0.065272    0.355698   -0.122436
     30          1           0       -0.298015    0.156983    1.600308
     31          6           0        4.254376    0.000124    0.325875
     32          6           0        5.211735   -0.434558   -0.784305
     33          6           0        6.674153   -0.132850   -0.455517
     34          1           0        4.376256    1.077432    0.504613
     35          1           0        4.533337   -0.505266    1.260597
     36          1           0        4.930345    0.071779   -1.716537
     37          1           0        5.087100   -1.510457   -0.961849
     38          1           0        6.977836   -0.650431    0.460173
     39          1           0        6.820190    0.940795   -0.298804
     40          1           0        7.341123   -0.451717   -1.262570
 ---------------------------------------------------------------------

 SCF Done:  E(RHF) =  -470.731187167     A.U. after   11 cycles
 E2 =    -0.1584201049D+01 EUMP2 =    -0.47231538821564D+03

 The electronic state is 1-A.
 Alpha  occ. eigenvalues --  -11.21589 -11.21536 -11.21529 -11.21470 -11.21381
 Alpha  occ. eigenvalues --  -11.21321 -11.21317 -11.21245 -11.21062 -11.21031
 Alpha  occ. eigenvalues --  -11.21012 -11.20911  -1.08420  -1.08341  -1.03525
 Alpha  occ. eigenvalues --   -1.03435  -0.95956  -0.95909  -0.87008  -0.86910
 Alpha  occ. eigenvalues --   -0.79717  -0.79456  -0.78295  -0.78022  -0.65036
 Alpha  occ. eigenvalues --   -0.65007  -0.60917  -0.60883  -0.59405  -0.59207
 Alpha  occ. eigenvalues --   -0.57576  -0.57518  -0.55256  -0.55194  -0.52821
 Alpha  occ. eigenvalues --   -0.52521  -0.52368  -0.52331  -0.49942  -0.49859
 Alpha  occ. eigenvalues --   -0.47928  -0.47823  -0.46576  -0.46556  -0.45910
 Alpha  occ. eigenvalues --   -0.45690  -0.45641  -0.45386  -0.43739  -0.43589
 Alpha virt. eigenvalues --    0.21972   0.23075   0.24029   0.24532   0.25258
 Alpha virt. eigenvalues --    0.26085   0.26821   0.27712   0.27866   0.29816
 Alpha virt. eigenvalues --    0.30145   0.31102   0.31853   0.32011   0.32311

 Mulliken charges:
               1
     1  C   -0.300435
     2  C   -0.299546
     3  C   -0.475550
     4  H    0.150078
     5  H    0.153690
     6  H    0.151521
     7  H    0.151461
     8  H    0.154960
     9  H    0.154990
    10  H    0.159992
    11  C   -0.298154
    12  C   -0.302562
    13  C   -0.475119
    14  H    0.148715
    15  H    0.148817
    16  H    0.151147
    17  H    0.157616
    18  H    0.154702
    19  H    0.154574
    20  H    0.159395
    21  C   -0.298540
    22  C   -0.301156
    23  C   -0.476331
    24  H    0.149237
    25  H    0.149465
    26  H    0.151317
    27  H    0.151151
    28  H    0.154561
    29  H    0.161098
    30  H    0.159108
    31  C   -0.298163
    32  C   -0.299594
    33  C   -0.475676
    34  H    0.149426
    35  H    0.149620
    36  H    0.151805
    37  H    0.151885
    38  H    0.155165
    39  H    0.155145
    40  H    0.160186
 Sum of Mulliken charges =  -0.00000

 Dipole moment (field-independent basis, Debye):
    X=              0.0018    Y=             -0.0074    Z=              0.0056  Tot=              0.0095
 Quadrupole moment (field-independent basis, Debye-Ang):
   XX=            -86.3497   YY=            -85.3360   ZZ=            -83.5826
   XY=             -0.0444   XZ=             -0.2400   YZ=             -0.3182

 Normal termination of Gaussian 16 at Wed May  5 21:39:55 2021.
