 Gaussian 16, Revision A.03,
 Gaussian 16:  EM64L-G16RevA.03 25-Dec-2016

 -------------
 #p 6-31g* mp2
 -------------

 ------------------------------------------------------
 Input file generated by CHIRIPA (05-May-2021 14:55:21)
 ------------------------------------------------------
 Symbolic Z-matrix:
 Charge =  0 Multiplicity = 1

                         Standard orientation:
 ---------------------------------------------------------------------
 Center     Atomic      Atomic             Coordinates (Angstroms)
 Number     Number       Type             X           Y           Z
 ---------------------------------------------------------------------
      1          6           0       -2.672191   -2.186389   -0.105076
      2          6           0       -4.000323   -2.017139    0.299821
      3          6           0       -4.574128   -0.742833    0.337774
      4          6           0       -3.787383    0.345029   -0.037564
      5          6           0       -2.461380    0.208809   -0.445547
      6          6           0       -1.908305   -1.074835   -0.475815
      7          1           0       -2.234498   -3.179927   -0.131574
      8          1           0       -4.595941   -2.878573    0.588292
      9          1           0       -5.599894   -0.583210    0.647195
     10          1           0       -1.892653    1.086637   -0.727300
     11          1           0       -0.876606   -1.203279   -0.790686
     12          7           0       -4.383871    1.699023   -0.001453
     13          8           0       -3.669630    2.641298   -0.337031
     14          8           0       -5.554346    1.792369    0.361745
     15          6           0        4.039917   -0.352932    0.337466
     16          6           0        3.405529   -1.541675   -0.385324
     17          6           0        2.041318   -1.923718    0.189797
     18          1           0        4.144565   -0.593904    1.404203
     19          1           0        3.361012    0.508931    0.276852
     20          1           0        4.086043   -2.400642   -0.324555
     21          1           0        3.302556   -1.297918   -1.450498
     22          1           0        1.342805   -1.084038    0.114849
     23          1           0        2.130744   -2.193027    1.247188
     24          1           0        1.605916   -2.775695   -0.341636
     25          6           0        5.404113    0.040932   -0.226067
     26          6           0        6.038502    1.229675    0.496723
     27          6           0        7.402713    1.611719   -0.078399
     28          1           0        6.083019   -0.820932   -0.165453
     29          1           0        5.299465    0.281904   -1.292803
     30          1           0        6.141475    0.985918    1.561897
     31          1           0        5.357988    2.088642    0.435955
     32          1           0        7.313287    1.881027   -1.135790
     33          1           0        8.101226    0.772037   -0.003450
     34          1           0        7.838115    2.463694    0.453035
 ---------------------------------------------------------------------

 SCF Done:  E(RHF) =  -669.535472771     A.U. after   15 cycles
 E2 =    -0.2090862045D+01 EUMP2 =    -0.67162633481604D+03

 The electronic state is 1-A.
 Alpha  occ. eigenvalues --  -20.60722 -20.60717 -15.85774 -11.31126 -11.27695
 Alpha  occ. eigenvalues --  -11.27684 -11.27421 -11.26709 -11.26641 -11.22373
 Alpha  occ. eigenvalues --  -11.22156 -11.21957 -11.21919 -11.21796 -11.21320
 Alpha  occ. eigenvalues --   -1.59798  -1.39352  -1.19293  -1.08973  -1.08689
 Alpha  occ. eigenvalues --   -1.04696  -1.04115  -0.96588  -0.95528  -0.87618
 Alpha  occ. eigenvalues --   -0.86088  -0.82363  -0.80188  -0.78739  -0.77413
 Alpha  occ. eigenvalues --   -0.71993  -0.71121  -0.70402  -0.65617  -0.64944
 Alpha  occ. eigenvalues --   -0.64710  -0.62103  -0.61466  -0.59982  -0.58166
 Alpha  occ. eigenvalues --   -0.55902  -0.55180  -0.53349  -0.53072  -0.52993
 Alpha  occ. eigenvalues --   -0.52706  -0.50497  -0.48751  -0.48749  -0.48488
 Alpha  occ. eigenvalues --   -0.47194  -0.46291  -0.46188  -0.44761  -0.44355
 Alpha  occ. eigenvalues --   -0.37270  -0.36294
 Alpha virt. eigenvalues --    0.05117   0.11320   0.16581   0.20425   0.22543
 Alpha virt. eigenvalues --    0.23839   0.25848   0.26411   0.26969   0.27915
 Alpha virt. eigenvalues --    0.28959   0.30167   0.31092   0.31506   0.32209

 Mulliken charges:
               1
     1  C   -0.172250
     2  C   -0.218509
     3  C   -0.171245
     4  C    0.158783
     5  C   -0.172798
     6  C   -0.222741
     7  H    0.225677
     8  H    0.223095
     9  H    0.275339
    10  H    0.274826
    11  H    0.231840
    12  N    0.488103
    13  O   -0.460730
    14  O   -0.460627
    15  C   -0.299105
    16  C   -0.299667
    17  C   -0.480904
    18  H    0.151335
    19  H    0.150260
    20  H    0.154868
    21  H    0.152425
    22  H    0.151707
    23  H    0.160964
    24  H    0.155350
    25  C   -0.298835
    26  C   -0.300249
    27  C   -0.476056
    28  H    0.150190
    29  H    0.150274
    30  H    0.152621
    31  H    0.153238
    32  H    0.155715
    33  H    0.155331
    34  H    0.161773
 Sum of Mulliken charges =  -0.00000

 Dipole moment (field-independent basis, Debye):
    X=              2.3157    Y=             -4.7784    Z=             -0.0868  Tot=              5.3107
 Quadrupole moment (field-independent basis, Debye-Ang):
   XX=           -107.1740   YY=            -97.5853   ZZ=            -94.6980
   XY=             20.2626   XZ=             -0.5247   YZ=             -0.9696

 Normal termination of Gaussian 16 at Thu May  6 15:48:47 2021.
