 Gaussian 16, Revision A.03,
 Gaussian 16:  EM64L-G16RevA.03 25-Dec-2016

 -------------
 #p 6-31g* mp2
 -------------

 ------------------------------------------------------
 Input file generated by CHIRIPA (05-May-2021 14:57:23)
 ------------------------------------------------------
 Symbolic Z-matrix:
 Charge =  0 Multiplicity = 1

                         Standard orientation:
 ---------------------------------------------------------------------
 Center     Atomic      Atomic             Coordinates (Angstroms)
 Number     Number       Type             X           Y           Z
 ---------------------------------------------------------------------
      1          6           0        5.662769    0.720961   -0.674149
      2          6           0        5.303152    0.969252    0.654590
      3          6           0        4.068923    0.536816    1.148782
      4          6           0        3.214821   -0.144103    0.282671
      5          6           0        3.544439   -0.406714   -1.046117
      6          6           0        4.783814    0.034980   -1.518773
      7          1           0        6.623546    1.060484   -1.049685
      8          1           0        5.983760    1.501759    1.312810
      9          1           0        3.765216    0.715593    2.173096
     10          1           0        2.844903   -0.940021   -1.678297
     11          1           0        5.060445   -0.159255   -2.551146
     12          7           0        1.905474   -0.606804    0.794450
     13          8           0        1.170799   -1.204603    0.011171
     14          8           0        1.638675   -0.362910    1.969172
     15          6           0       -2.889919   -2.394544   -0.299383
     16          6           0       -3.903992   -1.934710    0.547215
     17          6           0       -4.212147   -0.572550    0.611322
     18          6           0       -3.482890    0.305899   -0.188553
     19          6           0       -2.466898   -0.121468   -1.042022
     20          6           0       -2.175867   -1.488054   -1.089907
     21          1           0       -2.657189   -3.454421   -0.342883
     22          1           0       -4.460183   -2.636417    1.162280
     23          1           0       -4.992226   -0.189404    1.257924
     24          1           0       -1.929836    0.602110   -1.643201
     25          1           0       -1.387803   -1.842320   -1.748309
     26          7           0       -3.800055    1.750299   -0.129273
     27          8           0       -3.142909    2.503882   -0.844051
     28          8           0       -4.699790    2.101486    0.630847
 ---------------------------------------------------------------------

 SCF Done:  E(RHF) =  -868.338708113     A.U. after   16 cycles
 E2 =    -0.2599191758D+01 EUMP2 =    -0.87093789987104D+03

 The electronic state is 1-A.
 Alpha  occ. eigenvalues --  -20.61281 -20.61223 -20.59869 -20.59863 -15.86301
 Alpha  occ. eigenvalues --  -15.84911 -11.31538 -11.30030 -11.28129 -11.28060
 Alpha  occ. eigenvalues --  -11.27796 -11.27089 -11.27049 -11.26579 -11.26518
 Alpha  occ. eigenvalues --  -11.26236 -11.25594 -11.25462  -1.60316  -1.58946
 Alpha  occ. eigenvalues --   -1.39881  -1.38508  -1.19694  -1.18156  -1.09109
 Alpha  occ. eigenvalues --   -1.07604  -1.05082  -1.03525  -0.95970  -0.94490
 Alpha  occ. eigenvalues --   -0.86486  -0.84950  -0.82815  -0.81335  -0.77881
 Alpha  occ. eigenvalues --   -0.76416  -0.72537  -0.71628  -0.71145  -0.70805
 Alpha  occ. eigenvalues --   -0.70257  -0.69303  -0.65355  -0.65083  -0.63825
 Alpha  occ. eigenvalues --   -0.63547  -0.62438  -0.60905  -0.55580  -0.54065
 Alpha  occ. eigenvalues --   -0.53411  -0.53175  -0.51849  -0.51644  -0.49284
 Alpha  occ. eigenvalues --   -0.49247  -0.47908  -0.47875  -0.45317  -0.43970
 Alpha  occ. eigenvalues --   -0.37660  -0.36677  -0.36103  -0.35051
 Alpha virt. eigenvalues --    0.04646   0.06121   0.10979   0.12573   0.16167
 Alpha virt. eigenvalues --    0.17698   0.21088   0.22541   0.26981   0.27735
 Alpha virt. eigenvalues --    0.28613   0.29392   0.30674   0.31835   0.32515

 Mulliken charges:
               1
     1  C   -0.170158
     2  C   -0.218170
     3  C   -0.169950
     4  C    0.158875
     5  C   -0.170554
     6  C   -0.218023
     7  H    0.227081
     8  H    0.225237
     9  H    0.277118
    10  H    0.270619
    11  H    0.223840
    12  N    0.491015
    13  O   -0.470409
    14  O   -0.455462
    15  C   -0.169508
    16  C   -0.217680
    17  C   -0.172211
    18  C    0.158533
    19  C   -0.169637
    20  C   -0.198555
    21  H    0.222664
    22  H    0.219258
    23  H    0.271533
    24  H    0.270128
    25  H    0.223745
    26  N    0.488468
    27  O   -0.464334
    28  O   -0.463463
 Sum of Mulliken charges =  -0.00000

 Dipole moment (field-independent basis, Debye):
    X=              6.1305    Y=             -3.5219    Z=             -1.9460  Tot=              7.3331
 Quadrupole moment (field-independent basis, Debye-Ang):
   XX=            -81.6327   YY=           -109.0534   ZZ=            -99.9758
   XY=             24.6221   XZ=             -5.6249   YZ=              3.0202

 Normal termination of Gaussian 16 at Thu May  6 11:20:14 2021.
