 Gaussian 16, Revision A.03,
 Gaussian 16:  EM64L-G16RevA.03 25-Dec-2016

 -------------
 #p 6-31g* mp2
 -------------

 ------------------------------------------------------
 Input file generated by CHIRIPA (05-May-2021 14:51:11)
 ------------------------------------------------------
 Symbolic Z-matrix:
 Charge =  0 Multiplicity = 1

                         Standard orientation:
 ---------------------------------------------------------------------
 Center     Atomic      Atomic             Coordinates (Angstroms)
 Number     Number       Type             X           Y           Z
 ---------------------------------------------------------------------
      1          6           0       -2.385686    1.076611   -0.416013
      2          6           0       -1.953195    2.093474    0.640834
      3          6           0       -0.832525    3.012336    0.153407
      4          1           0       -1.516932    0.472669   -0.711762
      5          1           0       -2.715274    1.612306   -1.317011
      6          1           0       -1.625825    1.556055    1.540070
      7          1           0       -2.823121    2.694938    0.934241
      8          1           0       -1.151917    3.574112   -0.730333
      9          1           0        0.052181    2.428758   -0.121062
     10          1           0       -0.538858    3.731294    0.924587
     11          6           0       -3.505306    0.150865    0.056397
     12          6           0       -3.937797   -0.865998   -1.000451
     13          6           0       -5.058467   -1.784860   -0.513024
     14          1           0       -3.175717   -0.384830    0.957395
     15          1           0       -4.374059    0.754807    0.352146
     16          1           0       -3.067871   -1.467461   -1.293857
     17          1           0       -4.265167   -0.328578   -1.899687
     18          1           0       -5.943173   -1.201282   -0.238555
     19          1           0       -4.739075   -2.346636    0.370717
     20          1           0       -5.352134   -2.503818   -1.284203
     21          6           0        2.464368   -0.734494    0.760641
     22          6           0        1.071468   -1.177883    0.312065
     23          6           0        0.120319   -1.415506    1.485371
     24          1           0        2.887447   -1.497014    1.428857
     25          1           0        2.375166    0.186155    1.353803
     26          1           0        1.163405   -2.096661   -0.281239
     27          1           0        0.651733   -0.414310   -0.355314
     28          1           0       -0.000994   -0.500622    2.074331
     29          1           0        0.513585   -2.192533    2.148826
     30          1           0       -0.869618   -1.731704    1.142000
     31          6           0        3.426624   -0.492981   -0.401024
     32          6           0        4.819524   -0.049593    0.047551
     33          6           0        5.770673    0.188029   -1.125754
     34          1           0        3.515826   -1.413631   -0.994187
     35          1           0        3.003544    0.269537   -1.069241
     36          1           0        5.239258   -0.813166    0.714930
     37          1           0        4.727587    0.869184    0.640856
     38          1           0        5.377407    0.965056   -1.789210
     39          1           0        5.891986   -0.726854   -1.714715
     40          1           0        6.760610    0.504228   -0.782384
 ---------------------------------------------------------------------

 SCF Done:  E(RHF) =  -470.732707673     A.U. after   11 cycles
 E2 =    -0.1584726530D+01 EUMP2 =    -0.47231743420237D+03

 The electronic state is 1-A.
 Alpha  occ. eigenvalues --  -11.21687 -11.21629 -11.21594 -11.21587 -11.21461
 Alpha  occ. eigenvalues --  -11.21399 -11.21359 -11.21298 -11.21170 -11.21114
 Alpha  occ. eigenvalues --  -11.21087 -11.21066  -1.08514  -1.08393  -1.03612
 Alpha  occ. eigenvalues --   -1.03513  -0.96063  -0.95959  -0.87061  -0.86995
 Alpha  occ. eigenvalues --   -0.79695  -0.79570  -0.78361  -0.78161  -0.65397
 Alpha  occ. eigenvalues --   -0.64864  -0.61227  -0.60673  -0.59413  -0.59342
 Alpha  occ. eigenvalues --   -0.57667  -0.57587  -0.55384  -0.55191  -0.52736
 Alpha  occ. eigenvalues --   -0.52677  -0.52478  -0.52386  -0.50043  -0.49891
 Alpha  occ. eigenvalues --   -0.48073  -0.47824  -0.46984  -0.46491  -0.46021
 Alpha  occ. eigenvalues --   -0.45826  -0.45691  -0.45295  -0.43828  -0.43768
 Alpha virt. eigenvalues --    0.19131   0.22061   0.23756   0.25213   0.25473
 Alpha virt. eigenvalues --    0.26091   0.26591   0.27943   0.28764   0.29282
 Alpha virt. eigenvalues --    0.30270   0.31185   0.31766   0.32013   0.32584

 Mulliken charges:
               1
     1  C   -0.304944
     2  C   -0.302158
     3  C   -0.477636
     4  H    0.157169
     5  H    0.149254
     6  H    0.154908
     7  H    0.152077
     8  H    0.155564
     9  H    0.155174
    10  H    0.160232
    11  C   -0.300644
    12  C   -0.300674
    13  C   -0.475571
    14  H    0.152266
    15  H    0.149647
    16  H    0.151968
    17  H    0.152075
    18  H    0.155296
    19  H    0.154943
    20  H    0.160229
    21  C   -0.298317
    22  C   -0.306873
    23  C   -0.480853
    24  H    0.149986
    25  H    0.150099
    26  H    0.152408
    27  H    0.157424
    28  H    0.157483
    29  H    0.155912
    30  H    0.163069
    31  C   -0.298573
    32  C   -0.299726
    33  C   -0.475789
    34  H    0.149709
    35  H    0.149661
    36  H    0.151997
    37  H    0.152223
    38  H    0.155409
    39  H    0.155186
    40  H    0.160390
 Sum of Mulliken charges =  -0.00000

 Dipole moment (field-independent basis, Debye):
    X=              0.0241    Y=             -0.0155    Z=              0.0107  Tot=              0.0305
 Quadrupole moment (field-independent basis, Debye-Ang):
   XX=            -85.4982   YY=            -84.0021   ZZ=            -85.2392
   XY=             -1.5298   XZ=              1.0023   YZ=              0.0227

 Normal termination of Gaussian 16 at Wed May  5 21:27:45 2021.
