 Gaussian 16, Revision A.03,
 Gaussian 16:  EM64L-G16RevA.03 25-Dec-2016

 -------------
 #p 6-31g* mp2
 -------------

 ------------------------------------------------------
 Input file generated by CHIRIPA (05-May-2021 14:51:08)
 ------------------------------------------------------
 Symbolic Z-matrix:
 Charge =  0 Multiplicity = 1

                         Standard orientation:
 ---------------------------------------------------------------------
 Center     Atomic      Atomic             Coordinates (Angstroms)
 Number     Number       Type             X           Y           Z
 ---------------------------------------------------------------------
      1          6           0       -2.238949   -0.132442    0.236803
      2          6           0       -2.322068   -0.542015    1.707629
      3          6           0       -2.799454   -1.982549    1.894065
      4          1           0       -3.226697   -0.255953   -0.228002
      5          1           0       -1.558319   -0.816225   -0.289104
      6          1           0       -3.001265    0.143182    2.230901
      7          1           0       -1.334053   -0.417332    2.169034
      8          1           0       -2.118568   -2.681358    1.397417
      9          1           0       -3.795253   -2.117660    1.459634
     10          1           0       -2.851543   -2.254358    2.952964
     11          6           0       -1.763193    1.305031    0.034181
     12          6           0       -1.680074    1.714603   -1.436644
     13          6           0       -1.202687    3.155137   -1.623081
     14          1           0       -2.443823    1.988813    0.560089
     15          1           0       -0.775445    1.428542    0.498986
     16          1           0       -2.668089    1.589921   -1.898050
     17          1           0       -1.000877    1.029407   -1.959916
     18          1           0       -0.206888    3.290249   -1.188650
     19          1           0       -1.883574    3.853947   -1.126432
     20          1           0       -1.150599    3.426946   -2.681980
     21          6           0        1.380646   -0.932428   -0.416019
     22          6           0        1.705036   -2.031695   -1.428130
     23          6           0        0.453571   -2.714831   -1.980356
     24          1           0        0.801401   -1.364186    0.411632
     25          1           0        0.733400   -0.183640   -0.893285
     26          1           0        2.352607   -2.777475   -0.949508
     27          1           0        2.283740   -1.597309   -2.253374
     28          1           0       -0.192529   -1.987514   -2.482516
     29          1           0       -0.123271   -3.174384   -1.171242
     30          1           0        0.708573   -3.497202   -2.701971
     31          6           0        2.621496   -0.240160    0.145035
     32          6           0        2.297106    0.859107    1.157146
     33          6           0        3.548571    1.542242    1.709372
     34          1           0        3.268742   -0.988949    0.622300
     35          1           0        3.200741    0.191597   -0.682617
     36          1           0        1.718402    0.424720    1.982388
     37          1           0        1.649535    1.604886    0.678523
     38          1           0        4.125413    2.001796    0.900258
     39          1           0        4.194671    0.814924    2.211532
     40          1           0        3.293569    2.324614    2.430987
 ---------------------------------------------------------------------

 SCF Done:  E(RHF) =  -470.730919713     A.U. after   11 cycles
 E2 =    -0.1587741880D+01 EUMP2 =    -0.47231866159254D+03

 The electronic state is 1-A.
 Alpha  occ. eigenvalues --  -11.21720 -11.21693 -11.21606 -11.21527 -11.21485
 Alpha  occ. eigenvalues --  -11.21415 -11.21250 -11.21175 -11.21149 -11.21147
 Alpha  occ. eigenvalues --  -11.21111 -11.21051  -1.08624  -1.08287  -1.03643
 Alpha  occ. eigenvalues --   -1.03505  -0.96090  -0.95933  -0.87103  -0.86962
 Alpha  occ. eigenvalues --   -0.79746  -0.79571  -0.78455  -0.78115  -0.65385
 Alpha  occ. eigenvalues --   -0.64848  -0.61071  -0.60894  -0.59467  -0.59305
 Alpha  occ. eigenvalues --   -0.57698  -0.57547  -0.55374  -0.55250  -0.52774
 Alpha  occ. eigenvalues --   -0.52659  -0.52515  -0.52363  -0.50108  -0.49846
 Alpha  occ. eigenvalues --   -0.48181  -0.47889  -0.46971  -0.46519  -0.46377
 Alpha  occ. eigenvalues --   -0.45758  -0.45446  -0.44945  -0.43877  -0.43713
 Alpha virt. eigenvalues --    0.19808   0.21355   0.22282   0.23817   0.25403
 Alpha virt. eigenvalues --    0.26253   0.26829   0.27546   0.28881   0.29732
 Alpha virt. eigenvalues --    0.30732   0.31116   0.31623   0.31950   0.32381

 Mulliken charges:
               1
     1  C   -0.305134
     2  C   -0.301655
     3  C   -0.476467
     4  H    0.148410
     5  H    0.160883
     6  H    0.151830
     7  H    0.152415
     8  H    0.154394
     9  H    0.155640
    10  H    0.159877
    11  C   -0.307911
    12  C   -0.304048
    13  C   -0.476630
    14  H    0.149924
    15  H    0.158650
    16  H    0.152864
    17  H    0.152828
    18  H    0.154660
    19  H    0.156016
    20  H    0.160205
    21  C   -0.311272
    22  C   -0.298480
    23  C   -0.479696
    24  H    0.152461
    25  H    0.160059
    26  H    0.152183
    27  H    0.152062
    28  H    0.156959
    29  H    0.155923
    30  H    0.161325
    31  C   -0.296795
    32  C   -0.306048
    33  C   -0.475317
    34  H    0.149820
    35  H    0.149713
    36  H    0.152805
    37  H    0.155667
    38  H    0.155494
    39  H    0.155570
    40  H    0.160819
 Sum of Mulliken charges =  -0.00000

 Dipole moment (field-independent basis, Debye):
    X=              0.0627    Y=             -0.0124    Z=             -0.0170  Tot=              0.0662
 Quadrupole moment (field-independent basis, Debye-Ang):
   XX=            -84.6817   YY=            -85.6105   ZZ=            -84.5546
   XY=             -1.1549   XZ=             -0.2584   YZ=             -0.4063

 Normal termination of Gaussian 16 at Wed May  5 19:41:23 2021.
