 Gaussian 16, Revision A.03,
 Gaussian 16:  EM64L-G16RevA.03 25-Dec-2016

 -------------
 #p 6-31g* mp2
 -------------

 ------------------------------------------------------
 Input file generated by CHIRIPA (05-May-2021 14:53:11)
 ------------------------------------------------------
 Symbolic Z-matrix:
 Charge =  0 Multiplicity = 1

                         Standard orientation:
 ---------------------------------------------------------------------
 Center     Atomic      Atomic             Coordinates (Angstroms)
 Number     Number       Type             X           Y           Z
 ---------------------------------------------------------------------
      1          6           0        3.854085   -0.573316    0.372928
      2          6           0        2.469059   -0.184436   -0.145203
      3          6           0        1.336749   -0.850204    0.637371
      4          1           0        3.964181   -1.665230    0.322459
      5          1           0        3.930785   -0.300163    1.434483
      6          1           0        2.395483   -0.456983   -1.205826
      7          1           0        2.362319    0.906695   -0.093675
      8          1           0        1.381854   -0.569044    1.694497
      9          1           0        1.415206   -1.940471    0.576026
     10          1           0        0.355506   -0.558362    0.250265
     11          6           0        4.996422    0.084275   -0.399321
     12          6           0        6.381448   -0.304605    0.118810
     13          6           0        7.513758    0.361162   -0.663764
     14          1           0        4.919721   -0.188879   -1.460876
     15          1           0        4.886326    1.176189   -0.348853
     16          1           0        6.488188   -1.395736    0.067281
     17          1           0        6.455024   -0.032058    1.179433
     18          1           0        7.435300    1.451430   -0.602420
     19          1           0        7.468653    0.080003   -1.720890
     20          1           0        8.495001    0.069321   -0.276659
     21          6           0       -2.260675    2.378624    0.395825
     22          6           0       -3.463329    2.354893   -0.318024
     23          6           0       -4.134950    1.148559   -0.537647
     24          6           0       -3.572907   -0.020456   -0.026960
     25          6           0       -2.376327   -0.029381    0.688167
     26          6           0       -1.721963    1.188509    0.895761
     27          1           0       -1.745647    3.320222    0.561761
     28          1           0       -3.884042    3.277604   -0.707445
     29          1           0       -5.067463    1.101448   -1.086843
     30          1           0       -1.981606   -0.965487    1.064093
     31          1           0       -0.788118    1.203927    1.450507
     32          7           0       -4.274787   -1.303665   -0.253097
     33          8           0       -3.758804   -2.319809    0.207175
     34          8           0       -5.327616   -1.269005   -0.886335
 ---------------------------------------------------------------------

 SCF Done:  E(RHF) =  -669.534075390     A.U. after   15 cycles
 E2 =    -0.2092616751D+01 EUMP2 =    -0.67162669214113D+03

 The electronic state is 1-A.
 Alpha  occ. eigenvalues --  -20.60751 -20.60745 -15.85804 -11.31177 -11.27745
 Alpha  occ. eigenvalues --  -11.27707 -11.27476 -11.26769 -11.26697 -11.22207
 Alpha  occ. eigenvalues --  -11.21911 -11.21845 -11.21747 -11.21745 -11.21336
 Alpha  occ. eigenvalues --   -1.59826  -1.39379  -1.19355  -1.08877  -1.08742
 Alpha  occ. eigenvalues --   -1.04779  -1.03994  -0.96472  -0.95577  -0.87507
 Alpha  occ. eigenvalues --   -0.86146  -0.82420  -0.80078  -0.78667  -0.77455
 Alpha  occ. eigenvalues --   -0.72022  -0.71150  -0.70460  -0.65519  -0.65015
 Alpha  occ. eigenvalues --   -0.64756  -0.62241  -0.61376  -0.59778  -0.58056
 Alpha  occ. eigenvalues --   -0.55760  -0.55246  -0.53454  -0.52979  -0.52850
 Alpha  occ. eigenvalues --   -0.52649  -0.50389  -0.48780  -0.48775  -0.48377
 Alpha  occ. eigenvalues --   -0.47095  -0.46214  -0.46127  -0.44783  -0.44254
 Alpha  occ. eigenvalues --   -0.37336  -0.36289
 Alpha virt. eigenvalues --    0.05034   0.11260   0.16408   0.20724   0.22606
 Alpha virt. eigenvalues --    0.23954   0.26026   0.26484   0.27150   0.27884
 Alpha virt. eigenvalues --    0.28956   0.30282   0.31416   0.31482   0.31870

 Mulliken charges:
               1
     1  C   -0.298917
     2  C   -0.298340
     3  C   -0.489655
     4  H    0.152542
     5  H    0.148720
     6  H    0.156510
     7  H    0.147391
     8  H    0.148992
     9  H    0.163060
    10  H    0.164798
    11  C   -0.298485
    12  C   -0.299981
    13  C   -0.475908
    14  H    0.150987
    15  H    0.148441
    16  H    0.153300
    17  H    0.151804
    18  H    0.154757
    19  H    0.155965
    20  H    0.161302
    21  C   -0.172277
    22  C   -0.218409
    23  C   -0.171440
    24  C    0.157651
    25  C   -0.173941
    26  C   -0.220098
    27  H    0.225550
    28  H    0.223386
    29  H    0.275570
    30  H    0.278949
    31  H    0.230310
    32  N    0.488153
    33  O   -0.460130
    34  O   -0.460557
 Sum of Mulliken charges =  -0.00000

 Dipole moment (field-independent basis, Debye):
    X=              2.5615    Y=              4.4834    Z=              0.7461  Tot=              5.2172
 Quadrupole moment (field-independent basis, Debye-Ang):
   XX=           -110.6653   YY=            -93.6947   ZZ=            -94.0654
   XY=            -18.8867   XZ=             -0.5720   YZ=             -0.7852

 Normal termination of Gaussian 16 at Thu May  6 04:05:19 2021.
