 Gaussian 16, Revision A.03,
 Gaussian 16:  EM64L-G16RevA.03 25-Dec-2016

 -------------
 #p 6-31g* mp2
 -------------

 ------------------------------------------------------
 Input file generated by CHIRIPA (05-May-2021 14:55:20)
 ------------------------------------------------------
 Symbolic Z-matrix:
 Charge =  0 Multiplicity = 1

                         Standard orientation:
 ---------------------------------------------------------------------
 Center     Atomic      Atomic             Coordinates (Angstroms)
 Number     Number       Type             X           Y           Z
 ---------------------------------------------------------------------
      1          6           0       -0.783630   -0.916239    0.800106
      2          6           0       -1.951328   -1.472003    1.333143
      3          6           0       -3.206442   -0.992479    0.946755
      4          6           0       -3.257192    0.048549    0.021026
      5          6           0       -2.111837    0.623048   -0.527975
      6          6           0       -0.867464    0.127673   -0.127117
      7          1           0        0.187200   -1.294901    1.105881
      8          1           0       -1.889254   -2.282806    2.053413
      9          1           0       -4.126362   -1.404400    1.343600
     10          1           0       -2.205657    1.430368   -1.244110
     11          1           0        0.037716    0.561208   -0.542738
     12          7           0       -4.580239    0.564590   -0.395685
     13          8           0       -4.597984    1.482522   -1.212829
     14          8           0       -5.574447    0.041360    0.102732
     15          6           0        3.598410    0.744168   -0.005657
     16          6           0        4.657050    1.801844    0.308333
     17          6           0        4.058029    3.191946    0.524167
     18          1           0        3.040487    1.047789   -0.902029
     19          1           0        2.871428    0.707412    0.817473
     20          1           0        5.382595    1.835625   -0.514503
     21          1           0        5.212644    1.495576    1.203951
     22          1           0        3.348884    3.180594    1.358183
     23          1           0        3.519801    3.522575   -0.370034
     24          1           0        4.832357    3.932547    0.747297
     25          6           0        4.181784   -0.650727   -0.223986
     26          6           0        3.123143   -1.708402   -0.537977
     27          6           0        3.722164   -3.098504   -0.753810
     28          1           0        4.908765   -0.613971   -1.047116
     29          1           0        4.739707   -0.954347    0.672385
     30          1           0        2.567549   -1.402134   -1.433595
     31          1           0        2.397598   -1.742183    0.284859
     32          1           0        4.260393   -3.429133    0.140390
     33          1           0        4.431310   -3.087152   -1.587827
     34          1           0        2.947837   -3.839106   -0.976940
 ---------------------------------------------------------------------

 SCF Done:  E(RHF) =  -669.535607622     A.U. after   15 cycles
 E2 =    -0.2091778780D+01 EUMP2 =    -0.67162738640124D+03

 The electronic state is 1-A.
 Alpha  occ. eigenvalues --  -20.60698 -20.60692 -15.85750 -11.31096 -11.27666
 Alpha  occ. eigenvalues --  -11.27653 -11.27366 -11.26675 -11.26631 -11.22840
 Alpha  occ. eigenvalues --  -11.22529 -11.22429 -11.22401 -11.22017 -11.21778
 Alpha  occ. eigenvalues --   -1.59774  -1.39328  -1.19263  -1.09477  -1.08657
 Alpha  occ. eigenvalues --   -1.04662  -1.04489  -0.96909  -0.95500  -0.87924
 Alpha  occ. eigenvalues --   -0.86057  -0.82336  -0.80580  -0.79325  -0.77381
 Alpha  occ. eigenvalues --   -0.71968  -0.71097  -0.70388  -0.66100  -0.64911
 Alpha  occ. eigenvalues --   -0.64660  -0.62011  -0.61885  -0.60291  -0.58536
 Alpha  occ. eigenvalues --   -0.56186  -0.55186  -0.53581  -0.53332  -0.52992
 Alpha  occ. eigenvalues --   -0.52745  -0.50847  -0.48873  -0.48725  -0.48720
 Alpha  occ. eigenvalues --   -0.47609  -0.46819  -0.46758  -0.44761  -0.44738
 Alpha  occ. eigenvalues --   -0.37235  -0.36269
 Alpha virt. eigenvalues --    0.05143   0.11362   0.16630   0.18982   0.22594
 Alpha virt. eigenvalues --    0.23158   0.24229   0.25025   0.27006   0.28054
 Alpha virt. eigenvalues --    0.29367   0.30585   0.30795   0.31211   0.31742

 Mulliken charges:
               1
     1  C   -0.175101
     2  C   -0.219813
     3  C   -0.171030
     4  C    0.158484
     5  C   -0.171465
     6  C   -0.224144
     7  H    0.232300
     8  H    0.223206
     9  H    0.275144
    10  H    0.275307
    11  H    0.228194
    12  N    0.488028
    13  O   -0.460701
    14  O   -0.460736
    15  C   -0.301808
    16  C   -0.300072
    17  C   -0.476829
    18  H    0.147587
    19  H    0.145189
    20  H    0.154997
    21  H    0.154349
    22  H    0.155756
    23  H    0.155305
    24  H    0.163970
    25  C   -0.297935
    26  C   -0.305198
    27  C   -0.475957
    28  H    0.154334
    29  H    0.152538
    30  H    0.153676
    31  H    0.143409
    32  H    0.157078
    33  H    0.159592
    34  H    0.162346
 Sum of Mulliken charges =  -0.00000

 Dipole moment (field-independent basis, Debye):
    X=              4.9744    Y=             -1.8163    Z=              1.4218  Tot=              5.4832
 Quadrupole moment (field-independent basis, Debye-Ang):
   XX=           -123.5894   YY=            -93.8627   ZZ=            -92.3987
   XY=              8.2002   XZ=             -6.4625   YZ=             -2.5575

 Normal termination of Gaussian 16 at Wed May  5 17:25:10 2021.
