 Gaussian 16, Revision A.03,
 Gaussian 16:  EM64L-G16RevA.03 25-Dec-2016

 -------------
 #p 6-31g* mp2
 -------------

 ------------------------------------------------------
 Input file generated by CHIRIPA (05-May-2021 14:53:17)
 ------------------------------------------------------
 Symbolic Z-matrix:
 Charge =  0 Multiplicity = 1

                         Standard orientation:
 ---------------------------------------------------------------------
 Center     Atomic      Atomic             Coordinates (Angstroms)
 Number     Number       Type             X           Y           Z
 ---------------------------------------------------------------------
      1          6           0       -3.793627    0.673686   -0.658364
      2          6           0       -2.932455    1.813159   -0.112498
      3          6           0       -2.797173    2.975572   -1.096514
      4          1           0       -3.357073    0.310819   -1.598945
      5          1           0       -4.790670    1.063305   -0.906352
      6          1           0       -1.937768    1.421213    0.135681
      7          1           0       -3.371004    2.173227    0.826992
      8          1           0       -3.780155    3.393758   -1.336241
      9          1           0       -2.338776    2.637471   -2.031479
     10          1           0       -2.177619    3.779016   -0.686038
     11          6           0       -3.938243   -0.495719    0.313904
     12          6           0       -4.799415   -1.635192   -0.231962
     13          6           0       -4.934698   -2.797606    0.752054
     14          1           0       -2.941201   -0.885338    0.561892
     15          1           0       -4.374798   -0.132852    1.254485
     16          1           0       -4.360866   -1.995260   -1.171452
     17          1           0       -5.794102   -1.243246   -0.480141
     18          1           0       -5.393095   -2.459504    1.687019
     19          1           0       -3.951716   -3.215791    0.991781
     20          1           0       -5.554252   -3.601049    0.341578
     21          6           0        1.935702    0.910376    2.191120
     22          6           0        1.304163    1.018535    0.947746
     23          6           0        1.895862    0.479356   -0.198434
     24          6           0        3.125113   -0.164251   -0.064267
     25          6           0        3.779217   -0.288215    1.160507
     26          6           0        3.169040    0.258495    2.293352
     27          1           0        1.468880    1.332149    3.076321
     28          1           0        0.346296    1.524251    0.865363
     29          1           0        1.428904    0.548792   -1.173394
     30          1           0        4.733632   -0.798066    1.211142
     31          1           0        3.661804    0.172999    3.257675
     32          7           0        3.761300   -0.739042   -1.270617
     33          8           0        4.844639   -1.301224   -1.125831
     34          8           0        3.164556   -0.616498   -2.338098
 ---------------------------------------------------------------------

 SCF Done:  E(RHF) =  -669.535572687     A.U. after   15 cycles
 E2 =    -0.2091036120D+01 EUMP2 =    -0.67162660880701D+03

 The electronic state is 1-A.
 Alpha  occ. eigenvalues --  -20.60763 -20.60758 -15.85816 -11.31179 -11.27751
 Alpha  occ. eigenvalues --  -11.27745 -11.27486 -11.26763 -11.26730 -11.22496
 Alpha  occ. eigenvalues --  -11.21986 -11.21954 -11.21860 -11.21799 -11.21357
 Alpha  occ. eigenvalues --   -1.59838  -1.39392  -1.19351  -1.09007  -1.08745
 Alpha  occ. eigenvalues --   -1.04755  -1.04098  -0.96515  -0.95581  -0.87532
 Alpha  occ. eigenvalues --   -0.86153  -0.82417  -0.80191  -0.78802  -0.77461
 Alpha  occ. eigenvalues --   -0.72034  -0.71162  -0.70459  -0.65667  -0.65002
 Alpha  occ. eigenvalues --   -0.64754  -0.62151  -0.61453  -0.59905  -0.58132
 Alpha  occ. eigenvalues --   -0.55789  -0.55252  -0.53227  -0.53084  -0.52947
 Alpha  occ. eigenvalues --   -0.52846  -0.50451  -0.48802  -0.48790  -0.48475
 Alpha  occ. eigenvalues --   -0.47220  -0.46334  -0.46243  -0.44798  -0.44339
 Alpha  occ. eigenvalues --   -0.37331  -0.36357
 Alpha virt. eigenvalues --    0.05069   0.11273   0.16525   0.19714   0.22676
 Alpha virt. eigenvalues --    0.23706   0.25325   0.26520   0.27408   0.28304
 Alpha virt. eigenvalues --    0.28622   0.30087   0.31092   0.31366   0.32210

 Mulliken charges:
               1
     1  C   -0.298143
     2  C   -0.305591
     3  C   -0.476847
     4  H    0.152566
     5  H    0.152509
     6  H    0.143688
     7  H    0.153409
     8  H    0.159835
     9  H    0.157853
    10  H    0.158585
    11  C   -0.298982
    12  C   -0.300311
    13  C   -0.476165
    14  H    0.148911
    15  H    0.149174
    16  H    0.154340
    17  H    0.152782
    18  H    0.154676
    19  H    0.155949
    20  H    0.162143
    21  C   -0.171939
    22  C   -0.225739
    23  C   -0.173179
    24  C    0.158601
    25  C   -0.171042
    26  C   -0.218499
    27  H    0.226256
    28  H    0.234026
    29  H    0.275104
    30  H    0.275582
    31  H    0.223376
    32  N    0.488136
    33  O   -0.460491
    34  O   -0.460573
 Sum of Mulliken charges =  -0.00000

 Dipole moment (field-independent basis, Debye):
    X=             -2.4066    Y=              2.0039    Z=              4.2106  Tot=              5.2475
 Quadrupole moment (field-independent basis, Debye-Ang):
   XX=           -104.7647   YY=            -96.1890   ZZ=            -94.3005
   XY=              4.7679   XZ=             16.0545   YZ=             -1.1407

 Normal termination of Gaussian 16 at Wed May  5 18:46:42 2021.
