 Gaussian 16, Revision A.03,
 Gaussian 16:  EM64L-G16RevA.03 25-Dec-2016

 -------------
 #p 6-31g* mp2
 -------------

 ------------------------------------------------------
 Input file generated by CHIRIPA (05-May-2021 14:57:23)
 ------------------------------------------------------
 Symbolic Z-matrix:
 Charge =  0 Multiplicity = 1

                         Standard orientation:
 ---------------------------------------------------------------------
 Center     Atomic      Atomic             Coordinates (Angstroms)
 Number     Number       Type             X           Y           Z
 ---------------------------------------------------------------------
      1          6           0        2.472811   -2.081813    1.686884
      2          6           0        3.422299   -1.070420    1.865992
      3          6           0        3.562948   -0.052620    0.917916
      4          6           0        2.733865   -0.077216   -0.202489
      5          6           0        1.778548   -1.071147   -0.409275
      6          6           0        1.655407   -2.078953    0.551824
      7          1           0        2.370352   -2.868583    2.428431
      8          1           0        4.058464   -1.070103    2.746526
      9          1           0        4.289786    0.742494    1.031571
     10          1           0        1.158697   -1.044717   -1.297253
     11          1           0        0.917161   -2.863143    0.410105
     12          7           0        2.873496    0.994993   -1.213068
     13          8           0        2.130992    0.950743   -2.191519
     14          8           0        3.722799    1.859339   -1.007574
     15          6           0       -2.027314    2.258704    1.406910
     16          6           0       -3.206497    1.571041    1.712145
     17          6           0       -3.595041    0.458923    0.959301
     18          6           0       -2.776934    0.060114   -0.096608
     19          6           0       -1.596344    0.724448   -0.425481
     20          6           0       -1.227411    1.833961    0.340950
     21          1           0       -1.733101    3.121613    1.997015
     22          1           0       -3.829668    1.898648    2.539416
     23          1           0       -4.502859   -0.091798    1.173756
     24          1           0       -0.995743    0.374121   -1.256124
     25          1           0       -0.311111    2.366086    0.101611
     26          7           0       -3.177887   -1.115856   -0.900802
     27          8           0       -2.439737   -1.447152   -1.826013
     28          8           0       -4.222712   -1.684019   -0.590692
 ---------------------------------------------------------------------

 SCF Done:  E(RHF) =  -868.339395045     A.U. after   16 cycles
 E2 =    -0.2600641282D+01 EUMP2 =    -0.87094003632727D+03

 The electronic state is 1-A.
 Alpha  occ. eigenvalues --  -20.61395 -20.61382 -20.61006 -20.60984 -15.86413
 Alpha  occ. eigenvalues --  -15.86037 -11.31555 -11.31222 -11.28105 -11.28042
 Alpha  occ. eigenvalues --  -11.27794 -11.27755 -11.27710 -11.27471 -11.27067
 Alpha  occ. eigenvalues --  -11.26963 -11.26778 -11.26671  -1.60467  -1.60074
 Alpha  occ. eigenvalues --   -1.40023  -1.39633  -1.19700  -1.19379  -1.09134
 Alpha  occ. eigenvalues --   -1.08809  -1.05054  -1.04736  -0.96006  -0.95670
 Alpha  occ. eigenvalues --   -0.86472  -0.86151  -0.82827  -0.82498  -0.77938
 Alpha  occ. eigenvalues --   -0.77555  -0.72622  -0.72256  -0.71803  -0.71400
 Alpha  occ. eigenvalues --   -0.70822  -0.70456  -0.65339  -0.65063  -0.65021
 Alpha  occ. eigenvalues --   -0.64707  -0.62471  -0.61990  -0.55558  -0.55250
 Alpha  occ. eigenvalues --   -0.53472  -0.53161  -0.53034  -0.52766  -0.49403
 Alpha  occ. eigenvalues --   -0.49361  -0.49024  -0.48995  -0.45463  -0.45076
 Alpha  occ. eigenvalues --   -0.37690  -0.37374  -0.36802  -0.36136
 Alpha virt. eigenvalues --    0.04486   0.04963   0.10871   0.11377   0.16120
 Alpha virt. eigenvalues --    0.16465   0.20558   0.21794   0.25734   0.27408
 Alpha virt. eigenvalues --    0.27816   0.28934   0.30670   0.31089   0.31608

 Mulliken charges:
               1
     1  C   -0.170278
     2  C   -0.218557
     3  C   -0.172264
     4  C    0.155598
     5  C   -0.177758
     6  C   -0.219435
     7  H    0.227771
     8  H    0.223982
     9  H    0.274808
    10  H    0.282716
    11  H    0.232206
    12  N    0.486196
    13  O   -0.464039
    14  O   -0.458709
    15  C   -0.170881
    16  C   -0.218992
    17  C   -0.171699
    18  C    0.157062
    19  C   -0.176679
    20  C   -0.220734
    21  H    0.226552
    22  H    0.222903
    23  H    0.274440
    24  H    0.282474
    25  H    0.230479
    26  N    0.487563
    27  O   -0.464799
    28  O   -0.459926
 Sum of Mulliken charges =  -0.00000

 Dipole moment (field-independent basis, Debye):
    X=              1.0080    Y=              0.3118    Z=              6.4665  Tot=              6.5520
 Quadrupole moment (field-independent basis, Debye-Ang):
   XX=           -110.1715   YY=           -103.5581   ZZ=           -104.7271
   XY=            -19.9473   XZ=              1.5735   YZ=              1.1035

 Normal termination of Gaussian 16 at Thu May  6 08:12:00 2021.
