 Gaussian 16, Revision A.03,
 Gaussian 16:  EM64L-G16RevA.03 25-Dec-2016

 -------------
 #p 6-31g* mp2
 -------------

 ------------------------------------------------------
 Input file generated by CHIRIPA (05-May-2021 14:57:21)
 ------------------------------------------------------
 Symbolic Z-matrix:
 Charge =  0 Multiplicity = 1

                         Standard orientation:
 ---------------------------------------------------------------------
 Center     Atomic      Atomic             Coordinates (Angstroms)
 Number     Number       Type             X           Y           Z
 ---------------------------------------------------------------------
      1          6           0        1.157073   -1.019580    0.666917
      2          6           0        1.850190   -1.610805   -0.394480
      3          6           0        3.122199   -1.155036   -0.753388
      4          6           0        3.673598   -0.101345   -0.026075
      5          6           0        3.008116    0.508328    1.036339
      6          6           0        1.737226    0.036238    1.377686
      7          1           0        0.169381   -1.379972    0.938904
      8          1           0        1.402098   -2.430929   -0.948244
      9          1           0        3.680922   -1.594547   -1.570747
     10          1           0        3.480740    1.324160    1.569689
     11          1           0        1.201263    0.497298    2.202435
     12          7           0        5.019625    0.389797   -0.396739
     13          8           0        5.483504    1.319543    0.259786
     14          8           0        5.585274   -0.164292   -1.336773
     15          6           0       -3.212274    2.684443   -0.253652
     16          6           0       -2.446971    1.987552    0.687186
     17          6           0       -2.571423    0.601119    0.817051
     18          6           0       -3.474908   -0.059608   -0.013878
     19          6           0       -4.251396    0.606568   -0.960751
     20          6           0       -4.110460    1.992946   -1.073172
     21          1           0       -3.109194    3.761436   -0.347759
     22          1           0       -1.748632    2.521967    1.324970
     23          1           0       -1.991302    0.036766    1.537039
     24          1           0       -4.939152    0.046326   -1.582472
     25          1           0       -4.706099    2.531558   -1.804717
     26          7           0       -3.615385   -1.527334    0.114371
     27          8           0       -4.418434   -2.086209   -0.629543
     28          8           0       -2.919783   -2.091070    0.956379
 ---------------------------------------------------------------------

 SCF Done:  E(RHF) =  -868.338629235     A.U. after   16 cycles
 E2 =    -0.2599982150D+01 EUMP2 =    -0.87093861138498D+03

 The electronic state is 1-A.
 Alpha  occ. eigenvalues --  -20.61869 -20.61809 -20.60800 -20.60789 -15.86864
 Alpha  occ. eigenvalues --  -15.85852 -11.32082 -11.31188 -11.28718 -11.28563
 Alpha  occ. eigenvalues --  -11.28270 -11.27823 -11.27731 -11.27622 -11.27534
 Alpha  occ. eigenvalues --  -11.27401 -11.26848 -11.26660  -1.60896  -1.59874
 Alpha  occ. eigenvalues --   -1.40460  -1.39429  -1.20223  -1.19361  -1.09631
 Alpha  occ. eigenvalues --   -1.08744  -1.05611  -1.04772  -0.96502  -0.95581
 Alpha  occ. eigenvalues --   -0.87015  -0.86165  -0.83343  -0.82426  -0.78435
 Alpha  occ. eigenvalues --   -0.77493  -0.73086  -0.72210  -0.72069  -0.71344
 Alpha  occ. eigenvalues --   -0.71199  -0.70394  -0.65877  -0.65609  -0.65009
 Alpha  occ. eigenvalues --   -0.64787  -0.62979  -0.62124  -0.56085  -0.55195
 Alpha  occ. eigenvalues --   -0.53927  -0.53687  -0.53084  -0.52863  -0.49858
 Alpha  occ. eigenvalues --   -0.49814  -0.48827  -0.48825  -0.45885  -0.44841
 Alpha  occ. eigenvalues --   -0.38162  -0.37435  -0.37068  -0.36385
 Alpha virt. eigenvalues --    0.04057   0.05064   0.10412   0.11242   0.15620
 Alpha virt. eigenvalues --    0.16561   0.18992   0.22026   0.25345   0.26657
 Alpha virt. eigenvalues --    0.27641   0.29027   0.30297   0.31195   0.32382

 Mulliken charges:
               1
     1  C   -0.179516
     2  C   -0.220221
     3  C   -0.170574
     4  C    0.157814
     5  C   -0.170969
     6  C   -0.221137
     7  H    0.241111
     8  H    0.229079
     9  H    0.276103
    10  H    0.273745
    11  H    0.214747
    12  N    0.488132
    13  O   -0.461800
    14  O   -0.459868
    15  C   -0.169632
    16  C   -0.215986
    17  C   -0.172116
    18  C    0.158718
    19  C   -0.170109
    20  C   -0.217677
    21  H    0.229503
    22  H    0.223198
    23  H    0.266914
    24  H    0.277668
    25  H    0.227036
    26  N    0.489062
    27  O   -0.453933
    28  O   -0.469292
 Sum of Mulliken charges =  -0.00000

 Dipole moment (field-independent basis, Debye):
    X=             -4.5429    Y=              3.4668    Z=              0.6202  Tot=              5.7481
 Quadrupole moment (field-independent basis, Debye-Ang):
   XX=           -141.0887   YY=           -103.2056   ZZ=           -100.4576
   XY=            -24.8073   XZ=              9.5669   YZ=              2.7296

 Normal termination of Gaussian 16 at Thu May  6 09:39:59 2021.
