 Gaussian 16, Revision A.03,
 Gaussian 16:  EM64L-G16RevA.03 25-Dec-2016

 -------------
 #p 6-31g* mp2
 -------------

 ------------------------------------------------------
 Input file generated by CHIRIPA (05-May-2021 14:51:08)
 ------------------------------------------------------
 Symbolic Z-matrix:
 Charge =  0 Multiplicity = 1

                         Standard orientation:
 ---------------------------------------------------------------------
 Center     Atomic      Atomic             Coordinates (Angstroms)
 Number     Number       Type             X           Y           Z
 ---------------------------------------------------------------------
      1          6           0        2.933327   -0.191215   -0.673559
      2          6           0        2.664489   -1.629131   -0.228467
      3          6           0        2.884233   -2.645740   -1.349187
      4          1           0        2.280564    0.050939   -1.523387
      5          1           0        3.966054   -0.115571   -1.041184
      6          1           0        1.633010   -1.701721    0.139499
      7          1           0        3.317832   -1.867826    0.620522
      8          1           0        3.916432   -2.602560   -1.711541
      9          1           0        2.222037   -2.435512   -2.195298
     10          1           0        2.686472   -3.667093   -1.009204
     11          6           0        2.717925    0.836670    0.435848
     12          6           0        2.986763    2.274587   -0.009244
     13          6           0        2.767020    3.291195    1.111476
     14          1           0        1.685198    0.761026    0.803473
     15          1           0        3.370688    0.594517    1.285675
     16          1           0        2.333420    2.513282   -0.858234
     17          1           0        4.018242    2.347177   -0.377210
     18          1           0        3.429215    3.080967    1.957586
     19          1           0        1.734820    3.248016    1.473829
     20          1           0        2.964780    4.312548    0.771493
     21          6           0       -2.437179   -0.970210    0.003499
     22          6           0       -2.151727   -1.743701    1.291216
     23          6           0       -1.373931   -3.036666    1.044096
     24          1           0       -3.001595   -1.613326   -0.685544
     25          1           0       -1.485857   -0.737408   -0.494684
     26          1           0       -3.103231   -1.973771    1.787527
     27          1           0       -1.588090   -1.098603    1.977348
     28          1           0       -0.410487   -2.822126    0.570438
     29          1           0       -1.934236   -3.702267    0.379539
     30          1           0       -1.180738   -3.573689    1.977981
     31          6           0       -3.214074    0.324754    0.234212
     32          6           0       -3.499525    1.098246   -1.053504
     33          6           0       -4.277321    2.391211   -0.806384
     34          1           0       -4.165395    0.091953    0.732395
     35          1           0       -2.649657    0.967871    0.923255
     36          1           0       -4.063162    0.453148   -1.739638
     37          1           0       -2.548021    1.328316   -1.549817
     38          1           0       -3.717016    3.056811   -0.141828
     39          1           0       -5.240765    2.176671   -0.332728
     40          1           0       -4.470514    2.928233   -1.740270
 ---------------------------------------------------------------------

 SCF Done:  E(RHF) =  -470.733366804     A.U. after   11 cycles
 E2 =    -0.1582976444D+01 EUMP2 =    -0.47231634324852D+03

 The electronic state is 1-A.
 Alpha  occ. eigenvalues --  -11.21647 -11.21643 -11.21636 -11.21636 -11.21456
 Alpha  occ. eigenvalues --  -11.21455 -11.21396 -11.21395 -11.21112 -11.21102
 Alpha  occ. eigenvalues --  -11.21093 -11.21070  -1.08488  -1.08464  -1.03589
 Alpha  occ. eigenvalues --   -1.03547  -0.96031  -0.95999  -0.87041  -0.87021
 Alpha  occ. eigenvalues --   -0.79678  -0.79586  -0.78316  -0.78263  -0.65223
 Alpha  occ. eigenvalues --   -0.65007  -0.61125  -0.60829  -0.59402  -0.59362
 Alpha  occ. eigenvalues --   -0.57677  -0.57577  -0.55392  -0.55219  -0.52710
 Alpha  occ. eigenvalues --   -0.52700  -0.52447  -0.52431  -0.50052  -0.49887
 Alpha  occ. eigenvalues --   -0.48045  -0.47870  -0.46833  -0.46505  -0.45941
 Alpha  occ. eigenvalues --   -0.45805  -0.45782  -0.45553  -0.43826  -0.43820
 Alpha virt. eigenvalues --    0.19889   0.23255   0.23616   0.24678   0.25924
 Alpha virt. eigenvalues --    0.26876   0.27006   0.27598   0.28436   0.29058
 Alpha virt. eigenvalues --    0.30632   0.31545   0.31655   0.31810   0.31944

 Mulliken charges:
               1
     1  C   -0.297680
     2  C   -0.307948
     3  C   -0.475714
     4  H    0.149361
     5  H    0.149895
     6  H    0.158278
     7  H    0.152487
     8  H    0.155439
     9  H    0.155253
    10  H    0.161019
    11  C   -0.298439
    12  C   -0.299689
    13  C   -0.475662
    14  H    0.148776
    15  H    0.150017
    16  H    0.151842
    17  H    0.152219
    18  H    0.155361
    19  H    0.154848
    20  H    0.160480
    21  C   -0.298936
    22  C   -0.299498
    23  C   -0.483025
    24  H    0.150059
    25  H    0.148750
    26  H    0.152278
    27  H    0.151807
    28  H    0.162192
    29  H    0.155387
    30  H    0.160595
    31  C   -0.298267
    32  C   -0.299611
    33  C   -0.475733
    34  H    0.149889
    35  H    0.149378
    36  H    0.152119
    37  H    0.151541
    38  H    0.155209
    39  H    0.155336
    40  H    0.160387
 Sum of Mulliken charges =  -0.00000

 Dipole moment (field-independent basis, Debye):
    X=              0.0089    Y=             -0.0103    Z=             -0.0009  Tot=              0.0137
 Quadrupole moment (field-independent basis, Debye-Ang):
   XX=            -83.2196   YY=            -86.1292   ZZ=            -85.2026
   XY=              0.9845   XZ=              0.4789   YZ=             -0.5809

 Normal termination of Gaussian 16 at Thu May  6 13:13:17 2021.
