 Gaussian 16, Revision A.03,
 Gaussian 16:  EM64L-G16RevA.03 25-Dec-2016

 -------------
 #p 6-31g* mp2
 -------------

 ------------------------------------------------------
 Input file generated by CHIRIPA (05-May-2021 14:55:23)
 ------------------------------------------------------
 Symbolic Z-matrix:
 Charge =  0 Multiplicity = 1

                         Standard orientation:
 ---------------------------------------------------------------------
 Center     Atomic      Atomic             Coordinates (Angstroms)
 Number     Number       Type             X           Y           Z
 ---------------------------------------------------------------------
      1          6           0       -2.948421    2.023035   -0.242191
      2          6           0       -3.546433    1.064850   -1.067287
      3          6           0       -3.258146   -0.293225   -0.902753
      4          6           0       -2.363195   -0.659459    0.101351
      5          6           0       -1.751234    0.271443    0.939333
      6          6           0       -2.054307    1.623977    0.756725
      7          1           0       -3.178113    3.075868   -0.377025
      8          1           0       -4.241196    1.371864   -1.843877
      9          1           0       -3.706859   -1.055986   -1.527469
     10          1           0       -1.062678   -0.065163    1.704843
     11          1           0       -1.588389    2.365919    1.398978
     12          7           0       -2.050172   -2.094260    0.285103
     13          8           0       -1.258327   -2.391113    1.177010
     14          8           0       -2.602597   -2.894835   -0.466258
     15          6           0        2.982179    1.297354   -0.077712
     16          6           0        1.522376    1.696215    0.141074
     17          6           0        1.320859    3.211670    0.165154
     18          1           0        3.599180    1.738143    0.717249
     19          1           0        3.335437    1.730234   -1.023872
     20          1           0        1.171563    1.261561    1.085861
     21          1           0        0.908752    1.254267   -0.654392
     22          1           0        1.644273    3.658379   -0.780603
     23          1           0        1.908576    3.665716    0.969537
     24          1           0        0.270168    3.474501    0.322726
     25          6           0        3.199671   -0.214507   -0.104219
     26          6           0        4.659475   -0.613368   -0.323005
     27          6           0        4.860991   -2.128824   -0.347085
     28          1           0        2.846413   -0.647388    0.841941
     29          1           0        2.582670   -0.655295   -0.899179
     30          1           0        5.273098   -0.171420    0.472460
     31          1           0        5.010288   -0.178715   -1.267792
     32          1           0        4.273274   -2.582869   -1.151469
     33          1           0        4.537577   -2.575532    0.598672
     34          1           0        5.911682   -2.391654   -0.504657
 ---------------------------------------------------------------------

 SCF Done:  E(RHF) =  -669.534033717     A.U. after   15 cycles
 E2 =    -0.2093705235D+01 EUMP2 =    -0.67162773895121D+03

 The electronic state is 1-A.
 Alpha  occ. eigenvalues --  -20.60761 -20.60756 -15.85814 -11.31170 -11.27744
 Alpha  occ. eigenvalues --  -11.27732 -11.27490 -11.26757 -11.26721 -11.21997
 Alpha  occ. eigenvalues --  -11.21690 -11.21555 -11.21489 -11.21300 -11.20813
 Alpha  occ. eigenvalues --   -1.59836  -1.39390  -1.19356  -1.08754  -1.08545
 Alpha  occ. eigenvalues --   -1.04772  -1.03672  -0.96132  -0.95584  -0.87158
 Alpha  occ. eigenvalues --   -0.86150  -0.82424  -0.79778  -0.78316  -0.77453
 Alpha  occ. eigenvalues --   -0.72034  -0.71159  -0.70465  -0.65189  -0.64998
 Alpha  occ. eigenvalues --   -0.64805  -0.62197  -0.61058  -0.59540  -0.57740
 Alpha  occ. eigenvalues --   -0.55404  -0.55249  -0.53140  -0.53014  -0.52752
 Alpha  occ. eigenvalues --   -0.52388  -0.50054  -0.48794  -0.48788  -0.48061
 Alpha  occ. eigenvalues --   -0.46796  -0.45851  -0.45746  -0.44793  -0.43925
 Alpha  occ. eigenvalues --   -0.37331  -0.36271
 Alpha virt. eigenvalues --    0.05068   0.11194   0.16506   0.20160   0.23008
 Alpha virt. eigenvalues --    0.24290   0.25364   0.26639   0.26955   0.28506
 Alpha virt. eigenvalues --    0.28986   0.30576   0.31282   0.31527   0.32356

 Mulliken charges:
               1
     1  C   -0.172440
     2  C   -0.218840
     3  C   -0.171399
     4  C    0.156828
     5  C   -0.167679
     6  C   -0.214904
     7  H    0.225593
     8  H    0.223306
     9  H    0.275442
    10  H    0.275362
    11  H    0.225139
    12  N    0.488196
    13  O   -0.460442
    14  O   -0.460636
    15  C   -0.298843
    16  C   -0.298733
    17  C   -0.477080
    18  H    0.149115
    19  H    0.149749
    20  H    0.144122
    21  H    0.157824
    22  H    0.158438
    23  H    0.156262
    24  H    0.148927
    25  C   -0.299258
    26  C   -0.299984
    27  C   -0.476015
    28  H    0.153310
    29  H    0.152089
    30  H    0.150872
    31  H    0.150744
    32  H    0.157376
    33  H    0.158271
    34  H    0.159287
 Sum of Mulliken charges =  -0.00000

 Dipole moment (field-independent basis, Debye):
    X=             -1.0497    Y=              4.9489    Z=             -0.6886  Tot=              5.1057
 Quadrupole moment (field-independent basis, Debye-Ang):
   XX=            -88.1910   YY=           -103.2052   ZZ=            -91.4133
   XY=            -10.4211   XZ=              4.2793   YZ=              1.7819

 Normal termination of Gaussian 16 at Thu May  6 06:17:43 2021.
