 Gaussian 16, Revision A.03,
 Gaussian 16:  EM64L-G16RevA.03 25-Dec-2016

 -------------
 #p 6-31g* mp2
 -------------

 ------------------------------------------------------
 Input file generated by CHIRIPA (05-May-2021 14:53:14)
 ------------------------------------------------------
 Symbolic Z-matrix:
 Charge =  0 Multiplicity = 1

                         Standard orientation:
 ---------------------------------------------------------------------
 Center     Atomic      Atomic             Coordinates (Angstroms)
 Number     Number       Type             X           Y           Z
 ---------------------------------------------------------------------
      1          6           0       -2.658692   -0.299064   -0.097308
      2          6           0       -3.814341   -1.266498    0.160632
      3          6           0       -3.361907   -2.725866    0.218441
      4          1           0       -2.166308   -0.569462   -1.041441
      5          1           0       -1.905499   -0.419353    0.693658
      6          1           0       -4.565776   -1.143443   -0.629822
      7          1           0       -4.304151   -0.993647    1.104166
      8          1           0       -2.628819   -2.870511    1.018604
      9          1           0       -2.891931   -3.021158   -0.725236
     10          1           0       -4.203844   -3.400160    0.403724
     11          6           0       -3.095144    1.163665   -0.157817
     12          6           0       -1.939496    2.131099   -0.415758
     13          6           0       -2.391929    3.590467   -0.473566
     14          1           0       -3.848337    1.283954   -0.948783
     15          1           0       -3.587528    1.434063    0.786316
     16          1           0       -1.449686    1.858248   -1.359291
     17          1           0       -1.188060    2.008044    0.374697
     18          1           0       -2.861905    3.885759    0.470111
     19          1           0       -3.125018    3.735112   -1.273729
     20          1           0       -1.549993    4.264761   -0.658849
     21          6           0        1.308295   -2.659825   -0.202903
     22          6           0        2.461352   -2.275453   -0.895173
     23          6           0        2.990647   -0.991393   -0.735220
     24          6           0        2.338401   -0.113244    0.128909
     25          6           0        1.188040   -0.466510    0.832588
     26          6           0        0.676432   -1.755719    0.657252
     27          1           0        0.903996   -3.659313   -0.333133
     28          1           0        2.954165   -2.975500   -1.563840
     29          1           0        3.881946   -0.667625   -1.258840
     30          1           0        0.718909    0.253389    1.492195
     31          1           0       -0.219190   -2.051481    1.196168
     32          7           0        2.889378    1.248860    0.306386
     33          8           0        2.296066    2.003888    1.073556
     34          8           0        3.904115    1.535656   -0.325036
 ---------------------------------------------------------------------

 SCF Done:  E(RHF) =  -669.534158852     A.U. after   15 cycles
 E2 =    -0.2094062330D+01 EUMP2 =    -0.67162822118168D+03

 The electronic state is 1-A.
 Alpha  occ. eigenvalues --  -20.60762 -20.60756 -15.85806 -11.31145 -11.27694
 Alpha  occ. eigenvalues --  -11.27689 -11.27417 -11.26721 -11.26664 -11.22252
 Alpha  occ. eigenvalues --  -11.22028 -11.21923 -11.21646 -11.21579 -11.20902
 Alpha  occ. eigenvalues --   -1.59830  -1.39385  -1.19308  -1.08852  -1.08698
 Alpha  occ. eigenvalues --   -1.04714  -1.03892  -0.96367  -0.95547  -0.87388
 Alpha  occ. eigenvalues --   -0.86113  -0.82405  -0.79997  -0.78651  -0.77399
 Alpha  occ. eigenvalues --   -0.72027  -0.71147  -0.70416  -0.65538  -0.64955
 Alpha  occ. eigenvalues --   -0.64729  -0.62072  -0.61277  -0.59761  -0.57949
 Alpha  occ. eigenvalues --   -0.55692  -0.55206  -0.53146  -0.52962  -0.52829
 Alpha  occ. eigenvalues --   -0.52778  -0.50341  -0.48790  -0.48783  -0.48265
 Alpha  occ. eigenvalues --   -0.47022  -0.46131  -0.46029  -0.44781  -0.44131
 Alpha  occ. eigenvalues --   -0.37280  -0.36225
 Alpha virt. eigenvalues --    0.05062   0.11248   0.16512   0.19474   0.22870
 Alpha virt. eigenvalues --    0.23348   0.24954   0.26392   0.26699   0.28769
 Alpha virt. eigenvalues --    0.29112   0.30631   0.31237   0.31899   0.32105

 Mulliken charges:
               1
     1  C   -0.297816
     2  C   -0.300125
     3  C   -0.477544
     4  H    0.152768
     5  H    0.139751
     6  H    0.155653
     7  H    0.153836
     8  H    0.145232
     9  H    0.155125
    10  H    0.164943
    11  C   -0.298988
    12  C   -0.302538
    13  C   -0.476234
    14  H    0.150584
    15  H    0.149864
    16  H    0.152604
    17  H    0.156117
    18  H    0.154963
    19  H    0.153414
    20  H    0.167459
    21  C   -0.174391
    22  C   -0.218487
    23  C   -0.171805
    24  C    0.157609
    25  C   -0.169963
    26  C   -0.216808
    27  H    0.225900
    28  H    0.223101
    29  H    0.275172
    30  H    0.275348
    31  H    0.228540
    32  N    0.488532
    33  O   -0.461519
    34  O   -0.460296
 Sum of Mulliken charges =  -0.00000

 Dipole moment (field-independent basis, Debye):
    X=             -2.0181    Y=             -4.6899    Z=             -0.7099  Tot=              5.1548
 Quadrupole moment (field-independent basis, Debye-Ang):
   XX=           -101.3053   YY=            -94.9913   ZZ=            -92.4242
   XY=            -11.8113   XZ=             -4.2022   YZ=              0.5069

 Normal termination of Gaussian 16 at Thu May  6 13:48:23 2021.
