 Gaussian 16, Revision A.03,
 Gaussian 16:  EM64L-G16RevA.03 25-Dec-2016

 -------------
 #p 6-31g* mp2
 -------------

 ------------------------------------------------------
 Input file generated by CHIRIPA (05-May-2021 14:53:14)
 ------------------------------------------------------
 Symbolic Z-matrix:
 Charge =  0 Multiplicity = 1

                         Standard orientation:
 ---------------------------------------------------------------------
 Center     Atomic      Atomic             Coordinates (Angstroms)
 Number     Number       Type             X           Y           Z
 ---------------------------------------------------------------------
      1          6           0       -2.638075   -0.082860    0.049646
      2          6           0       -3.234206   -1.020118   -1.001143
      3          6           0       -3.342943   -2.464453   -0.511381
      4          1           0       -1.643297   -0.449956    0.337055
      5          1           0       -3.258111   -0.117932    0.956134
      6          1           0       -2.614008   -0.982239   -1.905873
      7          1           0       -4.227600   -0.650641   -1.286224
      8          1           0       -3.978695   -2.522820    0.378009
      9          1           0       -2.355935   -2.856301   -0.245161
     10          1           0       -3.771568   -3.117209   -1.278225
     11          6           0       -2.522959    1.364565   -0.425158
     12          6           0       -1.926827    2.301823    0.625632
     13          6           0       -1.818090    3.746158    0.135869
     14          1           0       -1.902922    1.399636   -1.331645
     15          1           0       -3.517736    1.731661   -0.712566
     16          1           0       -0.933433    1.932346    0.910713
     17          1           0       -2.547025    2.263943    1.530362
     18          1           0       -2.805098    4.138006   -0.130350
     19          1           0       -1.182338    3.804524   -0.753520
     20          1           0       -1.389465    4.398914    0.902714
     21          6           0        0.412293   -2.079622    1.287234
     22          6           0        0.783512   -2.299254   -0.043360
     23          6           0        1.671387   -1.430896   -0.685371
     24          6           0        2.171072   -0.348018    0.036420
     25          6           0        1.820288   -0.102468    1.363050
     26          6           0        0.930951   -0.983862    1.984961
     27          1           0       -0.277997   -2.759246    1.778157
     28          1           0        0.382293   -3.149416   -0.587687
     29          1           0        1.975600   -1.577347   -1.714655
     30          1           0        2.236877    0.753646    1.879712
     31          1           0        0.644421   -0.810820    3.018403
     32          7           0        3.111799    0.578174   -0.632610
     33          8           0        3.537979    1.524904    0.025198
     34          8           0        3.405149    0.339855   -1.802134
 ---------------------------------------------------------------------

 SCF Done:  E(RHF) =  -669.534601945     A.U. after   15 cycles
 E2 =    -0.2095031489D+01 EUMP2 =    -0.67162963343414D+03

 The electronic state is 1-A.
 Alpha  occ. eigenvalues --  -20.60890 -20.60885 -15.85947 -11.31366 -11.27946
 Alpha  occ. eigenvalues --  -11.27933 -11.27636 -11.26933 -11.26923 -11.22012
 Alpha  occ. eigenvalues --  -11.21797 -11.21685 -11.21522 -11.21462 -11.21027
 Alpha  occ. eigenvalues --   -1.59966  -1.39517  -1.19551  -1.08949  -1.08629
 Alpha  occ. eigenvalues --   -1.04947  -1.03803  -0.96252  -0.95752  -0.87277
 Alpha  occ. eigenvalues --   -0.86335  -0.82573  -0.79875  -0.78455  -0.77615
 Alpha  occ. eigenvalues --   -0.72161  -0.71291  -0.70633  -0.65331  -0.65178
 Alpha  occ. eigenvalues --   -0.64928  -0.62295  -0.61201  -0.59640  -0.57863
 Alpha  occ. eigenvalues --   -0.55577  -0.55422  -0.53387  -0.53025  -0.52935
 Alpha  occ. eigenvalues --   -0.52673  -0.50211  -0.48924  -0.48914  -0.48200
 Alpha  occ. eigenvalues --   -0.46918  -0.45977  -0.45847  -0.44912  -0.44011
 Alpha  occ. eigenvalues --   -0.37375  -0.36537
 Alpha virt. eigenvalues --    0.04878   0.10953   0.16322   0.20258   0.22931
 Alpha virt. eigenvalues --    0.23880   0.26115   0.26632   0.27208   0.27760
 Alpha virt. eigenvalues --    0.28691   0.30508   0.31298   0.31546   0.31945

 Mulliken charges:
               1
     1  C   -0.309590
     2  C   -0.298155
     3  C   -0.476961
     4  H    0.162991
     5  H    0.144616
     6  H    0.152153
     7  H    0.153925
     8  H    0.155537
     9  H    0.143688
    10  H    0.162167
    11  C   -0.297387
    12  C   -0.301611
    13  C   -0.475882
    14  H    0.151474
    15  H    0.149253
    16  H    0.151157
    17  H    0.148761
    18  H    0.154566
    19  H    0.159244
    20  H    0.160682
    21  C   -0.174650
    22  C   -0.217075
    23  C   -0.171456
    24  C    0.158633
    25  C   -0.171138
    26  C   -0.216057
    27  H    0.228554
    28  H    0.225602
    29  H    0.276466
    30  H    0.276798
    31  H    0.225369
    32  N    0.488074
    33  O   -0.459783
    34  O   -0.459966
 Sum of Mulliken charges =  -0.00000

 Dipole moment (field-independent basis, Debye):
    X=             -3.1686    Y=             -3.2397    Z=              2.3564  Tot=              5.1077
 Quadrupole moment (field-independent basis, Debye-Ang):
   XX=           -109.3543   YY=            -92.6792   ZZ=            -91.0729
   XY=             -6.2056   XZ=              5.1616   YZ=              1.7896

 Normal termination of Gaussian 16 at Thu May  6 12:09:04 2021.
