 Gaussian 16, Revision A.03,
 Gaussian 16:  EM64L-G16RevA.03 25-Dec-2016

 -------------
 #p 6-31g* mp2
 -------------

 ------------------------------------------------------
 Input file generated by CHIRIPA (05-May-2021 14:55:23)
 ------------------------------------------------------
 Symbolic Z-matrix:
 Charge =  0 Multiplicity = 1

                         Standard orientation:
 ---------------------------------------------------------------------
 Center     Atomic      Atomic             Coordinates (Angstroms)
 Number     Number       Type             X           Y           Z
 ---------------------------------------------------------------------
      1          6           0        0.263322   -1.141709    1.153367
      2          6           0        0.548844    0.227370    1.128416
      3          6           0        1.757708    0.691050    0.600973
      4          6           0        2.662277   -0.246376    0.104708
      5          6           0        2.406816   -1.616745    0.115530
      6          6           0        1.191583   -2.057782    0.647736
      7          1           0       -0.678226   -1.493111    1.564948
      8          1           0       -0.170180    0.941091    1.520401
      9          1           0        2.004348    1.745366    0.569269
     10          1           0        3.143339   -2.304127   -0.282538
     11          1           0        0.972526   -3.121611    0.665816
     12          7           0        3.945418    0.232515   -0.456193
     13          8           0        4.725658   -0.613697   -0.887224
     14          8           0        4.146609    1.445015   -0.454176
     15          6           0       -3.147998    1.094346    0.099332
     16          6           0       -2.202198    2.118589   -0.528660
     17          6           0       -2.235391    3.469894    0.185951
     18          1           0       -4.171603    1.493076    0.085369
     19          1           0       -2.880079    0.957938    1.156217
     20          1           0       -2.470946    2.251997   -1.584403
     21          1           0       -1.180756    1.717295   -0.513374
     22          1           0       -1.946247    3.357640    1.235902
     23          1           0       -3.243769    3.895379    0.158788
     24          1           0       -1.551935    4.187000   -0.279349
     25          6           0       -3.126048   -0.261571   -0.604041
     26          6           0       -4.071849   -1.285814    0.023951
     27          6           0       -4.038655   -2.637118   -0.690660
     28          1           0       -3.393968   -0.125162   -1.660926
     29          1           0       -2.102444   -0.660301   -0.590077
     30          1           0       -5.093291   -0.884520    0.008666
     31          1           0       -3.803100   -1.419221    1.079695
     32          1           0       -3.030278   -3.062604   -0.663496
     33          1           0       -4.327799   -2.524864   -1.740610
     34          1           0       -4.722112   -3.354224   -0.225359
 ---------------------------------------------------------------------

 SCF Done:  E(RHF) =  -669.534117243     A.U. after   15 cycles
 E2 =    -0.2094806748D+01 EUMP2 =    -0.67162892399178D+03

 The electronic state is 1-A.
 Alpha  occ. eigenvalues --  -20.60825 -20.60820 -15.85880 -11.31285 -11.27847
 Alpha  occ. eigenvalues --  -11.27842 -11.27588 -11.26882 -11.26842 -11.22485
 Alpha  occ. eigenvalues --  -11.22318 -11.22249 -11.22122 -11.21883 -11.21838
 Alpha  occ. eigenvalues --   -1.59900  -1.39452  -1.19468  -1.09305  -1.08837
 Alpha  occ. eigenvalues --   -1.04884  -1.04345  -0.96799  -0.95679  -0.87811
 Alpha  occ. eigenvalues --   -0.86269  -0.82516  -0.80395  -0.79080  -0.77553
 Alpha  occ. eigenvalues --   -0.72098  -0.71223  -0.70588  -0.66169  -0.65114
 Alpha  occ. eigenvalues --   -0.64717  -0.62369  -0.61583  -0.60148  -0.58388
 Alpha  occ. eigenvalues --   -0.56140  -0.55341  -0.53482  -0.53217  -0.53190
 Alpha  occ. eigenvalues --   -0.52948  -0.50743  -0.48865  -0.48850  -0.48689
 Alpha  occ. eigenvalues --   -0.47464  -0.46610  -0.46558  -0.44849  -0.44590
 Alpha  occ. eigenvalues --   -0.37385  -0.36411
 Alpha virt. eigenvalues --    0.04927   0.11105   0.16236   0.18386   0.21982
 Alpha virt. eigenvalues --    0.23754   0.25315   0.26634   0.27071   0.28113
 Alpha virt. eigenvalues --    0.29172   0.30413   0.30963   0.31523   0.32351

 Mulliken charges:
               1
     1  C   -0.173884
     2  C   -0.220359
     3  C   -0.172588
     4  C    0.159234
     5  C   -0.170523
     6  C   -0.219984
     7  H    0.229061
     8  H    0.231276
     9  H    0.276620
    10  H    0.276114
    11  H    0.224186
    12  N    0.488036
    13  O   -0.460095
    14  O   -0.459951
    15  C   -0.298925
    16  C   -0.309885
    17  C   -0.477448
    18  H    0.154514
    19  H    0.138406
    20  H    0.157684
    21  H    0.156409
    22  H    0.148278
    23  H    0.159376
    24  H    0.164911
    25  C   -0.305935
    26  C   -0.300756
    27  C   -0.475099
    28  H    0.154338
    29  H    0.154020
    30  H    0.156010
    31  H    0.144624
    32  H    0.150598
    33  H    0.159452
    34  H    0.162285
 Sum of Mulliken charges =  -0.00000

 Dipole moment (field-independent basis, Debye):
    X=             -4.5519    Y=             -1.6725    Z=              1.8388  Tot=              5.1863
 Quadrupole moment (field-independent basis, Debye-Ang):
   XX=           -118.1271   YY=            -90.2711   ZZ=            -94.7094
   XY=             -5.2563   XZ=              5.4220   YZ=             -0.3353

 Normal termination of Gaussian 16 at Wed May  5 23:57:55 2021.
