 Gaussian 16, Revision A.03,
 Gaussian 16:  EM64L-G16RevA.03 25-Dec-2016

 -------------
 #p 6-31g* mp2
 -------------

 ------------------------------------------------------
 Input file generated by CHIRIPA (05-May-2021 14:57:21)
 ------------------------------------------------------
 Symbolic Z-matrix:
 Charge =  0 Multiplicity = 1

                         Standard orientation:
 ---------------------------------------------------------------------
 Center     Atomic      Atomic             Coordinates (Angstroms)
 Number     Number       Type             X           Y           Z
 ---------------------------------------------------------------------
      1          6           0        1.537332   -1.345121    0.209739
      2          6           0        1.681801   -0.426462   -0.835113
      3          6           0        2.874176    0.285858   -0.994458
      4          6           0        3.906268    0.053665   -0.086624
      5          6           0        3.792846   -0.854920    0.964519
      6          6           0        2.591457   -1.556046    1.104642
      7          1           0        0.607565   -1.894120    0.326056
      8          1           0        0.864833   -0.260616   -1.531607
      9          1           0        3.012946    1.002963   -1.794408
     10          1           0        4.624937   -0.998761    1.643011
     11          1           0        2.482082   -2.268869    1.917025
     12          7           0        5.173353    0.801841   -0.245141
     13          8           0        6.067686    0.579141    0.568008
     14          8           0        5.248169    1.596793   -1.179533
     15          6           0       -4.246333    2.480278    0.563967
     16          6           0       -3.371376    1.773232    1.395266
     17          6           0       -3.060079    0.437157    1.125922
     18          6           0       -3.644371   -0.163407    0.011825
     19          6           0       -4.519746    0.514398   -0.835282
     20          6           0       -4.816721    1.849715   -0.546696
     21          1           0       -4.482593    3.517878    0.780673
     22          1           0       -2.926926    2.260375    2.258516
     23          1           0       -2.385922   -0.133720    1.752843
     24          1           0       -4.947202    0.001814   -1.688486
     25          1           0       -5.496559    2.396352   -1.194039
     26          7           0       -3.322397   -1.577450   -0.283502
     27          8           0       -3.850325   -2.083773   -1.271210
     28          8           0       -2.548201   -2.152677    0.478319
 ---------------------------------------------------------------------

 SCF Done:  E(RHF) =  -868.339927865     A.U. after   16 cycles
 E2 =    -0.2598494684D+01 EUMP2 =    -0.87093842254940D+03

 The electronic state is 1-A.
 Alpha  occ. eigenvalues --  -20.61891 -20.61818 -20.60527 -20.60522 -15.86879
 Alpha  occ. eigenvalues --  -15.85579 -11.31997 -11.30829 -11.28546 -11.28511
 Alpha  occ. eigenvalues --  -11.28194 -11.27471 -11.27458 -11.27410 -11.27400
 Alpha  occ. eigenvalues --  -11.26927 -11.26334 -11.26317  -1.60918  -1.59607
 Alpha  occ. eigenvalues --   -1.40479  -1.39163  -1.20140  -1.18983  -1.09574
 Alpha  occ. eigenvalues --   -1.08363  -1.05498  -1.04380  -0.96451  -0.95219
 Alpha  occ. eigenvalues --   -0.86907  -0.85762  -0.83290  -0.82067  -0.78375
 Alpha  occ. eigenvalues --   -0.77165  -0.73102  -0.72235  -0.71796  -0.71229
 Alpha  occ. eigenvalues --   -0.70931  -0.69970  -0.65788  -0.65485  -0.64617
 Alpha  occ. eigenvalues --   -0.64365  -0.62848  -0.61738  -0.55988  -0.54726
 Alpha  occ. eigenvalues --   -0.53847  -0.53578  -0.52713  -0.52454  -0.49872
 Alpha  occ. eigenvalues --   -0.49827  -0.48559  -0.48543  -0.45926  -0.44595
 Alpha  occ. eigenvalues --   -0.38099  -0.37095  -0.36911  -0.36010
 Alpha virt. eigenvalues --    0.04094   0.05380   0.10559   0.11658   0.15619
 Alpha virt. eigenvalues --    0.16905   0.20696   0.21998   0.26619   0.27376
 Alpha virt. eigenvalues --    0.27695   0.28954   0.30427   0.31277   0.32724

 Mulliken charges:
               1
     1  C   -0.180659
     2  C   -0.221047
     3  C   -0.171927
     4  C    0.157224
     5  C   -0.171628
     6  C   -0.220811
     7  H    0.246417
     8  H    0.223068
     9  H    0.273455
    10  H    0.274021
    11  H    0.224226
    12  N    0.488203
    13  O   -0.461603
    14  O   -0.462115
    15  C   -0.169861
    16  C   -0.218030
    17  C   -0.171802
    18  C    0.156168
    19  C   -0.171118
    20  C   -0.218461
    21  H    0.229001
    22  H    0.226591
    23  H    0.273334
    24  H    0.276817
    25  H    0.226267
    26  N    0.488374
    27  O   -0.454827
    28  O   -0.469276
 Sum of Mulliken charges =  -0.00000

 Dipole moment (field-independent basis, Debye):
    X=             -6.0019    Y=              2.3946    Z=              1.5960  Tot=              6.6562
 Quadrupole moment (field-independent basis, Debye-Ang):
   XX=           -129.9393   YY=           -106.4686   ZZ=            -98.9801
   XY=            -30.5113   XZ=              3.4487   YZ=             -1.9788

 Normal termination of Gaussian 16 at Thu May  6 09:37:22 2021.
