 Gaussian 16, Revision A.03,
 Gaussian 16:  EM64L-G16RevA.03 25-Dec-2016

 -------------
 #p 6-31g* mp2
 -------------

 ------------------------------------------------------
 Input file generated by CHIRIPA (05-May-2021 14:55:23)
 ------------------------------------------------------
 Symbolic Z-matrix:
 Charge =  0 Multiplicity = 1

                         Standard orientation:
 ---------------------------------------------------------------------
 Center     Atomic      Atomic             Coordinates (Angstroms)
 Number     Number       Type             X           Y           Z
 ---------------------------------------------------------------------
      1          6           0        0.859131   -0.305911    1.412134
      2          6           0        1.354020   -1.488227    0.852014
      3          6           0        2.576812   -1.495326    0.174314
      4          6           0        3.281663   -0.296727    0.075143
      5          6           0        2.815084    0.897431    0.622483
      6          6           0        1.589955    0.881052    1.295786
      7          1           0       -0.091671   -0.309515    1.936879
      8          1           0        0.788606   -2.411518    0.940822
      9          1           0        2.983313   -2.396353   -0.268773
     10          1           0        3.401410    1.802222    0.517631
     11          1           0        1.208068    1.800752    1.729790
     12          7           0        4.577416   -0.291815   -0.639980
     13          8           0        5.179232    0.777315   -0.713567
     14          8           0        4.966676   -1.357188   -1.113365
     15          6           0       -4.299736   -0.189882    0.097775
     16          6           0       -5.460052   -0.743911   -0.729693
     17          6           0       -6.195606   -1.885109   -0.026542
     18          1           0       -3.593851   -1.002438    0.317831
     19          1           0       -4.683599    0.161359    1.065594
     20          1           0       -5.074329   -1.092734   -1.696210
     21          1           0       -6.163160    0.070098   -0.947967
     22          1           0       -6.607497   -1.546593    0.929676
     23          1           0       -5.512480   -2.716033    0.177182
     24          1           0       -7.021189   -2.266192   -0.635682
     25          6           0       -3.554620    0.951576   -0.591866
     26          6           0       -2.394303    1.505605    0.235602
     27          6           0       -1.658749    2.646803   -0.467549
     28          1           0       -3.170756    0.600336   -1.559685
     29          1           0       -4.260505    1.764131   -0.811922
     30          1           0       -1.691195    0.691596    0.453876
     31          1           0       -2.780027    1.854427    1.202119
     32          1           0       -2.341876    3.477727   -0.671274
     33          1           0       -1.246858    2.308288   -1.423768
     34          1           0       -0.833167    3.027886    0.141591
 ---------------------------------------------------------------------

 SCF Done:  E(RHF) =  -669.535005240     A.U. after   15 cycles
 E2 =    -0.2092411881D+01 EUMP2 =    -0.67162741712055D+03

 The electronic state is 1-A.
 Alpha  occ. eigenvalues --  -20.60779 -20.60774 -15.85833 -11.31211 -11.27785
 Alpha  occ. eigenvalues --  -11.27777 -11.27499 -11.26801 -11.26790 -11.22443
 Alpha  occ. eigenvalues --  -11.22177 -11.22108 -11.22050 -11.21818 -11.21594
 Alpha  occ. eigenvalues --   -1.59855  -1.39408  -1.19389  -1.09140  -1.08779
 Alpha  occ. eigenvalues --   -1.04792  -1.04214  -0.96647  -0.95614  -0.87662
 Alpha  occ. eigenvalues --   -0.86187  -0.82451  -0.80301  -0.78964  -0.77487
 Alpha  occ. eigenvalues --   -0.72051  -0.71178  -0.70516  -0.65764  -0.65038
 Alpha  occ. eigenvalues --   -0.64801  -0.62149  -0.61606  -0.60033  -0.58274
 Alpha  occ. eigenvalues --   -0.55924  -0.55316  -0.53385  -0.53108  -0.53075
 Alpha  occ. eigenvalues --   -0.52830  -0.50569  -0.48822  -0.48805  -0.48587
 Alpha  occ. eigenvalues --   -0.47316  -0.46492  -0.46406  -0.44811  -0.44474
 Alpha  occ. eigenvalues --   -0.37320  -0.36389
 Alpha virt. eigenvalues --    0.05006   0.11189   0.16378   0.20170   0.22489
 Alpha virt. eigenvalues --    0.23735   0.25432   0.26075   0.26356   0.28169
 Alpha virt. eigenvalues --    0.29009   0.29908   0.30941   0.31737   0.32143

 Mulliken charges:
               1
     1  C   -0.170015
     2  C   -0.220630
     3  C   -0.170774
     4  C    0.158627
     5  C   -0.171217
     6  C   -0.217605
     7  H    0.228036
     8  H    0.223422
     9  H    0.275665
    10  H    0.275818
    11  H    0.224582
    12  N    0.488072
    13  O   -0.460259
    14  O   -0.460432
    15  C   -0.297930
    16  C   -0.300192
    17  C   -0.475939
    18  H    0.144492
    19  H    0.149475
    20  H    0.153494
    21  H    0.153851
    22  H    0.155501
    23  H    0.154058
    24  H    0.162515
    25  C   -0.297958
    26  C   -0.306809
    27  C   -0.473798
    28  H    0.152558
    29  H    0.152350
    30  H    0.149077
    31  H    0.149692
    32  H    0.158198
    33  H    0.160736
    34  H    0.153342
 Sum of Mulliken charges =  -0.00000

 Dipole moment (field-independent basis, Debye):
    X=             -4.6584    Y=             -0.0043    Z=              2.4320  Tot=              5.2550
 Quadrupole moment (field-independent basis, Debye-Ang):
   XX=           -124.9010   YY=            -90.1925   ZZ=            -94.9018
   XY=              0.8861   XZ=              8.3212   YZ=              0.7840

 Normal termination of Gaussian 16 at Wed May  5 20:42:31 2021.
