 Gaussian 16, Revision A.03,
 Gaussian 16:  EM64L-G16RevA.03 25-Dec-2016

 -------------
 #p 6-31g* mp2
 -------------

 ------------------------------------------------------
 Input file generated by CHIRIPA (05-May-2021 14:55:22)
 ------------------------------------------------------
 Symbolic Z-matrix:
 Charge =  0 Multiplicity = 1

                         Standard orientation:
 ---------------------------------------------------------------------
 Center     Atomic      Atomic             Coordinates (Angstroms)
 Number     Number       Type             X           Y           Z
 ---------------------------------------------------------------------
      1          6           0       -0.260359   -0.507834    1.331097
      2          6           0       -0.947967    0.697314    1.508115
      3          6           0       -2.192606    0.899914    0.904478
      4          6           0       -2.722547   -0.128591    0.126899
      5          6           0       -2.061882   -1.340481   -0.068383
      6          6           0       -0.818527   -1.521098    0.544799
      7          1           0        0.706008   -0.656680    1.803724
      8          1           0       -0.516908    1.485982    2.118225
      9          1           0       -2.746474    1.823041    1.024830
     10          1           0       -2.517093   -2.108183   -0.682252
     11          1           0       -0.286779   -2.458065    0.405575
     12          7           0       -4.039511    0.074257   -0.517197
     13          8           0       -4.484853   -0.847461   -1.197450
     14          8           0       -4.601468    1.151125   -0.329590
     15          6           0        2.812104    0.821328   -0.523121
     16          6           0        3.435918    2.142326   -0.071671
     17          6           0        2.634392    3.361399   -0.529068
     18          1           0        2.729491    0.817646   -1.618615
     19          1           0        1.787320    0.755273   -0.132161
     20          1           0        4.459702    2.205246   -0.462212
     21          1           0        3.517231    2.142785    1.022863
     22          1           0        1.616406    3.325823   -0.127772
     23          1           0        2.564232    3.388639   -1.621285
     24          1           0        3.098120    4.294970   -0.195509
     25          6           0        3.601965   -0.406550   -0.073496
     26          6           0        2.978151   -1.727548   -0.524947
     27          6           0        3.779676   -2.946621   -0.067549
     28          1           0        4.626748   -0.340496   -0.464456
     29          1           0        3.684577   -0.402868    1.021998
     30          1           0        2.896838   -1.728007   -1.619480
     31          1           0        1.954367   -1.790468   -0.134405
     32          1           0        3.849836   -2.973862    1.024667
     33          1           0        4.797663   -2.911046   -0.468846
     34          1           0        3.315949   -3.880193   -0.401109
 ---------------------------------------------------------------------

 SCF Done:  E(RHF) =  -669.533561603     A.U. after   15 cycles
 E2 =    -0.2094875148D+01 EUMP2 =    -0.67162843675184D+03

 The electronic state is 1-A.
 Alpha  occ. eigenvalues --  -20.60816 -20.60811 -15.85872 -11.31269 -11.27859
 Alpha  occ. eigenvalues --  -11.27847 -11.27591 -11.26875 -11.26837 -11.22525
 Alpha  occ. eigenvalues --  -11.22255 -11.22249 -11.21968 -11.21956 -11.21631
 Alpha  occ. eigenvalues --   -1.59891  -1.39444  -1.19464  -1.09255  -1.08835
 Alpha  occ. eigenvalues --   -1.04870  -1.04305  -0.96737  -0.95686  -0.87749
 Alpha  occ. eigenvalues --   -0.86276  -0.82509  -0.80385  -0.79023  -0.77538
 Alpha  occ. eigenvalues --   -0.72092  -0.71215  -0.70633  -0.65959  -0.65121
 Alpha  occ. eigenvalues --   -0.64815  -0.62285  -0.61653  -0.60097  -0.58342
 Alpha  occ. eigenvalues --   -0.56099  -0.55314  -0.53460  -0.53236  -0.53104
 Alpha  occ. eigenvalues --   -0.52962  -0.50690  -0.48867  -0.48843  -0.48665
 Alpha  occ. eigenvalues --   -0.47445  -0.46535  -0.46484  -0.44843  -0.44541
 Alpha  occ. eigenvalues --   -0.37308  -0.36451
 Alpha virt. eigenvalues --    0.04960   0.10977   0.16358   0.19278   0.22863
 Alpha virt. eigenvalues --    0.23332   0.25601   0.26407   0.27180   0.27480
 Alpha virt. eigenvalues --    0.29956   0.30200   0.30908   0.31160   0.32212

 Mulliken charges:
               1
     1  C   -0.170957
     2  C   -0.219977
     3  C   -0.170225
     4  C    0.158323
     5  C   -0.171557
     6  C   -0.218316
     7  H    0.229582
     8  H    0.224367
     9  H    0.276211
    10  H    0.276248
    11  H    0.225578
    12  N    0.488111
    13  O   -0.460104
    14  O   -0.460141
    15  C   -0.307340
    16  C   -0.299540
    17  C   -0.475373
    18  H    0.153380
    19  H    0.155183
    20  H    0.154273
    21  H    0.147236
    22  H    0.152331
    23  H    0.158761
    24  H    0.161798
    25  C   -0.299635
    26  C   -0.305960
    27  C   -0.476032
    28  H    0.154139
    29  H    0.143088
    30  H    0.157490
    31  H    0.145848
    32  H    0.152848
    33  H    0.159916
    34  H    0.160445
 Sum of Mulliken charges =  -0.00000

 Dipole moment (field-independent basis, Debye):
    X=              4.6368    Y=             -0.6930    Z=              2.1605  Tot=              5.1622
 Quadrupole moment (field-independent basis, Debye-Ang):
   XX=           -120.4222   YY=            -91.3637   ZZ=            -93.2904
   XY=              1.5820   XZ=             -6.7390   YZ=              1.9416

 Normal termination of Gaussian 16 at Thu May  6 06:16:25 2021.
