 Gaussian 16, Revision A.03,
 Gaussian 16:  EM64L-G16RevA.03 25-Dec-2016

 -------------
 #p 6-31g* mp2
 -------------

 ------------------------------------------------------
 Input file generated by CHIRIPA (05-May-2021 14:51:13)
 ------------------------------------------------------
 Symbolic Z-matrix:
 Charge =  0 Multiplicity = 1

                         Standard orientation:
 ---------------------------------------------------------------------
 Center     Atomic      Atomic             Coordinates (Angstroms)
 Number     Number       Type             X           Y           Z
 ---------------------------------------------------------------------
      1          6           0        2.941995    0.715707    0.153341
      2          6           0        4.247506    1.493732   -0.014896
      3          6           0        4.173098    2.906028    0.566205
      4          1           0        2.126871    1.270573   -0.331056
      5          1           0        2.691043    0.660858    1.221709
      6          1           0        4.496644    1.545906   -1.082521
      7          1           0        5.059652    0.936855    0.469793
      8          1           0        3.948560    2.870613    1.637153
      9          1           0        3.382353    3.483124    0.076019
     10          1           0        5.116964    3.444343    0.435083
     11          6           0        3.000729   -0.697991   -0.422625
     12          6           0        1.695219   -1.476016   -0.254389
     13          6           0        1.769627   -2.888312   -0.835490
     14          1           0        3.251681   -0.643142   -1.490993
     15          1           0        3.815854   -1.252857    0.061772
     16          1           0        0.883073   -0.919139   -0.739077
     17          1           0        1.446081   -1.528189    0.813237
     18          1           0        2.560372   -3.465408   -0.345303
     19          1           0        1.994165   -2.852897   -1.906437
     20          1           0        0.825760   -3.426627   -0.704367
     21          6           0       -3.265364    0.486779   -0.366695
     22          6           0       -3.776400    1.773852    0.281587
     23          6           0       -4.361616    2.755422   -0.734206
     24          1           0       -2.502856    0.739025   -1.116294
     25          1           0       -4.090403    0.005412   -0.909827
     26          1           0       -2.950980    2.251932    0.824486
     27          1           0       -4.537642    1.518498    1.029865
     28          1           0       -5.202562    2.301396   -1.268314
     29          1           0       -3.606886    3.038997   -1.474861
     30          1           0       -4.720886    3.668443   -0.249254
     31          6           0       -2.677361   -0.504494    0.635980
     32          6           0       -2.166325   -1.791568   -0.012302
     33          6           0       -1.581109   -2.773139    1.003491
     34          1           0       -1.852322   -0.023128    1.179111
     35          1           0       -3.439868   -0.756742    1.385579
     36          1           0       -1.405082   -1.536214   -0.760580
     37          1           0       -2.991744   -2.269649   -0.555201
     38          1           0       -2.335839   -3.056714    1.744145
     39          1           0       -0.740163   -2.319113    1.537598
     40          1           0       -1.221838   -3.686158    0.518539
 ---------------------------------------------------------------------

 SCF Done:  E(RHF) =  -470.731596466     A.U. after   11 cycles
 E2 =    -0.1584727098D+01 EUMP2 =    -0.47231632356426D+03

 The electronic state is 1-A.
 Alpha  occ. eigenvalues --  -11.21632 -11.21607 -11.21596 -11.21538 -11.21437
 Alpha  occ. eigenvalues --  -11.21391 -11.21372 -11.21327 -11.21099 -11.21071
 Alpha  occ. eigenvalues --  -11.21019 -11.21007  -1.08489  -1.08385  -1.03649
 Alpha  occ. eigenvalues --   -1.03420  -0.96094  -0.95870  -0.87061  -0.86936
 Alpha  occ. eigenvalues --   -0.79652  -0.79563  -0.78300  -0.78218  -0.65141
 Alpha  occ. eigenvalues --   -0.65024  -0.61088  -0.60954  -0.59613  -0.59090
 Alpha  occ. eigenvalues --   -0.57779  -0.57366  -0.55303  -0.55156  -0.52929
 Alpha  occ. eigenvalues --   -0.52549  -0.52469  -0.52174  -0.50042  -0.49822
 Alpha  occ. eigenvalues --   -0.48163  -0.47679  -0.47006  -0.46364  -0.45948
 Alpha  occ. eigenvalues --   -0.45829  -0.45621  -0.45410  -0.43906  -0.43642
 Alpha virt. eigenvalues --    0.20808   0.23193   0.23332   0.25336   0.25523
 Alpha virt. eigenvalues --    0.25813   0.26894   0.27739   0.28437   0.29075
 Alpha virt. eigenvalues --    0.29659   0.31068   0.31148   0.31886   0.32853

 Mulliken charges:
               1
     1  C   -0.298273
     2  C   -0.299619
     3  C   -0.475738
     4  H    0.149020
     5  H    0.149187
     6  H    0.152049
     7  H    0.152136
     8  H    0.155185
     9  H    0.155070
    10  H    0.160423
    11  C   -0.297554
    12  C   -0.303500
    13  C   -0.481210
    14  H    0.149473
    15  H    0.149766
    16  H    0.153686
    17  H    0.153486
    18  H    0.155135
    19  H    0.154637
    20  H    0.167046
    21  C   -0.298050
    22  C   -0.299707
    23  C   -0.475665
    24  H    0.148689
    25  H    0.149573
    26  H    0.152082
    27  H    0.151997
    28  H    0.155177
    29  H    0.154967
    30  H    0.160277
    31  C   -0.298820
    32  C   -0.304468
    33  C   -0.479758
    34  H    0.150194
    35  H    0.149644
    36  H    0.157330
    37  H    0.151649
    38  H    0.155166
    39  H    0.159240
    40  H    0.160079
 Sum of Mulliken charges =  -0.00000

 Dipole moment (field-independent basis, Debye):
    X=              0.0135    Y=             -0.0102    Z=              0.0105  Tot=              0.0199
 Quadrupole moment (field-independent basis, Debye-Ang):
   XX=            -84.1595   YY=            -86.2487   ZZ=            -84.4827
   XY=              0.5051   XZ=             -0.0950   YZ=             -0.2744

 Normal termination of Gaussian 16 at Wed May  5 16:51:05 2021.
