 Gaussian 16, Revision A.03,
 Gaussian 16:  EM64L-G16RevA.03 25-Dec-2016

 -------------
 #p 6-31g* mp2
 -------------

 ------------------------------------------------------
 Input file generated by CHIRIPA (05-May-2021 14:55:20)
 ------------------------------------------------------
 Symbolic Z-matrix:
 Charge =  0 Multiplicity = 1

                         Standard orientation:
 ---------------------------------------------------------------------
 Center     Atomic      Atomic             Coordinates (Angstroms)
 Number     Number       Type             X           Y           Z
 ---------------------------------------------------------------------
      1          6           0       -0.676498   -1.131245   -0.344929
      2          6           0       -1.791563   -1.957140   -0.521135
      3          6           0       -3.083550   -1.452856   -0.345029
      4          6           0       -3.224445   -0.111880    0.008841
      5          6           0       -2.133264    0.736175    0.191643
      6          6           0       -0.850601    0.210412    0.010271
      7          1           0        0.323527   -1.531328   -0.483778
      8          1           0       -1.659364   -2.999482   -0.796986
      9          1           0       -3.964254   -2.070005   -0.475050
     10          1           0       -2.296786    1.771091    0.466649
     11          1           0        0.013543    0.854143    0.147785
     12          7           0       -4.587279    0.433352    0.198063
     13          8           0       -4.684610    1.618250    0.509802
     14          8           0       -5.532331   -0.334516    0.031054
     15          6           0        4.282524   -0.315919    0.268957
     16          6           0        3.698516   -1.697412   -0.028360
     17          6           0        4.595710   -2.835755    0.458480
     18          1           0        5.270958   -0.233295   -0.203395
     19          1           0        4.444339   -0.219154    1.351476
     20          1           0        3.536559   -1.791027   -1.109850
     21          1           0        2.711275   -1.776687    0.444595
     22          1           0        4.747870   -2.770432    1.540691
     23          1           0        5.577843   -2.784853   -0.022586
     24          1           0        4.159136   -3.814346    0.235721
     25          6           0        3.397050    0.832377   -0.211752
     26          6           0        3.981057    2.213870    0.085564
     27          6           0        3.083864    3.352212   -0.401275
     28          1           0        3.235235    0.735611   -1.294271
     29          1           0        2.408616    0.749752    0.260600
     30          1           0        4.968299    2.293145   -0.387390
     31          1           0        4.143014    2.307485    1.167055
     32          1           0        2.101730    3.301312    0.079791
     33          1           0        2.931704    3.286890   -1.483486
     34          1           0        3.520438    4.330805   -0.178517
 ---------------------------------------------------------------------

 SCF Done:  E(RHF) =  -669.535455718     A.U. after   15 cycles
 E2 =    -0.2092125384D+01 EUMP2 =    -0.67162758110228D+03

 The electronic state is 1-A.
 Alpha  occ. eigenvalues --  -20.60696 -20.60691 -15.85749 -11.31095 -11.27666
 Alpha  occ. eigenvalues --  -11.27657 -11.27355 -11.26670 -11.26632 -11.22834
 Alpha  occ. eigenvalues --  -11.22629 -11.22533 -11.22447 -11.22025 -11.21964
 Alpha  occ. eigenvalues --   -1.59772  -1.39326  -1.19262  -1.09543  -1.08655
 Alpha  occ. eigenvalues --   -1.04666  -1.04564  -0.96990  -0.95496  -0.88005
 Alpha  occ. eigenvalues --   -0.86066  -0.82334  -0.80645  -0.79406  -0.77384
 Alpha  occ. eigenvalues --   -0.71967  -0.71095  -0.70365  -0.66196  -0.64910
 Alpha  occ. eigenvalues --   -0.64658  -0.62077  -0.61903  -0.60370  -0.58616
 Alpha  occ. eigenvalues --   -0.56272  -0.55164  -0.53652  -0.53422  -0.52994
 Alpha  occ. eigenvalues --   -0.52765  -0.50923  -0.48956  -0.48724  -0.48709
 Alpha  occ. eigenvalues --   -0.47667  -0.46899  -0.46810  -0.44833  -0.44736
 Alpha  occ. eigenvalues --   -0.37235  -0.36272
 Alpha virt. eigenvalues --    0.05143   0.11369   0.16613   0.18891   0.22163
 Alpha virt. eigenvalues --    0.22608   0.24955   0.25614   0.26551   0.27520
 Alpha virt. eigenvalues --    0.29371   0.30448   0.30965   0.31420   0.31918

 Mulliken charges:
               1
     1  C   -0.178752
     2  C   -0.219639
     3  C   -0.171093
     4  C    0.158701
     5  C   -0.171767
     6  C   -0.226664
     7  H    0.234098
     8  H    0.223278
     9  H    0.275162
    10  H    0.275558
    11  H    0.231404
    12  N    0.487934
    13  O   -0.460646
    14  O   -0.460736
    15  C   -0.297663
    16  C   -0.306257
    17  C   -0.475554
    18  H    0.154612
    19  H    0.153220
    20  H    0.152143
    21  H    0.147115
    22  H    0.158492
    23  H    0.158974
    24  H    0.161075
    25  C   -0.305216
    26  C   -0.300288
    27  C   -0.476785
    28  H    0.151637
    29  H    0.143258
    30  H    0.156139
    31  H    0.154795
    32  H    0.150269
    33  H    0.157549
    34  H    0.165650
 Sum of Mulliken charges =  -0.00000

 Dipole moment (field-independent basis, Debye):
    X=              5.1614    Y=             -1.8774    Z=             -0.6708  Tot=              5.5331
 Quadrupole moment (field-independent basis, Debye-Ang):
   XX=           -124.1495   YY=            -90.8335   ZZ=            -94.6034
   XY=              8.3183   XZ=              2.1591   YZ=              1.4210

 Normal termination of Gaussian 16 at Thu May  6 07:43:42 2021.
