 Gaussian 16, Revision A.03,
 Gaussian 16:  EM64L-G16RevA.03 25-Dec-2016

 -------------
 #p 6-31g* mp2
 -------------

 ------------------------------------------------------
 Input file generated by CHIRIPA (05-May-2021 14:53:13)
 ------------------------------------------------------
 Symbolic Z-matrix:
 Charge =  0 Multiplicity = 1

                         Standard orientation:
 ---------------------------------------------------------------------
 Center     Atomic      Atomic             Coordinates (Angstroms)
 Number     Number       Type             X           Y           Z
 ---------------------------------------------------------------------
      1          6           0        3.414504   -0.516790    0.055708
      2          6           0        4.152164   -1.380398    1.079438
      3          6           0        3.845553   -2.870476    0.926303
      4          1           0        2.333178   -0.682395    0.156977
      5          1           0        3.687736   -0.846193   -0.956336
      6          1           0        3.878686   -1.048559    2.089245
      7          1           0        5.231849   -1.212573    0.975849
      8          1           0        4.135002   -3.223048   -0.068943
      9          1           0        2.774151   -3.058103    1.050779
     10          1           0        4.383264   -3.469294    1.668019
     11          6           0        3.710816    0.975267    0.196036
     12          6           0        2.973156    1.838875   -0.827694
     13          6           0        3.279767    3.328953   -0.674558
     14          1           0        3.437584    1.304670    1.208080
     15          1           0        4.792142    1.140873    0.094767
     16          1           0        1.893471    1.671050   -0.724105
     17          1           0        3.246634    1.507037   -1.837501
     18          1           0        4.351169    3.516580   -0.799035
     19          1           0        2.990318    3.681526    0.320687
     20          1           0        2.742056    3.927771   -1.416275
     21          6           0       -4.633150    1.047472    1.101505
     22          6           0       -4.932036   -0.059397    0.300238
     23          6           0       -3.915124   -0.746615   -0.369218
     24          6           0       -2.604494   -0.297673   -0.214334
     25          6           0       -2.274833    0.801722    0.576832
     26          6           0       -3.307839    1.473748    1.237006
     27          1           0       -5.429363    1.575418    1.617950
     28          1           0       -5.960383   -0.392690    0.193167
     29          1           0       -4.118388   -1.606521   -0.995847
     30          1           0       -1.240166    1.110349    0.664190
     31          1           0       -3.072772    2.333042    1.858618
     32          7           0       -1.519416   -1.017157   -0.918144
     33          8           0       -0.372821   -0.601699   -0.765333
     34          8           0       -1.836074   -1.982922   -1.609275
 ---------------------------------------------------------------------

 SCF Done:  E(RHF) =  -669.536107499     A.U. after   15 cycles
 E2 =    -0.2091473360D+01 EUMP2 =    -0.67162758085884D+03

 The electronic state is 1-A.
 Alpha  occ. eigenvalues --  -20.60998 -20.60982 -15.86029 -11.31333 -11.27900
 Alpha  occ. eigenvalues --  -11.27889 -11.27627 -11.26899 -11.26889 -11.20750
 Alpha  occ. eigenvalues --  -11.20679 -11.20551 -11.20525 -11.20152 -11.20094
 Alpha  occ. eigenvalues --   -1.60052  -1.39610  -1.19500  -1.08906  -1.07477
 Alpha  occ. eigenvalues --   -1.04895  -1.02690  -0.95752  -0.95141  -0.86296
 Alpha  occ. eigenvalues --   -0.86159  -0.82589  -0.78738  -0.77666  -0.77208
 Alpha  occ. eigenvalues --   -0.72251  -0.71364  -0.70609  -0.65161  -0.64897
 Alpha  occ. eigenvalues --   -0.64109  -0.62244  -0.60103  -0.58517  -0.56738
 Alpha  occ. eigenvalues --   -0.55398  -0.54440  -0.53226  -0.52987  -0.51883
 Alpha  occ. eigenvalues --   -0.51556  -0.49122  -0.49010  -0.48968  -0.47060
 Alpha  occ. eigenvalues --   -0.45790  -0.45035  -0.44803  -0.44597  -0.42900
 Alpha  occ. eigenvalues --   -0.37477  -0.36495
 Alpha virt. eigenvalues --    0.04866   0.11159   0.16354   0.20908   0.23417
 Alpha virt. eigenvalues --    0.24962   0.26273   0.27434   0.27887   0.28700
 Alpha virt. eigenvalues --    0.29211   0.30979   0.31756   0.32379   0.32488

 Mulliken charges:
               1
     1  C   -0.307715
     2  C   -0.298765
     3  C   -0.474862
     4  H    0.174921
     5  H    0.149616
     6  H    0.146646
     7  H    0.147578
     8  H    0.155846
     9  H    0.159049
    10  H    0.155045
    11  C   -0.297160
    12  C   -0.301947
    13  C   -0.475263
    14  H    0.142728
    15  H    0.145607
    16  H    0.160102
    17  H    0.153602
    18  H    0.153998
    19  H    0.149641
    20  H    0.157477
    21  C   -0.170509
    22  C   -0.218563
    23  C   -0.170562
    24  C    0.157481
    25  C   -0.170936
    26  C   -0.218619
    27  H    0.226184
    28  H    0.223983
    29  H    0.275977
    30  H    0.275652
    31  H    0.224109
    32  N    0.495329
    33  O   -0.467478
    34  O   -0.458192
 Sum of Mulliken charges =  -0.00000

 Dipole moment (field-independent basis, Debye):
    X=             -4.1502    Y=              2.4021    Z=              2.3613  Tot=              5.3451
 Quadrupole moment (field-independent basis, Debye-Ang):
   XX=            -73.2906   YY=            -96.5333   ZZ=            -95.5018
   XY=             -3.5983   XZ=             -5.2813   YZ=              0.4924

 Normal termination of Gaussian 16 at Thu May  6 15:23:16 2021.
