 Gaussian 16, Revision A.03,
 Gaussian 16:  EM64L-G16RevA.03 25-Dec-2016

 -------------
 #p 6-31g* mp2
 -------------

 ------------------------------------------------------
 Input file generated by CHIRIPA (05-May-2021 14:55:22)
 ------------------------------------------------------
 Symbolic Z-matrix:
 Charge =  0 Multiplicity = 1

                         Standard orientation:
 ---------------------------------------------------------------------
 Center     Atomic      Atomic             Coordinates (Angstroms)
 Number     Number       Type             X           Y           Z
 ---------------------------------------------------------------------
      1          6           0       -1.290222    2.689480    0.338570
      2          6           0       -0.708481    1.729690   -0.496237
      3          6           0       -1.366610    0.524531   -0.758925
      4          6           0       -2.610790    0.311185   -0.167496
      5          6           0       -3.216402    1.247877    0.668645
      6          6           0       -2.540123    2.445939    0.917326
      7          1           0       -0.771922    3.622920    0.537192
      8          1           0        0.262104    1.916117   -0.947076
      9          1           0       -0.939194   -0.235773   -1.401321
     10          1           0       -4.185026    1.033484    1.103639
     11          1           0       -2.994316    3.189514    1.566055
     12          7           0       -3.317129   -0.960907   -0.438178
     13          8           0       -4.412327   -1.124758    0.095050
     14          8           0       -2.762186   -1.770033   -1.178441
     15          6           0        3.459629   -0.083408   -0.257478
     16          6           0        4.824833    0.420150    0.212236
     17          6           0        5.345356    1.587156   -0.627373
     18          1           0        3.531361   -0.390316   -1.309907
     19          1           0        2.738872    0.745231   -0.221967
     20          1           0        5.542474   -0.409536    0.177165
     21          1           0        4.749890    0.725716    1.263725
     22          1           0        4.651480    2.432864   -0.583607
     23          1           0        5.448567    1.291162   -1.676342
     24          1           0        6.322446    1.931368   -0.274279
     25          6           0        2.925976   -1.249944    0.572062
     26          6           0        1.560772   -1.753502    0.102347
     27          6           0        1.040249   -2.920509    0.941956
     28          1           0        3.646734   -2.078583    0.536550
     29          1           0        2.854245   -0.943035    1.624491
     30          1           0        1.635715   -2.059068   -0.949142
     31          1           0        0.843131   -0.923817    0.137419
     32          1           0        0.937039   -2.624513    1.990925
     33          1           0        1.734125   -3.766215    0.898191
     34          1           0        0.063160   -3.264720    0.588862
 ---------------------------------------------------------------------

 SCF Done:  E(RHF) =  -669.535030097     A.U. after   15 cycles
 E2 =    -0.2093215590D+01 EUMP2 =    -0.67162824568752D+03

 The electronic state is 1-A.
 Alpha  occ. eigenvalues --  -20.60820 -20.60815 -15.85868 -11.31221 -11.27810
 Alpha  occ. eigenvalues --  -11.27767 -11.27551 -11.26813 -11.26796 -11.22062
 Alpha  occ. eigenvalues --  -11.21925 -11.21717 -11.21636 -11.21574 -11.20902
 Alpha  occ. eigenvalues --   -1.59890  -1.39443  -1.19413  -1.08805  -1.08786
 Alpha  occ. eigenvalues --   -1.04822  -1.03793  -0.96238  -0.95638  -0.87249
 Alpha  occ. eigenvalues --   -0.86207  -0.82476  -0.79902  -0.78654  -0.77492
 Alpha  occ. eigenvalues --   -0.72086  -0.71211  -0.70519  -0.65441  -0.65056
 Alpha  occ. eigenvalues --   -0.64814  -0.62178  -0.61186  -0.59610  -0.57845
 Alpha  occ. eigenvalues --   -0.55544  -0.55313  -0.53179  -0.52913  -0.52867
 Alpha  occ. eigenvalues --   -0.52638  -0.50185  -0.48845  -0.48844  -0.48180
 Alpha  occ. eigenvalues --   -0.46941  -0.46149  -0.46074  -0.44845  -0.44054
 Alpha  occ. eigenvalues --   -0.37393  -0.36331
 Alpha virt. eigenvalues --    0.04975   0.11160   0.16344   0.20346   0.22755
 Alpha virt. eigenvalues --    0.23958   0.25029   0.26320   0.27338   0.28332
 Alpha virt. eigenvalues --    0.29227   0.30852   0.31219   0.31534   0.31950

 Mulliken charges:
               1
     1  C   -0.170954
     2  C   -0.221589
     3  C   -0.171762
     4  C    0.156914
     5  C   -0.170914
     6  C   -0.218605
     7  H    0.225850
     8  H    0.227677
     9  H    0.280376
    10  H    0.275796
    11  H    0.223607
    12  N    0.488421
    13  O   -0.459991
    14  O   -0.460817
    15  C   -0.299721
    16  C   -0.299657
    17  C   -0.475390
    18  H    0.150275
    19  H    0.140537
    20  H    0.154947
    21  H    0.152524
    22  H    0.150519
    23  H    0.156201
    24  H    0.162302
    25  C   -0.296922
    26  C   -0.308404
    27  C   -0.479001
    28  H    0.151862
    29  H    0.150165
    30  H    0.151536
    31  H    0.152256
    32  H    0.153782
    33  H    0.155224
    34  H    0.172958
 Sum of Mulliken charges =  -0.00000

 Dipole moment (field-independent basis, Debye):
    X=              2.4521    Y=              4.3846    Z=              0.9781  Tot=              5.1181
 Quadrupole moment (field-independent basis, Debye-Ang):
   XX=           -105.0031   YY=            -92.1091   ZZ=            -93.8238
   XY=            -13.1582   XZ=             -5.4824   YZ=              1.4375

 Normal termination of Gaussian 16 at Thu May  6 19:14:08 2021.
