 Gaussian 16, Revision A.03,
 Gaussian 16:  EM64L-G16RevA.03 25-Dec-2016

 -------------
 #p 6-31g* mp2
 -------------

 ------------------------------------------------------
 Input file generated by CHIRIPA (05-May-2021 14:51:13)
 ------------------------------------------------------
 Symbolic Z-matrix:
 Charge =  0 Multiplicity = 1

                         Standard orientation:
 ---------------------------------------------------------------------
 Center     Atomic      Atomic             Coordinates (Angstroms)
 Number     Number       Type             X           Y           Z
 ---------------------------------------------------------------------
      1          6           0       -3.609678   -0.566416    0.394950
      2          6           0       -3.890396   -1.747410   -0.534801
      3          6           0       -4.000170   -3.076055    0.213827
      4          1           0       -2.678968   -0.755799    0.947090
      5          1           0       -4.410146   -0.500770    1.144841
      6          1           0       -3.090361   -1.809967   -1.283564
      7          1           0       -4.820445   -1.555106   -1.084932
      8          1           0       -4.810479   -3.038163    0.949059
      9          1           0       -3.070564   -3.294471    0.749298
     10          1           0       -4.201037   -3.906718   -0.469920
     11          6           0       -3.497219    0.768800   -0.338725
     12          6           0       -3.216500    1.949793    0.591026
     13          6           0       -3.106727    3.278439   -0.157602
     14          1           0       -2.696751    0.703154   -1.088616
     15          1           0       -4.427929    0.958183   -0.890865
     16          1           0       -2.286451    1.757490    1.141157
     17          1           0       -4.016536    2.012351    1.339789
     18          1           0       -4.036332    3.496855   -0.693073
     19          1           0       -2.296418    3.240546   -0.892834
     20          1           0       -2.905859    4.109102    0.526145
     21          6           0        4.222674    0.264023   -0.074875
     22          6           0        5.428992   -0.650903    0.138879
     23          6           0        6.760592    0.094290    0.042328
     24          1           0        4.304950    0.744698   -1.059317
     25          1           0        4.246991    1.071323    0.670155
     26          1           0        5.401654   -1.457023   -0.605458
     27          1           0        5.343738   -1.129602    1.122848
     28          1           0        6.813615    0.887498    0.795064
     29          1           0        6.871861    0.558215   -0.943063
     30          1           0        7.609492   -0.578697    0.198270
     31          6           0        2.884222   -0.466407    0.018650
     32          6           0        1.677905    0.448519   -0.195104
     33          6           0        0.346304   -0.296673   -0.098553
     34          1           0        2.859906   -1.273707   -0.726381
     35          1           0        2.801947   -0.947082    1.003093
     36          1           0        1.763159    0.927218   -1.179072
     37          1           0        1.705242    1.254640    0.549233
     38          1           0        0.235035   -0.760599    0.886837
     39          1           0        0.293282   -1.089882   -0.851288
     40          1           0       -0.502595    0.376313   -0.254495
 ---------------------------------------------------------------------

 SCF Done:  E(RHF) =  -470.732732047     A.U. after   11 cycles
 E2 =    -0.1583737919D+01 EUMP2 =    -0.47231646996550D+03

 The electronic state is 1-A.
 Alpha  occ. eigenvalues --  -11.21672 -11.21629 -11.21579 -11.21523 -11.21449
 Alpha  occ. eigenvalues --  -11.21388 -11.21336 -11.21255 -11.21144 -11.21092
 Alpha  occ. eigenvalues --  -11.21069 -11.21009  -1.08486  -1.08374  -1.03587
 Alpha  occ. eigenvalues --   -1.03485  -0.96063  -0.95913  -0.87066  -0.86949
 Alpha  occ. eigenvalues --   -0.79658  -0.79544  -0.78290  -0.78189  -0.65122
 Alpha  occ. eigenvalues --   -0.65085  -0.60988  -0.60926  -0.59366  -0.59299
 Alpha  occ. eigenvalues --   -0.57643  -0.57538  -0.55332  -0.55242  -0.52713
 Alpha  occ. eigenvalues --   -0.52624  -0.52465  -0.52343  -0.49991  -0.49870
 Alpha  occ. eigenvalues --   -0.48001  -0.47820  -0.46700  -0.46583  -0.45856
 Alpha  occ. eigenvalues --   -0.45767  -0.45725  -0.45589  -0.43802  -0.43715
 Alpha virt. eigenvalues --    0.20635   0.23006   0.23660   0.24832   0.26131
 Alpha virt. eigenvalues --    0.26411   0.27328   0.27556   0.27897   0.29651
 Alpha virt. eigenvalues --    0.30227   0.30842   0.31750   0.31791   0.32199

 Mulliken charges:
               1
     1  C   -0.300909
     2  C   -0.299812
     3  C   -0.475743
     4  H    0.154752
     5  H    0.148930
     6  H    0.152678
     7  H    0.151370
     8  H    0.154839
     9  H    0.155397
    10  H    0.159866
    11  C   -0.302278
    12  C   -0.302388
    13  C   -0.475644
    14  H    0.150519
    15  H    0.150665
    16  H    0.153291
    17  H    0.152452
    18  H    0.155409
    19  H    0.154668
    20  H    0.160257
    21  C   -0.298283
    22  C   -0.299664
    23  C   -0.475731
    24  H    0.149731
    25  H    0.149634
    26  H    0.151977
    27  H    0.151993
    28  H    0.155240
    29  H    0.155228
    30  H    0.160356
    31  C   -0.298735
    32  C   -0.299790
    33  C   -0.484458
    34  H    0.149621
    35  H    0.149732
    36  H    0.151980
    37  H    0.152188
    38  H    0.154958
    39  H    0.155225
    40  H    0.170481
 Sum of Mulliken charges =  -0.00000

 Dipole moment (field-independent basis, Debye):
    X=              0.0302    Y=             -0.0001    Z=              0.0049  Tot=              0.0306
 Quadrupole moment (field-independent basis, Debye-Ang):
   XX=            -84.9695   YY=            -86.0249   ZZ=            -83.9083
   XY=             -0.6947   XZ=             -0.0836   YZ=              0.6432

 Normal termination of Gaussian 16 at Thu May  6 02:23:37 2021.
