 Gaussian 16, Revision A.03,
 Gaussian 16:  EM64L-G16RevA.03 25-Dec-2016

 -------------
 #p 6-31g* mp2
 -------------

 ------------------------------------------------------
 Input file generated by CHIRIPA (05-May-2021 14:51:14)
 ------------------------------------------------------
 Symbolic Z-matrix:
 Charge =  0 Multiplicity = 1

                         Standard orientation:
 ---------------------------------------------------------------------
 Center     Atomic      Atomic             Coordinates (Angstroms)
 Number     Number       Type             X           Y           Z
 ---------------------------------------------------------------------
      1          6           0       -3.855954    0.573421    0.236752
      2          6           0       -3.904455    1.955354   -0.415853
      3          6           0       -4.628021    2.990835    0.445556
      4          1           0       -4.881203    0.233541    0.437477
      5          1           0       -3.356614    0.653605    1.212265
      6          1           0       -4.402323    1.872339   -1.390457
      7          1           0       -2.878978    2.291900   -0.615223
      8          1           0       -4.129064    3.103045    1.413571
      9          1           0       -5.661065    2.681100    0.633932
     10          1           0       -4.651026    3.971452   -0.039954
     11          6           0       -3.135765   -0.472579   -0.612330
     12          6           0       -3.087264   -1.854512    0.040275
     13          6           0       -2.363698   -2.889993   -0.821134
     14          1           0       -3.635105   -0.552764   -1.587843
     15          1           0       -2.110516   -0.132699   -0.813056
     16          1           0       -4.112741   -2.191059    0.239645
     17          1           0       -2.589396   -1.771498    1.014878
     18          1           0       -1.330654   -2.580258   -1.009511
     19          1           0       -2.862655   -3.002203   -1.789149
     20          1           0       -2.340692   -3.870610   -0.335625
     21          6           0        3.878420    0.555035   -0.077732
     22          6           0        5.393449    0.350391   -0.105867
     23          6           0        6.144948    1.570346   -0.639490
     24          1           0        3.527494    0.788798   -1.092203
     25          1           0        3.645227    1.431027    0.543279
     26          1           0        5.623624   -0.525778   -0.725516
     27          1           0        5.740784    0.116900    0.908754
     28          1           0        5.944549    2.448701   -0.017451
     29          1           0        5.826723    1.802373   -1.661006
     30          1           0        7.226382    1.402328   -0.650943
     31          6           0        3.113299   -0.655878    0.453310
     32          6           0        1.598270   -0.451233    0.481445
     33          6           0        0.846771   -1.671188    1.015068
     34          1           0        3.346492   -1.531869   -0.167701
     35          1           0        3.464225   -0.889639    1.467781
     36          1           0        1.250935   -0.217742   -0.533176
     37          1           0        1.368095    0.424936    1.101094
     38          1           0        1.164996   -1.903215    2.036585
     39          1           0        1.047170   -2.549543    0.393029
     40          1           0       -0.234663   -1.503170    1.026522
 ---------------------------------------------------------------------

 SCF Done:  E(RHF) =  -470.732560883     A.U. after   11 cycles
 E2 =    -0.1583603949D+01 EUMP2 =    -0.47231616483166D+03

 The electronic state is 1-A.
 Alpha  occ. eigenvalues --  -11.21662 -11.21622 -11.21596 -11.21588 -11.21438
 Alpha  occ. eigenvalues --  -11.21405 -11.21377 -11.21345 -11.21087 -11.21067
 Alpha  occ. eigenvalues --  -11.21063 -11.20980  -1.08476  -1.08419  -1.03607
 Alpha  occ. eigenvalues --   -1.03480  -0.96058  -0.95916  -0.87052  -0.86957
 Alpha  occ. eigenvalues --   -0.79631  -0.79581  -0.78282  -0.78237  -0.65158
 Alpha  occ. eigenvalues --   -0.65055  -0.61174  -0.60890  -0.59329  -0.59270
 Alpha  occ. eigenvalues --   -0.57599  -0.57566  -0.55458  -0.55111  -0.52670
 Alpha  occ. eigenvalues --   -0.52651  -0.52429  -0.52362  -0.50099  -0.49749
 Alpha  occ. eigenvalues --   -0.47987  -0.47848  -0.46703  -0.46562  -0.45843
 Alpha  occ. eigenvalues --   -0.45770  -0.45742  -0.45687  -0.43808  -0.43744
 Alpha virt. eigenvalues --    0.20442   0.23059   0.23754   0.25152   0.26196
 Alpha virt. eigenvalues --    0.26410   0.26969   0.27312   0.28105   0.29195
 Alpha virt. eigenvalues --    0.30723   0.31153   0.31531   0.31802   0.32281

 Mulliken charges:
               1
     1  C   -0.298052
     2  C   -0.299744
     3  C   -0.475702
     4  H    0.149763
     5  H    0.149249
     6  H    0.151890
     7  H    0.152211
     8  H    0.155164
     9  H    0.155161
    10  H    0.160252
    11  C   -0.300555
    12  C   -0.303759
    13  C   -0.478612
    14  H    0.149901
    15  H    0.150987
    16  H    0.153243
    17  H    0.152812
    18  H    0.160281
    19  H    0.154468
    20  H    0.160171
    21  C   -0.298289
    22  C   -0.299678
    23  C   -0.475729
    24  H    0.149682
    25  H    0.149488
    26  H    0.152029
    27  H    0.151988
    28  H    0.155185
    29  H    0.155229
    30  H    0.160342
    31  C   -0.298558
    32  C   -0.300582
    33  C   -0.484389
    34  H    0.149812
    35  H    0.149923
    36  H    0.151785
    37  H    0.151739
    38  H    0.155216
    39  H    0.156138
    40  H    0.169540
 Sum of Mulliken charges =  -0.00000

 Dipole moment (field-independent basis, Debye):
    X=              0.0130    Y=             -0.0078    Z=              0.0009  Tot=              0.0152
 Quadrupole moment (field-independent basis, Debye-Ang):
   XX=            -84.7328   YY=            -85.9747   ZZ=            -84.0674
   XY=              0.0918   XZ=              0.9552   YZ=              0.3155

 Normal termination of Gaussian 16 at Wed May  5 23:16:52 2021.
