 Gaussian 16, Revision A.03,
 Gaussian 16:  EM64L-G16RevA.03 25-Dec-2016

 -------------
 #p 6-31g* mp2
 -------------

 ------------------------------------------------------
 Input file generated by CHIRIPA (05-May-2021 14:55:22)
 ------------------------------------------------------
 Symbolic Z-matrix:
 Charge =  0 Multiplicity = 1

                         Standard orientation:
 ---------------------------------------------------------------------
 Center     Atomic      Atomic             Coordinates (Angstroms)
 Number     Number       Type             X           Y           Z
 ---------------------------------------------------------------------
      1          6           0       -6.017957    0.508919    0.851960
      2          6           0       -5.328665   -0.655644    1.205784
      3          6           0       -4.035750   -0.888475    0.727550
      4          6           0       -3.459773    0.068742   -0.106283
      5          6           0       -4.120822    1.238809   -0.476751
      6          6           0       -5.412903    1.450768    0.013300
      7          1           0       -7.022001    0.681681    1.228053
      8          1           0       -5.796075   -1.388838    1.856937
      9          1           0       -3.479438   -1.781406    0.985635
     10          1           0       -3.628714    1.951343   -1.127553
     11          1           0       -5.945838    2.356087   -0.263144
     12          7           0       -2.091464   -0.166698   -0.618823
     13          8           0       -1.606123    0.692104   -1.351994
     14          8           0       -1.530233   -1.205579   -0.277676
     15          6           0        5.329852   -0.094569    0.482003
     16          6           0        6.335067    0.971332    0.044532
     17          6           0        7.555329    1.045448    0.962825
     18          1           0        5.004721    0.117007    1.509851
     19          1           0        5.830585   -1.072325    0.507574
     20          1           0        5.832232    1.946572    0.018458
     21          1           0        6.657697    0.757302   -0.982463
     22          1           0        8.082412    0.086051    0.981280
     23          1           0        7.252257    1.282079    1.987888
     24          1           0        8.260873    1.813841    0.631705
     25          6           0        4.104484   -0.180747   -0.426170
     26          6           0        3.099269   -1.246648    0.011302
     27          6           0        1.879007   -1.320764   -0.906992
     28          1           0        3.603751    0.797009   -0.451740
     29          1           0        4.429614   -0.392323   -1.454016
     30          1           0        2.776638   -1.032618    1.038297
     31          1           0        3.602103   -2.221889    0.037375
     32          1           0        2.182079   -1.557394   -1.932055
     33          1           0        1.351924   -0.361367   -0.925446
     34          1           0        1.173463   -2.089157   -0.575872
 ---------------------------------------------------------------------

 SCF Done:  E(RHF) =  -669.535850459     A.U. after   15 cycles
 E2 =    -0.2091506163D+01 EUMP2 =    -0.67162735662184D+03

 The electronic state is 1-A.
 Alpha  occ. eigenvalues --  -20.60980 -20.60963 -15.85996 -11.31319 -11.27879
 Alpha  occ. eigenvalues --  -11.27875 -11.27614 -11.26884 -11.26874 -11.20875
 Alpha  occ. eigenvalues --  -11.20489 -11.20483 -11.20206 -11.20089 -11.18822
 Alpha  occ. eigenvalues --   -1.60023  -1.39581  -1.19484  -1.08888  -1.07361
 Alpha  occ. eigenvalues --   -1.04879  -1.02328  -0.95735  -0.94726  -0.86280
 Alpha  occ. eigenvalues --   -0.85733  -0.82565  -0.78445  -0.77619  -0.77109
 Alpha  occ. eigenvalues --   -0.72214  -0.71338  -0.70592  -0.65139  -0.64882
 Alpha  occ. eigenvalues --   -0.64010  -0.62226  -0.59742  -0.58215  -0.56326
 Alpha  occ. eigenvalues --   -0.55389  -0.54041  -0.53210  -0.52971  -0.51429
 Alpha  occ. eigenvalues --   -0.51159  -0.49151  -0.48953  -0.48432  -0.46718
 Alpha  occ. eigenvalues --   -0.45498  -0.44994  -0.44644  -0.44527  -0.42528
 Alpha  occ. eigenvalues --   -0.37462  -0.36480
 Alpha virt. eigenvalues --    0.04908   0.11175   0.16410   0.21312   0.23833
 Alpha virt. eigenvalues --    0.25599   0.27230   0.27654   0.28185   0.28477
 Alpha virt. eigenvalues --    0.29417   0.30888   0.32386   0.32579   0.32716

 Mulliken charges:
               1
     1  C   -0.170569
     2  C   -0.218554
     3  C   -0.170852
     4  C    0.158609
     5  C   -0.170602
     6  C   -0.218587
     7  H    0.226065
     8  H    0.223895
     9  H    0.275713
    10  H    0.275886
    11  H    0.223894
    12  N    0.489549
    13  O   -0.459785
    14  O   -0.458510
    15  C   -0.297032
    16  C   -0.298770
    17  C   -0.475029
    18  H    0.147447
    19  H    0.147331
    20  H    0.151145
    21  H    0.151022
    22  H    0.154078
    23  H    0.153871
    24  H    0.158013
    25  C   -0.297138
    26  C   -0.301003
    27  C   -0.474662
    28  H    0.149722
    29  H    0.147496
    30  H    0.147563
    31  H    0.144733
    32  H    0.144303
    33  H    0.169314
    34  H    0.171444
 Sum of Mulliken charges =  -0.00000

 Dipole moment (field-independent basis, Debye):
    X=             -5.2969    Y=              0.8415    Z=              1.7734  Tot=              5.6489
 Quadrupole moment (field-independent basis, Debye-Ang):
   XX=            -64.3424   YY=            -90.7209   ZZ=            -94.7283
   XY=             -3.8417   XZ=             -6.7600   YZ=             -2.2351

 Normal termination of Gaussian 16 at Wed May  5 18:59:34 2021.
