 Gaussian 16, Revision A.03,
 Gaussian 16:  EM64L-G16RevA.03 25-Dec-2016

 -------------
 #p 6-31g* mp2
 -------------

 ------------------------------------------------------
 Input file generated by CHIRIPA (05-May-2021 14:55:22)
 ------------------------------------------------------
 Symbolic Z-matrix:
 Charge =  0 Multiplicity = 1

                         Standard orientation:
 ---------------------------------------------------------------------
 Center     Atomic      Atomic             Coordinates (Angstroms)
 Number     Number       Type             X           Y           Z
 ---------------------------------------------------------------------
      1          6           0       -2.583894    2.286420    0.540415
      2          6           0       -3.850473    1.734165    0.757929
      3          6           0       -4.095672    0.387033    0.475685
      4          6           0       -3.046660   -0.382309   -0.025290
      5          6           0       -1.773874    0.138829   -0.252715
      6          6           0       -1.551457    1.488396    0.036676
      7          1           0       -2.402266    3.333850    0.762445
      8          1           0       -4.654162    2.351539    1.149055
      9          1           0       -5.066632   -0.066170    0.634626
     10          1           0       -0.992570   -0.501693   -0.643498
     11          1           0       -0.566810    1.914595   -0.133238
     12          7           0       -3.294182   -1.809746   -0.327872
     13          8           0       -2.353241   -2.466352   -0.768480
     14          8           0       -4.424444   -2.244937   -0.118698
     15          6           0        3.826806   -0.575320   -0.029345
     16          6           0        5.095085   -1.214726    0.536881
     17          6           0        5.038543   -2.742662    0.534478
     18          1           0        2.960808   -0.912536    0.556553
     19          1           0        3.669499   -0.935727   -1.055384
     20          1           0        5.250710   -0.852151    1.561057
     21          1           0        5.958189   -0.875798   -0.050313
     22          1           0        4.907323   -3.121705   -0.484202
     23          1           0        4.195825   -3.097923    1.136325
     24          1           0        5.955229   -3.178969    0.943357
     25          6           0        3.868209    0.951768   -0.033578
     26          6           0        2.599929    1.591174   -0.599804
     27          6           0        2.656473    3.119111   -0.597401
     28          1           0        4.025516    1.312176    0.992461
     29          1           0        4.734208    1.288984   -0.619475
     30          1           0        1.736827    1.252246   -0.012610
     31          1           0        2.444306    1.228599   -1.623980
     32          1           0        3.499191    3.474372   -1.199247
     33          1           0        2.787692    3.498154    0.421279
     34          1           0        1.739785    3.555417   -1.006279
 ---------------------------------------------------------------------

 SCF Done:  E(RHF) =  -669.535582530     A.U. after   15 cycles
 E2 =    -0.2091311747D+01 EUMP2 =    -0.67162689427729D+03

 The electronic state is 1-A.
 Alpha  occ. eigenvalues --  -20.60726 -20.60721 -15.85779 -11.31136 -11.27710
 Alpha  occ. eigenvalues --  -11.27689 -11.27442 -11.26724 -11.26666 -11.22556
 Alpha  occ. eigenvalues --  -11.22033 -11.21997 -11.21864 -11.21765 -11.21174
 Alpha  occ. eigenvalues --   -1.59802  -1.39355  -1.19307  -1.08991  -1.08703
 Alpha  occ. eigenvalues --   -1.04709  -1.04095  -0.96519  -0.95540  -0.87533
 Alpha  occ. eigenvalues --   -0.86107  -0.82377  -0.80207  -0.78753  -0.77415
 Alpha  occ. eigenvalues --   -0.71997  -0.71125  -0.70416  -0.65646  -0.64957
 Alpha  occ. eigenvalues --   -0.64714  -0.62126  -0.61435  -0.59929  -0.58123
 Alpha  occ. eigenvalues --   -0.55783  -0.55206  -0.53246  -0.53042  -0.52942
 Alpha  occ. eigenvalues --   -0.52780  -0.50447  -0.48759  -0.48752  -0.48490
 Alpha  occ. eigenvalues --   -0.47224  -0.46291  -0.46176  -0.44762  -0.44332
 Alpha  occ. eigenvalues --   -0.37291  -0.36309
 Alpha virt. eigenvalues --    0.05104   0.11328   0.16560   0.19597   0.22722
 Alpha virt. eigenvalues --    0.23662   0.25468   0.26284   0.26428   0.28605
 Alpha virt. eigenvalues --    0.29185   0.30466   0.30800   0.31290   0.32350

 Mulliken charges:
               1
     1  C   -0.171889
     2  C   -0.218460
     3  C   -0.171198
     4  C    0.158735
     5  C   -0.173637
     6  C   -0.226809
     7  H    0.225813
     8  H    0.223143
     9  H    0.275400
    10  H    0.276109
    11  H    0.235008
    12  N    0.488092
    13  O   -0.460411
    14  O   -0.460725
    15  C   -0.299794
    16  C   -0.300224
    17  C   -0.476382
    18  H    0.150449
    19  H    0.151624
    20  H    0.152090
    21  H    0.152319
    22  H    0.156893
    23  H    0.157490
    24  H    0.161123
    25  C   -0.297649
    26  C   -0.306082
    27  C   -0.478218
    28  H    0.150914
    29  H    0.152456
    30  H    0.144636
    31  H    0.155638
    32  H    0.161510
    33  H    0.157211
    34  H    0.154824
 Sum of Mulliken charges =  -0.00000

 Dipole moment (field-independent basis, Debye):
    X=              1.0881    Y=              4.9910    Z=              1.0573  Tot=              5.2165
 Quadrupole moment (field-independent basis, Debye-Ang):
   XX=            -94.6508   YY=           -100.2985   ZZ=            -94.2726
   XY=            -16.2663   XZ=             -5.4365   YZ=             -0.2670

 Normal termination of Gaussian 16 at Thu May  6 15:52:52 2021.
