 Gaussian 16, Revision A.03,
 Gaussian 16:  EM64L-G16RevA.03 25-Dec-2016

 -------------
 #p 6-31g* mp2
 -------------

 ------------------------------------------------------
 Input file generated by CHIRIPA (05-May-2021 14:53:17)
 ------------------------------------------------------
 Symbolic Z-matrix:
 Charge =  0 Multiplicity = 1

                         Standard orientation:
 ---------------------------------------------------------------------
 Center     Atomic      Atomic             Coordinates (Angstroms)
 Number     Number       Type             X           Y           Z
 ---------------------------------------------------------------------
      1          6           0        3.792988   -0.638091   -0.229313
      2          6           0        4.978030   -1.598406   -0.122292
      3          6           0        4.745379   -2.910336   -0.872297
      4          1           0        2.892915   -1.131409    0.162415
      5          1           0        3.596715   -0.425669   -1.289383
      6          1           0        5.172884   -1.807865    0.937319
      7          1           0        5.875426   -1.102676   -0.514143
      8          1           0        4.572856   -2.720278   -1.936588
      9          1           0        3.866323   -3.429474   -0.476879
     10          1           0        5.604890   -3.581939   -0.782570
     11          6           0        4.010511    0.677920    0.515354
     12          6           0        2.825469    1.638236    0.408332
     13          6           0        3.058119    2.950165    1.158338
     14          1           0        4.206784    0.465499    1.575424
     15          1           0        4.910584    1.171238    0.123625
     16          1           0        1.928073    1.142505    0.800184
     17          1           0        2.630614    1.847694   -0.651278
     18          1           0        3.937176    3.469304    0.762919
     19          1           0        3.230643    2.760108    2.222629
     20          1           0        2.198609    3.621768    1.068611
     21          6           0       -4.870092   -1.432108    0.908154
     22          6           0       -3.556891   -1.535514    1.378616
     23          6           0       -2.539428   -0.755543    0.820977
     24          6           0       -2.872112    0.121389   -0.210334
     25          6           0       -4.170932    0.247117   -0.700793
     26          6           0       -5.172387   -0.542691   -0.128222
     27          1           0       -5.654265   -2.041829    1.347142
     28          1           0       -3.319211   -2.225395    2.183363
     29          1           0       -1.514362   -0.815564    1.166023
     30          1           0       -4.377165    0.943807   -1.504229
     31          1           0       -6.191352   -0.460285   -0.495599
     32          7           0       -1.803442    0.952315   -0.808585
     33          8           0       -2.122455    1.717311   -1.716138
     34          8           0       -0.667041    0.822868   -0.358614
 ---------------------------------------------------------------------

 SCF Done:  E(RHF) =  -669.535697981     A.U. after   15 cycles
 E2 =    -0.2090977649D+01 EUMP2 =    -0.67162667563014D+03

 The electronic state is 1-A.
 Alpha  occ. eigenvalues --  -20.60886 -20.60881 -15.85931 -11.31278 -11.27850
 Alpha  occ. eigenvalues --  -11.27840 -11.27585 -11.26859 -11.26848 -11.20991
 Alpha  occ. eigenvalues --  -11.20602 -11.20538 -11.20387 -11.20120 -11.19943
 Alpha  occ. eigenvalues --   -1.59955  -1.39511  -1.19449  -1.08848  -1.07504
 Alpha  occ. eigenvalues --   -1.04851  -1.02598  -0.95687  -0.95110  -0.86250
 Alpha  occ. eigenvalues --   -0.86135  -0.82524  -0.78674  -0.77588  -0.77213
 Alpha  occ. eigenvalues --   -0.72149  -0.71273  -0.70559  -0.65106  -0.64854
 Alpha  occ. eigenvalues --   -0.64151  -0.62199  -0.60006  -0.58484  -0.56669
 Alpha  occ. eigenvalues --   -0.55352  -0.54429  -0.53180  -0.52943  -0.51815
 Alpha  occ. eigenvalues --   -0.51521  -0.49093  -0.48920  -0.48906  -0.46963
 Alpha  occ. eigenvalues --   -0.45719  -0.44929  -0.44772  -0.44668  -0.42862
 Alpha  occ. eigenvalues --   -0.37429  -0.36453
 Alpha virt. eigenvalues --    0.04961   0.11202   0.16454   0.21261   0.23654
 Alpha virt. eigenvalues --    0.25158   0.26923   0.27473   0.27951   0.28713
 Alpha virt. eigenvalues --    0.28932   0.30884   0.32031   0.32387   0.32908

 Mulliken charges:
               1
     1  C   -0.295950
     2  C   -0.298958
     3  C   -0.474694
     4  H    0.148201
     5  H    0.152203
     6  H    0.149038
     7  H    0.150970
     8  H    0.155648
     9  H    0.152563
    10  H    0.157683
    11  C   -0.298958
    12  C   -0.299894
    13  C   -0.476292
    14  H    0.143699
    15  H    0.145922
    16  H    0.165772
    17  H    0.158895
    18  H    0.150429
    19  H    0.148376
    20  H    0.163169
    21  C   -0.170700
    22  C   -0.218457
    23  C   -0.170457
    24  C    0.157720
    25  C   -0.170755
    26  C   -0.218518
    27  H    0.225933
    28  H    0.223693
    29  H    0.274813
    30  H    0.275850
    31  H    0.223769
    32  N    0.494423
    33  O   -0.459669
    34  O   -0.465468
 Sum of Mulliken charges =  -0.00000

 Dipole moment (field-independent basis, Debye):
    X=             -4.0616    Y=             -2.8813    Z=              2.0108  Tot=              5.3704
 Quadrupole moment (field-independent basis, Debye-Ang):
   XX=            -72.2564   YY=            -96.5340   ZZ=            -93.8938
   XY=              6.7932   XZ=             -3.7093   YZ=             -1.7934

 Normal termination of Gaussian 16 at Thu May  6 02:46:58 2021.
