 Gaussian 16, Revision A.03,
 Gaussian 16:  EM64L-G16RevA.03 25-Dec-2016

 -------------
 #p 6-31g* mp2
 -------------

 ------------------------------------------------------
 Input file generated by CHIRIPA (05-May-2021 14:51:14)
 ------------------------------------------------------
 Symbolic Z-matrix:
 Charge =  0 Multiplicity = 1

                         Standard orientation:
 ---------------------------------------------------------------------
 Center     Atomic      Atomic             Coordinates (Angstroms)
 Number     Number       Type             X           Y           Z
 ---------------------------------------------------------------------
      1          6           0       -3.167157    0.011510    0.069581
      2          6           0       -4.555674   -0.382845   -0.434887
      3          6           0       -4.856893   -1.868628   -0.236112
      4          1           0       -2.410104   -0.590465   -0.451421
      5          1           0       -3.086996   -0.240331    1.136139
      6          1           0       -4.633673   -0.129066   -1.499841
      7          1           0       -5.309497    0.220273    0.087239
      8          1           0       -4.806526   -2.133314    0.825022
      9          1           0       -4.126861   -2.484638   -0.771076
     10          1           0       -5.854457   -2.128698   -0.603659
     11          6           0       -2.851340    1.493807   -0.122210
     12          6           0       -1.462823    1.888162    0.382258
     13          6           0       -1.161604    3.373945    0.183483
     14          1           0       -2.931501    1.745648   -1.188768
     15          1           0       -3.608393    2.095781    0.398792
     16          1           0       -0.709000    1.285044   -0.139868
     17          1           0       -1.384825    1.634383    1.447212
     18          1           0       -1.891636    3.989955    0.718447
     19          1           0       -1.211971    3.638631   -0.877651
     20          1           0       -0.164040    3.634015    0.551030
     21          6           0        2.409371   -1.125546   -0.264430
     22          6           0        1.428685   -1.619601    0.799597
     23          6           0        0.233887   -2.363654    0.202408
     24          1           0        1.878673   -0.466998   -0.965585
     25          1           0        2.766345   -1.983564   -0.850751
     26          1           0        1.074726   -0.761077    1.384631
     27          1           0        1.961824   -2.276898    1.498410
     28          1           0        0.568984   -3.237723   -0.365319
     29          1           0       -0.323154   -1.713289   -0.479744
     30          1           0       -0.454368   -2.708026    0.980594
     31          6           0        3.609127   -0.379770    0.317059
     32          6           0        4.589811    0.114284   -0.746968
     33          6           0        5.784610    0.858337   -0.149779
     34          1           0        3.252152    0.478246    0.903379
     35          1           0        4.139825   -1.038320    1.018214
     36          1           0        4.056674    0.771581   -1.445782
     37          1           0        4.943771   -0.744239   -1.332002
     38          1           0        6.341651    0.207973    0.532374
     39          1           0        5.449513    1.732406    0.417948
     40          1           0        6.472865    1.202710   -0.927965
 ---------------------------------------------------------------------

 SCF Done:  E(RHF) =  -470.733122073     A.U. after   11 cycles
 E2 =    -0.1583481252D+01 EUMP2 =    -0.47231660332532D+03

 The electronic state is 1-A.
 Alpha  occ. eigenvalues --  -11.21667 -11.21601 -11.21583 -11.21565 -11.21411
 Alpha  occ. eigenvalues --  -11.21404 -11.21344 -11.21323 -11.21127 -11.21070
 Alpha  occ. eigenvalues --  -11.21044 -11.21025  -1.08457  -1.08409  -1.03547
 Alpha  occ. eigenvalues --   -1.03515  -0.96009  -0.95951  -0.87031  -0.86963
 Alpha  occ. eigenvalues --   -0.79644  -0.79551  -0.78281  -0.78211  -0.65184
 Alpha  occ. eigenvalues --   -0.64961  -0.60954  -0.60910  -0.59368  -0.59323
 Alpha  occ. eigenvalues --   -0.57628  -0.57561  -0.55397  -0.55159  -0.52697
 Alpha  occ. eigenvalues --   -0.52661  -0.52445  -0.52361  -0.50055  -0.49816
 Alpha  occ. eigenvalues --   -0.47955  -0.47895  -0.46697  -0.46621  -0.45927
 Alpha  occ. eigenvalues --   -0.45777  -0.45688  -0.45416  -0.43796  -0.43768
 Alpha virt. eigenvalues --    0.20135   0.23060   0.23986   0.24225   0.25650
 Alpha virt. eigenvalues --    0.26384   0.27176   0.27716   0.28079   0.29479
 Alpha virt. eigenvalues --    0.31015   0.31233   0.31714   0.31818   0.32173

 Mulliken charges:
               1
     1  C   -0.304328
     2  C   -0.299212
     3  C   -0.475811
     4  H    0.156968
     5  H    0.149299
     6  H    0.151599
     7  H    0.151706
     8  H    0.154997
     9  H    0.155882
    10  H    0.160085
    11  C   -0.298120
    12  C   -0.302585
    13  C   -0.475640
    14  H    0.149246
    15  H    0.149811
    16  H    0.153457
    17  H    0.152261
    18  H    0.155643
    19  H    0.155289
    20  H    0.159915
    21  C   -0.299263
    22  C   -0.300840
    23  C   -0.479431
    24  H    0.149464
    25  H    0.149522
    26  H    0.154139
    27  H    0.151760
    28  H    0.154528
    29  H    0.158483
    30  H    0.161039
    31  C   -0.298242
    32  C   -0.299671
    33  C   -0.475692
    34  H    0.149673
    35  H    0.149696
    36  H    0.151871
    37  H    0.151887
    38  H    0.155185
    39  H    0.155184
    40  H    0.160245
 Sum of Mulliken charges =  -0.00000

 Dipole moment (field-independent basis, Debye):
    X=             -0.0119    Y=             -0.0041    Z=              0.0090  Tot=              0.0155
 Quadrupole moment (field-independent basis, Debye-Ang):
   XX=            -85.4056   YY=            -85.3942   ZZ=            -84.0013
   XY=             -1.4217   XZ=             -0.5553   YZ=              0.0510

 Normal termination of Gaussian 16 at Wed May  5 16:54:15 2021.
