 Gaussian 16, Revision A.03,
 Gaussian 16:  EM64L-G16RevA.03 25-Dec-2016

 -------------
 #p 6-31g* mp2
 -------------

 ------------------------------------------------------
 Input file generated by CHIRIPA (05-May-2021 14:57:27)
 ------------------------------------------------------
 Symbolic Z-matrix:
 Charge =  0 Multiplicity = 1

                         Standard orientation:
 ---------------------------------------------------------------------
 Center     Atomic      Atomic             Coordinates (Angstroms)
 Number     Number       Type             X           Y           Z
 ---------------------------------------------------------------------
      1          6           0       -1.450794    2.779905   -0.412359
      2          6           0       -2.387965    2.538862    0.597656
      3          6           0       -2.908872    1.256034    0.791451
      4          6           0       -2.468471    0.232951   -0.046783
      5          6           0       -1.535967    0.441463   -1.061794
      6          6           0       -1.028531    1.732283   -1.237406
      7          1           0       -1.051373    3.779541   -0.555842
      8          1           0       -2.717722    3.350545    1.239898
      9          1           0       -3.635476    1.041504    1.565687
     10          1           0       -1.226437   -0.387826   -1.686206
     11          1           0       -0.300824    1.916553   -2.022603
     12          7           0       -3.012801   -1.129352    0.148754
     13          8           0       -2.608608   -2.013668   -0.603077
     14          8           0       -3.833334   -1.287015    1.050146
     15          6           0        3.507016    1.774203    0.414530
     16          6           0        3.113942    1.374176   -0.866873
     17          6           0        2.487999    0.139809   -1.064555
     18          6           0        2.269683   -0.673225    0.046573
     19          6           0        2.649688   -0.302789    1.335629
     20          6           0        3.274046    0.935921    1.509761
     21          1           0        3.992648    2.734776    0.558947
     22          1           0        3.293596    2.023147   -1.719286
     23          1           0        2.173437   -0.194692   -2.045666
     24          1           0        2.457153   -0.971319    2.165940
     25          1           0        3.578237    1.243986    2.506057
     26          7           0        1.607864   -1.982294   -0.150237
     27          8           0        1.426882   -2.680338    0.845060
     28          8           0        1.282644   -2.285510   -1.296069
 ---------------------------------------------------------------------

 SCF Done:  E(RHF) =  -868.336117043     A.U. after   16 cycles
 E2 =    -0.2602770566D+01 EUMP2 =    -0.87093888760944D+03

 The electronic state is 1-A.
 Alpha  occ. eigenvalues --  -20.60911 -20.60879 -20.60219 -20.60146 -15.85942
 Alpha  occ. eigenvalues --  -15.85246 -11.31533 -11.30906 -11.28206 -11.28084
 Alpha  occ. eigenvalues --  -11.27917 -11.27531 -11.27435 -11.27370 -11.27256
 Alpha  occ. eigenvalues --  -11.27150 -11.26643 -11.26627  -1.59947  -1.59260
 Alpha  occ. eigenvalues --   -1.39503  -1.38800  -1.19731  -1.19121  -1.09080
 Alpha  occ. eigenvalues --   -1.08475  -1.05184  -1.04566  -0.95878  -0.95249
 Alpha  occ. eigenvalues --   -0.86567  -0.85955  -0.82716  -0.82078  -0.77736
 Alpha  occ. eigenvalues --   -0.77057  -0.72150  -0.71472  -0.71281  -0.70848
 Alpha  occ. eigenvalues --   -0.70585  -0.70221  -0.65391  -0.65189  -0.64769
 Alpha  occ. eigenvalues --   -0.64590  -0.62544  -0.61883  -0.55665  -0.55092
 Alpha  occ. eigenvalues --   -0.53590  -0.53278  -0.52801  -0.52645  -0.48916
 Alpha  occ. eigenvalues --   -0.48897  -0.48254  -0.48188  -0.44846  -0.44134
 Alpha  occ. eigenvalues --   -0.37753  -0.37206  -0.36858  -0.35983
 Alpha virt. eigenvalues --    0.04759   0.05464   0.10827   0.11454   0.16199
 Alpha virt. eigenvalues --    0.16909   0.20325   0.21840   0.25850   0.27441
 Alpha virt. eigenvalues --    0.28211   0.28891   0.30373   0.31245   0.32118

 Mulliken charges:
               1
     1  C   -0.171888
     2  C   -0.219072
     3  C   -0.171267
     4  C    0.158131
     5  C   -0.180041
     6  C   -0.214461
     7  H    0.220892
     8  H    0.221273
     9  H    0.275417
    10  H    0.287718
    11  H    0.215310
    12  N    0.487348
    13  O   -0.449386
    14  O   -0.463554
    15  C   -0.171363
    16  C   -0.220652
    17  C   -0.174090
    18  C    0.161810
    19  C   -0.169600
    20  C   -0.217824
    21  H    0.225007
    22  H    0.220244
    23  H    0.271625
    24  H    0.278579
    25  H    0.224660
    26  N    0.487910
    27  O   -0.452548
    28  O   -0.460175
 Sum of Mulliken charges =  -0.00000

 Dipole moment (field-independent basis, Debye):
    X=              4.2810    Y=              9.0401    Z=              0.1329  Tot=             10.0034
 Quadrupole moment (field-independent basis, Debye-Ang):
   XX=           -103.5768   YY=           -109.2901   ZZ=            -97.4105
   XY=             -3.4192   XZ=              1.7324   YZ=             -0.0420

 Normal termination of Gaussian 16 at Wed May  5 19:40:02 2021.
