 Gaussian 16, Revision A.03,
 Gaussian 16:  EM64L-G16RevA.03 25-Dec-2016

 -------------
 #p 6-31g* mp2
 -------------

 ------------------------------------------------------
 Input file generated by CHIRIPA (05-May-2021 14:57:23)
 ------------------------------------------------------
 Symbolic Z-matrix:
 Charge =  0 Multiplicity = 1

                         Standard orientation:
 ---------------------------------------------------------------------
 Center     Atomic      Atomic             Coordinates (Angstroms)
 Number     Number       Type             X           Y           Z
 ---------------------------------------------------------------------
      1          6           0        2.004312    1.536862   -1.356838
      2          6           0        3.385403    1.755735   -1.391511
      3          6           0        4.253696    0.928016   -0.673530
      4          6           0        3.704233   -0.113890    0.071999
      5          6           0        2.332763   -0.357564    0.126605
      6          6           0        1.483318    0.482769   -0.599226
      7          1           0        1.337122    2.184753   -1.917632
      8          1           0        3.792824    2.573588   -1.979022
      9          1           0        5.326901    1.074867   -0.682671
     10          1           0        1.956237   -1.180942    0.721327
     11          1           0        0.411165    0.310421   -0.570444
     12          7           0        4.613479   -0.996836    0.836249
     13          8           0        4.104402   -1.907916    1.485410
     14          8           0        5.818007   -0.761090    0.771635
     15          6           0       -3.319238    2.129825    1.334092
     16          6           0       -2.518779    1.889976    0.212372
     17          6           0       -2.640489    0.695912   -0.504528
     18          6           0       -3.577111   -0.240592   -0.069800
     19          6           0       -4.389038   -0.030866    1.043788
     20          6           0       -4.250172    1.170329    1.745495
     21          1           0       -3.218028    3.060173    1.885096
     22          1           0       -1.794961    2.633332   -0.109427
     23          1           0       -2.033513    0.484428   -1.376465
     24          1           0       -5.101697   -0.790850    1.340368
     25          1           0       -4.873152    1.353895    2.616268
     26          7           0       -3.715040   -1.508469   -0.820708
     27          8           0       -4.547703   -2.317515   -0.417277
     28          8           0       -2.987876   -1.669179   -1.798481
 ---------------------------------------------------------------------

 SCF Done:  E(RHF) =  -868.336855439     A.U. after   16 cycles
 E2 =    -0.2600393114D+01 EUMP2 =    -0.87093724855308D+03

 The electronic state is 1-A.
 Alpha  occ. eigenvalues --  -20.61472 -20.61451 -20.60869 -20.60862 -15.86524
 Alpha  occ. eigenvalues --  -15.85923 -11.32039 -11.31371 -11.28698 -11.28530
 Alpha  occ. eigenvalues --  -11.28298 -11.27949 -11.27930 -11.27793 -11.27716
 Alpha  occ. eigenvalues --  -11.27560 -11.27014 -11.27004  -1.60538  -1.59941
 Alpha  occ. eigenvalues --   -1.40089  -1.39492  -1.20205  -1.19561  -1.09552
 Alpha  occ. eigenvalues --   -1.08964  -1.05645  -1.04968  -0.96374  -0.95778
 Alpha  occ. eigenvalues --   -0.87015  -0.86387  -0.83214  -0.82598  -0.78264
 Alpha  occ. eigenvalues --   -0.77612  -0.72733  -0.72143  -0.71867  -0.71291
 Alpha  occ. eigenvalues --   -0.71264  -0.70716  -0.65859  -0.65639  -0.65224
 Alpha  occ. eigenvalues --   -0.65010  -0.63016  -0.62267  -0.56075  -0.55545
 Alpha  occ. eigenvalues --   -0.53960  -0.53738  -0.53298  -0.53022  -0.49505
 Alpha  occ. eigenvalues --   -0.49484  -0.48909  -0.48889  -0.45462  -0.44878
 Alpha  occ. eigenvalues --   -0.38145  -0.37588  -0.37238  -0.36554
 Alpha virt. eigenvalues --    0.04238   0.04912   0.10339   0.11064   0.15680
 Alpha virt. eigenvalues --    0.16368   0.18924   0.21963   0.25211   0.26687
 Alpha virt. eigenvalues --    0.27908   0.29368   0.29927   0.31022   0.31968

 Mulliken charges:
               1
     1  C   -0.173446
     2  C   -0.217985
     3  C   -0.170902
     4  C    0.159140
     5  C   -0.171270
     6  C   -0.221240
     7  H    0.219644
     8  H    0.223583
     9  H    0.276372
    10  H    0.278972
    11  H    0.224610
    12  N    0.487934
    13  O   -0.458685
    14  O   -0.460174
    15  C   -0.170218
    16  C   -0.216661
    17  C   -0.179400
    18  C    0.159946
    19  C   -0.169992
    20  C   -0.217031
    21  H    0.228905
    22  H    0.220580
    23  H    0.270296
    24  H    0.278945
    25  H    0.227442
    26  N    0.488007
    27  O   -0.456149
    28  O   -0.461226
 Sum of Mulliken charges =  -0.00000

 Dipole moment (field-independent basis, Debye):
    X=             -2.9153    Y=              7.4911    Z=              0.1434  Tot=              8.0397
 Quadrupole moment (field-independent basis, Debye-Ang):
   XX=           -125.4040   YY=           -106.8589   ZZ=           -104.0682
   XY=             -0.7790   XZ=            -24.4453   YZ=             -2.2834

 Normal termination of Gaussian 16 at Thu May  6 17:57:32 2021.
