 Gaussian 16, Revision A.03,
 Gaussian 16:  EM64L-G16RevA.03 25-Dec-2016

 -------------
 #p 6-31g* mp2
 -------------

 ------------------------------------------------------
 Input file generated by CHIRIPA (05-May-2021 14:55:22)
 ------------------------------------------------------
 Symbolic Z-matrix:
 Charge =  0 Multiplicity = 1

                         Standard orientation:
 ---------------------------------------------------------------------
 Center     Atomic      Atomic             Coordinates (Angstroms)
 Number     Number       Type             X           Y           Z
 ---------------------------------------------------------------------
      1          6           0       -2.047660    1.429041    1.993992
      2          6           0       -2.481179    0.112860    2.184389
      3          6           0       -2.536479   -0.779017    1.109193
      4          6           0       -2.149114   -0.319072   -0.148459
      5          6           0       -1.712690    0.986184   -0.370115
      6          6           0       -1.665473    1.860741    0.719595
      7          1           0       -2.007841    2.115145    2.834868
      8          1           0       -2.778599   -0.225162    3.172987
      9          1           0       -2.868126   -1.803331    1.228391
     10          1           0       -1.422622    1.294069   -1.367354
     11          1           0       -1.328380    2.882341    0.568775
     12          7           0       -2.203380   -1.254094   -1.294403
     13          8           0       -1.856694   -0.824337   -2.392472
     14          8           0       -2.591571   -2.399017   -1.072827
     15          6           0        3.281944   -0.326199   -0.033194
     16          6           0        2.893326   -1.551944    0.794157
     17          6           0        3.988892   -2.618138    0.821684
     18          1           0        3.513354   -0.642770   -1.059439
     19          1           0        4.205417    0.106141    0.376286
     20          1           0        1.970102   -1.981030    0.384086
     21          1           0        2.662628   -1.232393    1.818501
     22          1           0        4.910760   -2.212250    1.250652
     23          1           0        4.214300   -2.965140   -0.191915
     24          1           0        3.690103   -3.485472    1.418607
     25          6           0        2.196893    0.748520   -0.070247
     26          6           0        2.585511    1.974265   -0.897598
     27          6           0        1.489945    3.040459   -0.925125
     28          1           0        1.273419    0.316180   -0.479727
     29          1           0        1.965483    1.065090    0.955997
     30          1           0        2.816209    1.654713   -1.921942
     31          1           0        3.508735    2.403351   -0.487527
     32          1           0        1.264537    3.387460    0.088474
     33          1           0        0.568076    2.634570   -1.354093
     34          1           0        1.788734    3.907792   -1.522049
 ---------------------------------------------------------------------

 SCF Done:  E(RHF) =  -669.534226711     A.U. after   15 cycles
 E2 =    -0.2094127515D+01 EUMP2 =    -0.67162835422620D+03

 The electronic state is 1-A.
 Alpha  occ. eigenvalues --  -20.60806 -20.60801 -15.85856 -11.31186 -11.27739
 Alpha  occ. eigenvalues --  -11.27729 -11.27469 -11.26754 -11.26695 -11.21938
 Alpha  occ. eigenvalues --  -11.21785 -11.21579 -11.21505 -11.21391 -11.21002
 Alpha  occ. eigenvalues --   -1.59881  -1.39435  -1.19353  -1.08752  -1.08574
 Alpha  occ. eigenvalues --   -1.04760  -1.03735  -0.96216  -0.95597  -0.87250
 Alpha  occ. eigenvalues --   -0.86149  -0.82436  -0.79826  -0.78369  -0.77462
 Alpha  occ. eigenvalues --   -0.72074  -0.71206  -0.70480  -0.65238  -0.65002
 Alpha  occ. eigenvalues --   -0.64734  -0.62183  -0.61110  -0.59574  -0.57795
 Alpha  occ. eigenvalues --   -0.55532  -0.55248  -0.53131  -0.52937  -0.52860
 Alpha  occ. eigenvalues --   -0.52579  -0.50168  -0.48831  -0.48828  -0.48113
 Alpha  occ. eigenvalues --   -0.46821  -0.45899  -0.45803  -0.44837  -0.43955
 Alpha  occ. eigenvalues --   -0.37319  -0.36257
 Alpha virt. eigenvalues --    0.05028   0.11191   0.16480   0.20503   0.22865
 Alpha virt. eigenvalues --    0.24151   0.25710   0.26036   0.27380   0.27788
 Alpha virt. eigenvalues --    0.29219   0.30114   0.31380   0.31599   0.32365

 Mulliken charges:
               1
     1  C   -0.172262
     2  C   -0.217984
     3  C   -0.171166
     4  C    0.159711
     5  C   -0.175348
     6  C   -0.214800
     7  H    0.225334
     8  H    0.223292
     9  H    0.275393
    10  H    0.276820
    11  H    0.227237
    12  N    0.488074
    13  O   -0.461452
    14  O   -0.460161
    15  C   -0.298827
    16  C   -0.299862
    17  C   -0.475829
    18  H    0.153014
    19  H    0.148118
    20  H    0.155275
    21  H    0.149057
    22  H    0.153844
    23  H    0.157569
    24  H    0.160534
    25  C   -0.300692
    26  C   -0.299596
    27  C   -0.477800
    28  H    0.154347
    29  H    0.146491
    30  H    0.157112
    31  H    0.152719
    32  H    0.149472
    33  H    0.148658
    34  H    0.163709
 Sum of Mulliken charges =  -0.00000

 Dipole moment (field-independent basis, Debye):
    X=              0.2426    Y=              3.2410    Z=              4.0111  Tot=              5.1625
 Quadrupole moment (field-independent basis, Debye-Ang):
   XX=            -95.9722   YY=            -95.2363   ZZ=            -93.8689
   XY=             -5.0919   XZ=            -10.0111   YZ=             -3.7605

 Normal termination of Gaussian 16 at Thu May  6 01:28:17 2021.
