 Gaussian 16, Revision A.03,
 Gaussian 16:  EM64L-G16RevA.03 25-Dec-2016

 -------------
 #p 6-31g* mp2
 -------------

 ------------------------------------------------------
 Input file generated by CHIRIPA (05-May-2021 14:55:25)
 ------------------------------------------------------
 Symbolic Z-matrix:
 Charge =  0 Multiplicity = 1

                         Standard orientation:
 ---------------------------------------------------------------------
 Center     Atomic      Atomic             Coordinates (Angstroms)
 Number     Number       Type             X           Y           Z
 ---------------------------------------------------------------------
      1          6           0       -1.243142    0.243605   -0.055748
      2          6           0       -2.114709    1.170150   -0.637477
      3          6           0       -3.494972    0.947945   -0.630642
      4          6           0       -3.971480   -0.216651   -0.030686
      5          6           0       -3.128683   -1.158687    0.557151
      6          6           0       -1.752014   -0.915812    0.538662
      7          1           0       -0.172317    0.424248   -0.065584
      8          1           0       -1.722333    2.071441   -1.099818
      9          1           0       -4.192269    1.648570   -1.073721
     10          1           0       -3.549541   -2.047939    1.010502
     11          1           0       -1.077509   -1.637126    0.991203
     12          7           0       -5.430800   -0.462831   -0.017281
     13          8           0       -5.825514   -1.496608    0.517642
     14          8           0       -6.152269    0.382652   -0.541951
     15          6           0        5.459321   -0.086328    0.179387
     16          6           0        5.696418   -1.388981   -0.585377
     17          6           0        7.068491   -2.000494   -0.300318
     18          1           0        6.245476    0.634414   -0.084122
     19          1           0        5.559589   -0.278280    1.256650
     20          1           0        5.594368   -1.194920   -1.660804
     21          1           0        4.909498   -2.106640   -0.320162
     22          1           0        7.177321   -2.222346    0.766237
     23          1           0        7.866082   -1.305446   -0.582021
     24          1           0        7.216902   -2.930908   -0.857241
     25          6           0        4.091952    0.537087   -0.095175
     26          6           0        3.854856    1.839740    0.669589
     27          6           0        2.482782    2.451252    0.384529
     28          1           0        3.991685    0.729039   -1.172439
     29          1           0        3.305798   -0.183655    0.168334
     30          1           0        4.641776    2.557399    0.404374
     31          1           0        3.956905    1.645679    1.745015
     32          1           0        1.685191    1.756205    0.666233
     33          1           0        2.373952    2.673105   -0.682026
     34          1           0        2.334371    3.381667    0.941452
 ---------------------------------------------------------------------

 SCF Done:  E(RHF) =  -669.535573381     A.U. after   15 cycles
 E2 =    -0.2090814740D+01 EUMP2 =    -0.67162638812101D+03

 The electronic state is 1-A.
 Alpha  occ. eigenvalues --  -20.60723 -20.60718 -15.85776 -11.31134 -11.27704
 Alpha  occ. eigenvalues --  -11.27697 -11.27408 -11.26716 -11.26698 -11.22566
 Alpha  occ. eigenvalues --  -11.22326 -11.22304 -11.22242 -11.22103 -11.21593
 Alpha  occ. eigenvalues --   -1.59799  -1.39352  -1.19303  -1.09267  -1.08697
 Alpha  occ. eigenvalues --   -1.04707  -1.04365  -0.96835  -0.95535  -0.87853
 Alpha  occ. eigenvalues --   -0.86102  -0.82371  -0.80439  -0.79060  -0.77419
 Alpha  occ. eigenvalues --   -0.71994  -0.71122  -0.70426  -0.65894  -0.64954
 Alpha  occ. eigenvalues --   -0.64711  -0.62055  -0.61763  -0.60205  -0.58441
 Alpha  occ. eigenvalues --   -0.56192  -0.55188  -0.53507  -0.53237  -0.53031
 Alpha  occ. eigenvalues --   -0.52797  -0.50773  -0.48780  -0.48750  -0.48717
 Alpha  occ. eigenvalues --   -0.47460  -0.46608  -0.46507  -0.44760  -0.44607
 Alpha  occ. eigenvalues --   -0.37276  -0.36313
 Alpha virt. eigenvalues --    0.05105   0.11341   0.16556   0.19662   0.22369
 Alpha virt. eigenvalues --    0.23657   0.25230   0.26207   0.26844   0.27506
 Alpha virt. eigenvalues --    0.29069   0.30189   0.31024   0.31247   0.32271

 Mulliken charges:
               1
     1  C   -0.176518
     2  C   -0.220793
     3  C   -0.170948
     4  C    0.158391
     5  C   -0.170827
     6  C   -0.220095
     7  H    0.234838
     8  H    0.224134
     9  H    0.275425
    10  H    0.275317
    11  H    0.223055
    12  N    0.488033
    13  O   -0.460616
    14  O   -0.460552
    15  C   -0.298835
    16  C   -0.300014
    17  C   -0.476173
    18  H    0.152031
    19  H    0.150843
    20  H    0.152799
    21  H    0.150872
    22  H    0.155940
    23  H    0.156405
    24  H    0.161955
    25  C   -0.298200
    26  C   -0.299721
    27  C   -0.481248
    28  H    0.150613
    29  H    0.143184
    30  H    0.156297
    31  H    0.154745
    32  H    0.147829
    33  H    0.155470
    34  H    0.166365
 Sum of Mulliken charges =  -0.00000

 Dipole moment (field-independent basis, Debye):
    X=              5.4037    Y=              0.9235    Z=             -0.0434  Tot=              5.4822
 Quadrupole moment (field-independent basis, Debye-Ang):
   XX=           -135.8462   YY=            -91.3892   ZZ=            -93.6402
   XY=             -4.4287   XZ=              0.1047   YZ=             -2.7899

 Normal termination of Gaussian 16 at Thu May  6 19:21:47 2021.
