 Gaussian 16, Revision A.03,
 Gaussian 16:  EM64L-G16RevA.03 25-Dec-2016

 -------------
 #p 6-31g* mp2
 -------------

 ------------------------------------------------------
 Input file generated by CHIRIPA (05-May-2021 14:57:23)
 ------------------------------------------------------
 Symbolic Z-matrix:
 Charge =  0 Multiplicity = 1

                         Standard orientation:
 ---------------------------------------------------------------------
 Center     Atomic      Atomic             Coordinates (Angstroms)
 Number     Number       Type             X           Y           Z
 ---------------------------------------------------------------------
      1          6           0       -1.043849   -2.109478   -0.504398
      2          6           0       -2.300901   -2.219515   -1.107916
      3          6           0       -3.307314   -1.290786   -0.826588
      4          6           0       -3.020953   -0.259952    0.067095
      5          6           0       -1.778552   -0.123468    0.684429
      6          6           0       -0.787139   -1.063649    0.388274
      7          1           0       -0.267870   -2.835385   -0.728699
      8          1           0       -2.503095   -3.030687   -1.801573
      9          1           0       -4.289332   -1.352279   -1.279663
     10          1           0       -1.606811    0.696017    1.371719
     11          1           0        0.188176   -0.975710    0.858457
     12          7           0       -4.078457    0.729314    0.372772
     13          8           0       -3.801001    1.628305    1.163638
     14          8           0       -5.164761    0.586977   -0.184292
     15          6           0        3.849628   -1.689124    0.931410
     16          6           0        3.982087   -1.401632   -0.431061
     17          6           0        3.430430   -0.234297   -0.967297
     18          6           0        2.749701    0.627187   -0.108377
     19          6           0        2.600848    0.368604    1.253338
     20          6           0        3.160645   -0.804647    1.767786
     21          1           0        4.281330   -2.598236    1.339507
     22          1           0        4.516631   -2.086703   -1.082971
     23          1           0        3.518082    0.012845   -2.018323
     24          1           0        2.062413    1.070757    1.878229
     25          1           0        3.056214   -1.025340    2.826291
     26          7           0        2.161377    1.866124   -0.664532
     27          8           0        1.566361    2.608849    0.113255
     28          8           0        2.306406    2.071019   -1.867705
 ---------------------------------------------------------------------

 SCF Done:  E(RHF) =  -868.336671496     A.U. after   16 cycles
 E2 =    -0.2602241214D+01 EUMP2 =    -0.87093891271030D+03

 The electronic state is 1-A.
 Alpha  occ. eigenvalues --  -20.61458 -20.61452 -20.60422 -20.60404 -15.86520
 Alpha  occ. eigenvalues --  -15.85470 -11.32166 -11.30895 -11.28755 -11.28721
 Alpha  occ. eigenvalues --  -11.28511 -11.27836 -11.27785 -11.27497 -11.27449
 Alpha  occ. eigenvalues --  -11.27280 -11.26543 -11.26415  -1.60525  -1.59488
 Alpha  occ. eigenvalues --   -1.40073  -1.39040  -1.20386  -1.19081  -1.09694
 Alpha  occ. eigenvalues --   -1.08476  -1.05818  -1.04496  -0.96483  -0.95298
 Alpha  occ. eigenvalues --   -0.87169  -0.85898  -0.83301  -0.82136  -0.78313
 Alpha  occ. eigenvalues --   -0.77165  -0.72723  -0.71862  -0.71691  -0.71422
 Alpha  occ. eigenvalues --   -0.70808  -0.70219  -0.65994  -0.65757  -0.64740
 Alpha  occ. eigenvalues --   -0.64554  -0.63119  -0.61875  -0.56241  -0.55076
 Alpha  occ. eigenvalues --   -0.54225  -0.53850  -0.52819  -0.52442  -0.49503
 Alpha  occ. eigenvalues --   -0.49470  -0.48455  -0.48439  -0.45415  -0.44432
 Alpha  occ. eigenvalues --   -0.38383  -0.37428  -0.37071  -0.36076
 Alpha virt. eigenvalues --    0.04174   0.05375   0.10143   0.11551   0.15622
 Alpha virt. eigenvalues --    0.16848   0.20398   0.21788   0.26105   0.27098
 Alpha virt. eigenvalues --    0.28089   0.28509   0.30223   0.31416   0.31648

 Mulliken charges:
               1
     1  C   -0.173370
     2  C   -0.218219
     3  C   -0.170745
     4  C    0.159275
     5  C   -0.170440
     6  C   -0.227198
     7  H    0.221727
     8  H    0.221484
     9  H    0.275190
    10  H    0.277984
    11  H    0.228860
    12  N    0.488251
    13  O   -0.458172
    14  O   -0.461730
    15  C   -0.173043
    16  C   -0.219943
    17  C   -0.171308
    18  C    0.166554
    19  C   -0.190494
    20  C   -0.220532
    21  H    0.228996
    22  H    0.226623
    23  H    0.279254
    24  H    0.278491
    25  H    0.227936
    26  N    0.488717
    27  O   -0.457843
    28  O   -0.456305
 Sum of Mulliken charges =  -0.00000

 Dipole moment (field-independent basis, Debye):
    X=              6.0284    Y=             -7.6732    Z=              0.8137  Tot=              9.7919
 Quadrupole moment (field-independent basis, Debye-Ang):
   XX=           -113.7864   YY=           -108.1873   ZZ=            -99.7999
   XY=             -0.2382   XZ=              9.0385   YZ=              4.7226

 Normal termination of Gaussian 16 at Thu May  6 21:10:36 2021.
