 Gaussian 16, Revision A.03,
 Gaussian 16:  EM64L-G16RevA.03 25-Dec-2016

 -------------
 #p 6-31g* mp2
 -------------

 ------------------------------------------------------
 Input file generated by CHIRIPA (05-May-2021 14:57:21)
 ------------------------------------------------------
 Symbolic Z-matrix:
 Charge =  0 Multiplicity = 1

                         Standard orientation:
 ---------------------------------------------------------------------
 Center     Atomic      Atomic             Coordinates (Angstroms)
 Number     Number       Type             X           Y           Z
 ---------------------------------------------------------------------
      1          6           0        4.281547   -2.319792    0.464991
      2          6           0        5.247959   -1.497411   -0.123446
      3          6           0        4.943637   -0.176193   -0.464499
      4          6           0        3.657163    0.292068   -0.201808
      5          6           0        2.672613   -0.502652    0.383318
      6          6           0        2.999219   -1.820668    0.716053
      7          1           0        4.526607   -3.344902    0.726699
      8          1           0        6.244651   -1.882353   -0.319584
      9          1           0        5.672663    0.482206   -0.921061
     10          1           0        1.687695   -0.090633    0.566605
     11          1           0        2.246684   -2.457061    1.172934
     12          7           0        3.323195    1.689087   -0.558463
     13          8           0        2.182521    2.077741   -0.316704
     14          8           0        4.208429    2.368965   -1.073015
     15          6           0       -1.849937    0.520875    1.742510
     16          6           0       -1.662987   -0.482679    0.786240
     17          6           0       -2.687870   -0.813884   -0.105088
     18          6           0       -3.892242   -0.118155   -0.011605
     19          6           0       -4.109044    0.886581    0.930091
     20          6           0       -3.070217    1.201103    1.811263
     21          1           0       -1.048366    0.771683    2.430970
     22          1           0       -0.716358   -1.012617    0.730536
     23          1           0       -2.570088   -1.586503   -0.855158
     24          1           0       -5.063825    1.397306    0.961272
     25          1           0       -3.218229    1.980926    2.552892
     26          7           0       -4.984620   -0.459957   -0.949837
     27          8           0       -6.036274    0.167794   -0.846923
     28          8           0       -4.768489   -1.349139   -1.770374
 ---------------------------------------------------------------------

 SCF Done:  E(RHF) =  -868.336878102     A.U. after   16 cycles
 E2 =    -0.2599808897D+01 EUMP2 =    -0.87093668699912D+03

 The electronic state is 1-A.
 Alpha  occ. eigenvalues --  -20.61395 -20.61377 -20.60757 -20.60749 -15.86446
 Alpha  occ. eigenvalues --  -15.85814 -11.31903 -11.31209 -11.28578 -11.28416
 Alpha  occ. eigenvalues --  -11.28188 -11.27860 -11.27778 -11.27585 -11.27567
 Alpha  occ. eigenvalues --  -11.27433 -11.26967 -11.26763  -1.60461  -1.59830
 Alpha  occ. eigenvalues --   -1.40014  -1.39383  -1.20073  -1.19405  -1.09437
 Alpha  occ. eigenvalues --   -1.08796  -1.05509  -1.04832  -0.96266  -0.95619
 Alpha  occ. eigenvalues --   -0.86890  -0.86242  -0.83110  -0.82463  -0.78161
 Alpha  occ. eigenvalues --   -0.77502  -0.72661  -0.72035  -0.71785  -0.71182
 Alpha  occ. eigenvalues --   -0.71151  -0.70513  -0.65732  -0.65529  -0.65074
 Alpha  occ. eigenvalues --   -0.64894  -0.62891  -0.62156  -0.55962  -0.55331
 Alpha  occ. eigenvalues --   -0.53803  -0.53622  -0.53116  -0.52937  -0.49427
 Alpha  occ. eigenvalues --   -0.49411  -0.48796  -0.48783  -0.45400  -0.44782
 Alpha  occ. eigenvalues --   -0.38023  -0.37364  -0.37109  -0.36420
 Alpha virt. eigenvalues --    0.04398   0.05069   0.10547   0.11138   0.15873
 Alpha virt. eigenvalues --    0.16546   0.18214   0.22083   0.24806   0.27001
 Alpha virt. eigenvalues --    0.27801   0.29001   0.30374   0.31602   0.31976

 Mulliken charges:
               1
     1  C   -0.170126
     2  C   -0.218071
     3  C   -0.169534
     4  C    0.160334
     5  C   -0.176440
     6  C   -0.219245
     7  H    0.228189
     8  H    0.226453
     9  H    0.278052
    10  H    0.270523
    11  H    0.220000
    12  N    0.487938
    13  O   -0.461794
    14  O   -0.457143
    15  C   -0.166294
    16  C   -0.217336
    17  C   -0.169476
    18  C    0.158711
    19  C   -0.169378
    20  C   -0.217827
    21  H    0.226082
    22  H    0.211277
    23  H    0.275160
    24  H    0.276684
    25  H    0.225529
    26  N    0.488211
    27  O   -0.459603
    28  O   -0.460875
 Sum of Mulliken charges =  -0.00000

 Dipole moment (field-independent basis, Debye):
    X=              5.1354    Y=             -3.6102    Z=              4.5246  Tot=              7.7381
 Quadrupole moment (field-independent basis, Debye-Ang):
   XX=           -118.9319   YY=           -106.3155   ZZ=           -105.2230
   XY=            -25.0680   XZ=            -12.1712   YZ=              2.5296

 Normal termination of Gaussian 16 at Wed May  5 16:11:42 2021.
