 Gaussian 16, Revision A.03,
 Gaussian 16:  EM64L-G16RevA.03 25-Dec-2016

 -------------
 #p 6-31g* mp2
 -------------

 ------------------------------------------------------
 Input file generated by CHIRIPA (05-May-2021 14:57:24)
 ------------------------------------------------------
 Symbolic Z-matrix:
 Charge =  0 Multiplicity = 1

                         Standard orientation:
 ---------------------------------------------------------------------
 Center     Atomic      Atomic             Coordinates (Angstroms)
 Number     Number       Type             X           Y           Z
 ---------------------------------------------------------------------
      1          6           0        2.950558    2.384136    0.725824
      2          6           0        2.994225    1.245130    1.536551
      3          6           0        2.736372   -0.019380    0.998895
      4          6           0        2.436794   -0.108682   -0.359622
      5          6           0        2.385650    1.007434   -1.193265
      6          6           0        2.646945    2.261868   -0.634099
      7          1           0        3.152202    3.362525    1.151843
      8          1           0        3.229745    1.337077    2.593018
      9          1           0        2.763439   -0.917665    1.603684
     10          1           0        2.148027    0.884087   -2.242902
     11          1           0        2.612326    3.144706   -1.266115
     12          7           0        2.161994   -1.442029   -0.940200
     13          8           0        1.900468   -1.493950   -2.140011
     14          8           0        2.213336   -2.409938   -0.184454
     15          6           0       -1.252439   -1.474951    1.994174
     16          6           0       -1.852343   -0.263818    2.354445
     17          6           0       -2.536236    0.500139    1.404072
     18          6           0       -2.600962    0.020785    0.096663
     19          6           0       -2.013602   -1.181842   -0.293193
     20          6           0       -1.334838   -1.929295    0.673833
     21          1           0       -0.723167   -2.062001    2.738915
     22          1           0       -1.789959    0.091500    3.379093
     23          1           0       -3.009785    1.441335    1.655708
     24          1           0       -2.092718   -1.510039   -1.322487
     25          1           0       -0.869900   -2.869501    0.391183
     26          7           0       -3.322253    0.820817   -0.918270
     27          8           0       -3.364986    0.376554   -2.063452
     28          8           0       -3.831211    1.876996   -0.549374
 ---------------------------------------------------------------------

 SCF Done:  E(RHF) =  -868.339741234     A.U. after   16 cycles
 E2 =    -0.2600458098D+01 EUMP2 =    -0.87094019933161D+03

 The electronic state is 1-A.
 Alpha  occ. eigenvalues --  -20.61396 -20.61345 -20.60570 -20.60548 -15.86395
 Alpha  occ. eigenvalues --  -15.85607 -11.31543 -11.30888 -11.28148 -11.28043
 Alpha  occ. eigenvalues --  -11.27797 -11.27491 -11.27322 -11.27148 -11.27105
 Alpha  occ. eigenvalues --  -11.27014 -11.26523 -11.26242  -1.60436  -1.59641
 Alpha  occ. eigenvalues --   -1.39998  -1.39194  -1.19697  -1.19041  -1.09133
 Alpha  occ. eigenvalues --   -1.08453  -1.05075  -1.04407  -0.96007  -0.95304
 Alpha  occ. eigenvalues --   -0.86484  -0.85801  -0.82852  -0.82122  -0.77926
 Alpha  occ. eigenvalues --   -0.77179  -0.72631  -0.71826  -0.71744  -0.70966
 Alpha  occ. eigenvalues --   -0.70816  -0.70141  -0.65361  -0.65084  -0.64678
 Alpha  occ. eigenvalues --   -0.64361  -0.62433  -0.61721  -0.55587  -0.54919
 Alpha  occ. eigenvalues --   -0.53429  -0.53172  -0.52751  -0.52458  -0.49400
 Alpha  occ. eigenvalues --   -0.49366  -0.48589  -0.48575  -0.45452  -0.44619
 Alpha  occ. eigenvalues --   -0.37668  -0.37091  -0.36597  -0.36008
 Alpha virt. eigenvalues --    0.04563   0.05326   0.10959   0.11657   0.16118
 Alpha virt. eigenvalues --    0.16817   0.21036   0.21929   0.26954   0.27677
 Alpha virt. eigenvalues --    0.28104   0.28776   0.30712   0.31421   0.32343

 Mulliken charges:
               1
     1  C   -0.169966
     2  C   -0.218900
     3  C   -0.169558
     4  C    0.159980
     5  C   -0.169932
     6  C   -0.217998
     7  H    0.227028
     8  H    0.221892
     9  H    0.270273
    10  H    0.278570
    11  H    0.226999
    12  N    0.488764
    13  O   -0.457122
    14  O   -0.468765
    15  C   -0.173849
    16  C   -0.218886
    17  C   -0.172612
    18  C    0.158014
    19  C   -0.174859
    20  C   -0.223157
    21  H    0.224997
    22  H    0.219218
    23  H    0.272602
    24  H    0.281028
    25  H    0.241102
    26  N    0.487641
    27  O   -0.458783
    28  O   -0.463720
 Sum of Mulliken charges =  -0.00000

 Dipole moment (field-independent basis, Debye):
    X=              3.6358    Y=              1.8498    Z=              5.4256  Tot=              6.7880
 Quadrupole moment (field-independent basis, Debye-Ang):
   XX=           -114.9840   YY=           -103.1686   ZZ=            -99.7055
   XY=             18.3893   XZ=             -4.4924   YZ=             -1.5669

 Normal termination of Gaussian 16 at Thu May  6 18:00:55 2021.
