 Gaussian 16, Revision A.03,
 Gaussian 16:  EM64L-G16RevA.03 25-Dec-2016

 -------------
 #p 6-31g* mp2
 -------------

 ------------------------------------------------------
 Input file generated by CHIRIPA (05-May-2021 14:57:25)
 ------------------------------------------------------
 Symbolic Z-matrix:
 Charge =  0 Multiplicity = 1

                         Standard orientation:
 ---------------------------------------------------------------------
 Center     Atomic      Atomic             Coordinates (Angstroms)
 Number     Number       Type             X           Y           Z
 ---------------------------------------------------------------------
      1          6           0        1.038095    1.984667   -0.965960
      2          6           0        2.008053    2.241016    0.008713
      3          6           0        2.964837    1.273583    0.329941
      4          6           0        2.922138    0.055269   -0.346209
      5          6           0        1.968399   -0.230072   -1.322043
      6          6           0        1.021393    0.752114   -1.627061
      7          1           0        0.298640    2.741923   -1.209202
      8          1           0        2.023434    3.197335    0.523749
      9          1           0        3.726912    1.445626    1.080314
     10          1           0        1.978462   -1.192841   -1.818424
     11          1           0        0.269281    0.550262   -2.384444
     12          7           0        3.929867   -0.976718   -0.014719
     13          8           0        3.870810   -2.042066   -0.624788
     14          8           0        4.759700   -0.700702    0.848894
     15          6           0       -4.937686   -0.379579   -0.857177
     16          6           0       -4.490139    0.857143   -0.381004
     17          6           0       -3.282891    0.954428    0.317307
     18          6           0       -2.545140   -0.210443    0.522463
     19          6           0       -2.964319   -1.457101    0.060486
     20          6           0       -4.174692   -1.530724   -0.635304
     21          1           0       -5.876719   -0.445962   -1.398663
     22          1           0       -5.080614    1.752797   -0.551842
     23          1           0       -2.912836    1.899079    0.696928
     24          1           0       -2.353837   -2.332434    0.246283
     25          1           0       -4.519791   -2.492518   -1.003957
     26          7           0       -1.265427   -0.119976    1.260399
     27          8           0       -0.633929   -1.161004    1.428058
     28          8           0       -0.918117    0.990246    1.657160
 ---------------------------------------------------------------------

 SCF Done:  E(RHF) =  -868.337512307     A.U. after   16 cycles
 E2 =    -0.2602177507D+01 EUMP2 =    -0.87093968981355D+03

 The electronic state is 1-A.
 Alpha  occ. eigenvalues --  -20.61197 -20.61184 -20.59812 -20.59800 -15.86221
 Alpha  occ. eigenvalues --  -15.84863 -11.31711 -11.30117 -11.28313 -11.28237
 Alpha  occ. eigenvalues --  -11.28006 -11.27324 -11.27272 -11.26806 -11.26687
 Alpha  occ. eigenvalues --  -11.26553 -11.25835 -11.25676  -1.60242  -1.58878
 Alpha  occ. eigenvalues --   -1.39803  -1.38440  -1.19881  -1.18313  -1.09246
 Alpha  occ. eigenvalues --   -1.07748  -1.05295  -1.03739  -0.96068  -0.94601
 Alpha  occ. eigenvalues --   -0.86682  -0.85162  -0.82900  -0.81456  -0.77940
 Alpha  occ. eigenvalues --   -0.76493  -0.72462  -0.71584  -0.71104  -0.70969
 Alpha  occ. eigenvalues --   -0.70175  -0.69518  -0.65525  -0.65283  -0.64014
 Alpha  occ. eigenvalues --   -0.63803  -0.62637  -0.61124  -0.55769  -0.54323
 Alpha  occ. eigenvalues --   -0.53633  -0.53375  -0.52015  -0.51884  -0.49218
 Alpha  occ. eigenvalues --   -0.49180  -0.47851  -0.47847  -0.45230  -0.43874
 Alpha  occ. eigenvalues --   -0.37862  -0.36916  -0.36213  -0.35270
 Alpha virt. eigenvalues --    0.04555   0.06097   0.10729   0.12341   0.16083
 Alpha virt. eigenvalues --    0.17595   0.20895   0.22196   0.26766   0.27730
 Alpha virt. eigenvalues --    0.28124   0.29033   0.30536   0.31552   0.32373

 Mulliken charges:
               1
     1  C   -0.162374
     2  C   -0.205273
     3  C   -0.165872
     4  C    0.163377
     5  C   -0.164065
     6  C   -0.230008
     7  H    0.217820
     8  H    0.220920
     9  H    0.273944
    10  H    0.271372
    11  H    0.215901
    12  N    0.489063
    13  O   -0.464017
    14  O   -0.461987
    15  C   -0.171424
    16  C   -0.218797
    17  C   -0.174707
    18  C    0.158244
    19  C   -0.172625
    20  C   -0.218746
    21  H    0.227060
    22  H    0.223610
    23  H    0.272295
    24  H    0.278460
    25  H    0.225710
    26  N    0.490091
    27  O   -0.455978
    28  O   -0.461995
 Sum of Mulliken charges =  -0.00000

 Dipole moment (field-independent basis, Debye):
    X=             -8.1101    Y=              3.2641    Z=             -3.5327  Tot=              9.4291
 Quadrupole moment (field-independent basis, Debye-Ang):
   XX=           -103.0107   YY=            -97.9010   ZZ=           -105.9748
   XY=             13.3831   XZ=              4.1343   YZ=              2.2101

 Normal termination of Gaussian 16 at Fri May  7 06:33:00 2021.
