 Gaussian 16, Revision A.03,
 Gaussian 16:  EM64L-G16RevA.03 25-Dec-2016

 -------------
 #p 6-31g* mp2
 -------------

 ------------------------------------------------------
 Input file generated by CHIRIPA (05-May-2021 14:53:14)
 ------------------------------------------------------
 Symbolic Z-matrix:
 Charge =  0 Multiplicity = 1

                         Standard orientation:
 ---------------------------------------------------------------------
 Center     Atomic      Atomic             Coordinates (Angstroms)
 Number     Number       Type             X           Y           Z
 ---------------------------------------------------------------------
      1          6           0        2.884086    1.007828    0.240282
      2          6           0        2.767115    2.304106   -0.562193
      3          6           0        1.732981    3.268334    0.019722
      4          1           0        1.902108    0.516544    0.276397
      5          1           0        3.150703    1.250191    1.278342
      6          1           0        2.502153    2.059286   -1.598762
      7          1           0        3.749528    2.792264   -0.596565
      8          1           0        1.996009    3.541481    1.046761
      9          1           0        0.741547    2.804338    0.038870
     10          1           0        1.665695    4.188288   -0.569359
     11          6           0        3.913951    0.033694   -0.329077
     12          6           0        4.030922   -1.262584    0.473398
     13          6           0        5.065056   -2.226812   -0.108518
     14          1           0        3.647334   -0.208669   -1.367138
     15          1           0        4.895929    0.524978   -0.365193
     16          1           0        3.048509   -1.750742    0.507769
     17          1           0        4.295883   -1.017764    1.509966
     18          1           0        6.056490   -1.762816   -0.127665
     19          1           0        4.802028   -2.499959   -1.135556
     20          1           0        5.132342   -3.146766    0.480563
     21          6           0       -5.089877    0.230555   -0.147993
     22          6           0       -4.434567    0.315802    1.084817
     23          6           0       -3.085905   -0.034775    1.197751
     24          6           0       -2.420135   -0.468466    0.052347
     25          6           0       -3.045336   -0.564141   -1.189933
     26          6           0       -4.394396   -0.208371   -1.279439
     27          1           0       -6.137704    0.504909   -0.226623
     28          1           0       -4.972175    0.656342    1.965190
     29          1           0       -2.554143    0.021742    2.139799
     30          1           0       -2.482956   -0.907139   -2.049876
     31          1           0       -4.900756   -0.275568   -2.238152
     32          7           0       -0.992156   -0.842355    0.159503
     33          8           0       -0.427955   -1.221458   -0.864506
     34          8           0       -0.464145   -0.749227    1.265473
 ---------------------------------------------------------------------

 SCF Done:  E(RHF) =  -669.536914212     A.U. after   15 cycles
 E2 =    -0.2091999214D+01 EUMP2 =    -0.67162891342582D+03

 The electronic state is 1-A.
 Alpha  occ. eigenvalues --  -20.61156 -20.61139 -15.86142 -11.31403 -11.27952
 Alpha  occ. eigenvalues --  -11.27947 -11.27677 -11.26939 -11.26929 -11.20493
 Alpha  occ. eigenvalues --  -11.20261 -11.20073 -11.19947 -11.19874 -11.19731
 Alpha  occ. eigenvalues --   -1.60189  -1.39743  -1.19559  -1.08977  -1.07033
 Alpha  occ. eigenvalues --   -1.04942  -1.02307  -0.95828  -0.94770  -0.86346
 Alpha  occ. eigenvalues --   -0.85804  -0.82663  -0.78351  -0.77728  -0.76802
 Alpha  occ. eigenvalues --   -0.72345  -0.71501  -0.70666  -0.65212  -0.64946
 Alpha  occ. eigenvalues --   -0.63648  -0.62288  -0.59708  -0.58157  -0.56379
 Alpha  occ. eigenvalues --   -0.55452  -0.54067  -0.53277  -0.53032  -0.51538
 Alpha  occ. eigenvalues --   -0.51216  -0.49190  -0.49119  -0.48707  -0.46684
 Alpha  occ. eigenvalues --   -0.45372  -0.45164  -0.44371  -0.44110  -0.42498
 Alpha  occ. eigenvalues --   -0.37531  -0.36538
 Alpha virt. eigenvalues --    0.04755   0.11118   0.16274   0.21257   0.24211
 Alpha virt. eigenvalues --    0.25394   0.27189   0.27899   0.28229   0.28780
 Alpha virt. eigenvalues --    0.29342   0.30899   0.32350   0.32474   0.32831

 Mulliken charges:
               1
     1  C   -0.308231
     2  C   -0.298896
     3  C   -0.472831
     4  H    0.176101
     5  H    0.143844
     6  H    0.150457
     7  H    0.147020
     8  H    0.153634
     9  H    0.151381
    10  H    0.154723
    11  C   -0.295917
    12  C   -0.302682
    13  C   -0.475087
    14  H    0.149747
    15  H    0.141753
    16  H    0.169585
    17  H    0.147210
    18  H    0.150049
    19  H    0.154132
    20  H    0.156780
    21  C   -0.170201
    22  C   -0.218589
    23  C   -0.170498
    24  C    0.159704
    25  C   -0.170643
    26  C   -0.218620
    27  H    0.226477
    28  H    0.224340
    29  H    0.276389
    30  H    0.275979
    31  H    0.224234
    32  N    0.487124
    33  O   -0.460337
    34  O   -0.458129
 Sum of Mulliken charges =  -0.00000

 Dipole moment (field-independent basis, Debye):
    X=             -5.4650    Y=              1.1244    Z=             -0.3350  Tot=              5.5896
 Quadrupole moment (field-independent basis, Debye-Ang):
   XX=            -72.3205   YY=            -97.8629   ZZ=            -89.8230
   XY=             -0.3125   XZ=              1.2828   YZ=              1.5734

 Normal termination of Gaussian 16 at Thu May  6 12:06:59 2021.
