 Gaussian 16, Revision A.03,
 Gaussian 16:  EM64L-G16RevA.03 25-Dec-2016

 -------------
 #p 6-31g* mp2
 -------------

 ------------------------------------------------------
 Input file generated by CHIRIPA (05-May-2021 14:55:22)
 ------------------------------------------------------
 Symbolic Z-matrix:
 Charge =  0 Multiplicity = 1

                         Standard orientation:
 ---------------------------------------------------------------------
 Center     Atomic      Atomic             Coordinates (Angstroms)
 Number     Number       Type             X           Y           Z
 ---------------------------------------------------------------------
      1          6           0        4.635767    2.161771    0.461110
      2          6           0        3.237673    2.194414    0.433063
      3          6           0        2.507596    1.053103    0.088180
      4          6           0        3.211111   -0.109085   -0.224353
      5          6           0        4.603527   -0.173186   -0.205426
      6          6           0        5.313038    0.980158    0.142338
      7          1           0        5.194920    3.053042    0.730142
      8          1           0        2.709037    3.110676    0.680156
      9          1           0        1.424762    1.050511    0.058511
     10          1           0        5.102495   -1.101260   -0.456680
     11          1           0        6.398767    0.951885    0.163286
     12          7           0        2.449098   -1.323709   -0.590990
     13          8           0        3.092536   -2.335188   -0.862162
     14          8           0        1.222822   -1.241254   -0.600245
     15          6           0       -4.565073    0.497707   -0.135944
     16          6           0       -6.093444    0.494433   -0.181295
     17          6           0       -6.666887    1.729833   -0.876091
     18          1           0       -4.221891    1.403804    0.381898
     19          1           0       -4.174888    0.557024   -1.161436
     20          1           0       -6.480622    0.433743    0.843900
     21          1           0       -6.433031   -0.411857   -0.698920
     22          1           0       -6.308667    1.792117   -1.908758
     23          1           0       -6.356529    2.642522   -0.357171
     24          1           0       -7.760910    1.706956   -0.897301
     25          6           0       -3.976880   -0.730923    0.555595
     26          6           0       -2.448508   -0.727648    0.600947
     27          6           0       -1.875066   -1.963049    1.295743
     28          1           0       -4.367064   -0.790240    1.581087
     29          1           0       -4.320061   -1.637019    0.037754
     30          1           0       -2.108922    0.178641    1.118572
     31          1           0       -2.061330   -0.666959   -0.424248
     32          1           0       -2.185423   -2.875737    0.776823
     33          1           0       -2.233285   -2.025333    2.328410
     34          1           0       -0.781042   -1.940172    1.316952
 ---------------------------------------------------------------------

 SCF Done:  E(RHF) =  -669.536133024     A.U. after   15 cycles
 E2 =    -0.2091065308D+01 EUMP2 =    -0.67162719833221D+03

 The electronic state is 1-A.
 Alpha  occ. eigenvalues --  -20.60939 -20.60930 -15.85968 -11.31279 -11.27844
 Alpha  occ. eigenvalues --  -11.27835 -11.27582 -11.26850 -11.26840 -11.21232
 Alpha  occ. eigenvalues --  -11.20917 -11.20800 -11.20722 -11.20658 -11.19824
 Alpha  occ. eigenvalues --   -1.59999  -1.39555  -1.19449  -1.08856  -1.07828
 Alpha  occ. eigenvalues --   -1.04843  -1.02845  -0.95703  -0.95284  -0.86313
 Alpha  occ. eigenvalues --   -0.86243  -0.82531  -0.78950  -0.77645  -0.77561
 Alpha  occ. eigenvalues --   -0.72196  -0.71313  -0.70557  -0.65106  -0.64846
 Alpha  occ. eigenvalues --   -0.64466  -0.62190  -0.60249  -0.58686  -0.56864
 Alpha  occ. eigenvalues --   -0.55349  -0.54596  -0.53178  -0.52935  -0.51947
 Alpha  occ. eigenvalues --   -0.51719  -0.49266  -0.48950  -0.48935  -0.47254
 Alpha  occ. eigenvalues --   -0.46006  -0.45179  -0.45074  -0.44936  -0.43080
 Alpha  occ. eigenvalues --   -0.37429  -0.36445
 Alpha virt. eigenvalues --    0.04911   0.11209   0.16384   0.21191   0.23389
 Alpha virt. eigenvalues --    0.24743   0.26929   0.27238   0.27620   0.28447
 Alpha virt. eigenvalues --    0.28974   0.30782   0.31790   0.32048   0.32644

 Mulliken charges:
               1
     1  C   -0.170565
     2  C   -0.218623
     3  C   -0.171361
     4  C    0.157822
     5  C   -0.170765
     6  C   -0.218611
     7  H    0.225956
     8  H    0.223937
     9  H    0.276913
    10  H    0.275783
    11  H    0.223756
    12  N    0.490376
    13  O   -0.458781
    14  O   -0.461997
    15  C   -0.297496
    16  C   -0.299086
    17  C   -0.475300
    18  H    0.145750
    19  H    0.149624
    20  H    0.150958
    21  H    0.152403
    22  H    0.154886
    23  H    0.153350
    24  H    0.159224
    25  C   -0.297828
    26  C   -0.298779
    27  C   -0.478414
    28  H    0.146674
    29  H    0.150254
    30  H    0.140905
    31  H    0.161580
    32  H    0.155192
    33  H    0.145427
    34  H    0.176835
 Sum of Mulliken charges =  -0.00000

 Dipole moment (field-independent basis, Debye):
    X=              2.9613    Y=              4.2000    Z=              1.1946  Tot=              5.2760
 Quadrupole moment (field-independent basis, Debye-Ang):
   XX=            -75.0500   YY=            -95.3058   ZZ=            -95.8180
   XY=             11.8406   XZ=              3.0281   YZ=              0.2874

 Normal termination of Gaussian 16 at Thu May  6 06:14:10 2021.
