 Gaussian 16, Revision A.03,
 Gaussian 16:  EM64L-G16RevA.03 25-Dec-2016

 -------------
 #p 6-31g* mp2
 -------------

 ------------------------------------------------------
 Input file generated by CHIRIPA (05-May-2021 14:57:21)
 ------------------------------------------------------
 Symbolic Z-matrix:
 Charge =  0 Multiplicity = 1

                         Standard orientation:
 ---------------------------------------------------------------------
 Center     Atomic      Atomic             Coordinates (Angstroms)
 Number     Number       Type             X           Y           Z
 ---------------------------------------------------------------------
      1          6           0        3.106202    2.347303   -0.004583
      2          6           0        4.339627    2.033636   -0.584925
      3          6           0        4.798112    0.713104   -0.608045
      4          6           0        3.993874   -0.273218   -0.039133
      5          6           0        2.760397    0.007629    0.546485
      6          6           0        2.321906    1.335083    0.558277
      7          1           0        2.757806    3.375813    0.008977
      8          1           0        4.950832    2.817688   -1.022801
      9          1           0        5.748943    0.442331   -1.050788
     10          1           0        2.173362   -0.795567    0.975069
     11          1           0        1.363588    1.575753    1.009664
     12          7           0        4.468668   -1.674871   -0.057613
     13          8           0        3.741354   -2.525574    0.450280
     14          8           0        5.559136   -1.896242   -0.579641
     15          6           0       -1.969018    1.552938    0.578629
     16          6           0       -3.131949    2.085598    0.012603
     17          6           0       -4.216707    1.257957   -0.292128
     18          6           0       -4.103813   -0.103842   -0.016363
     19          6           0       -2.958627   -0.664496    0.547113
     20          6           0       -1.886215    0.182008    0.843610
     21          1           0       -1.131147    2.203196    0.812152
     22          1           0       -3.199067    3.149902   -0.194271
     23          1           0       -5.128895    1.643898   -0.730738
     24          1           0       -2.921341   -1.729435    0.741879
     25          1           0       -0.984312   -0.234434    1.283148
     26          7           0       -5.245663   -0.990014   -0.334609
     27          8           0       -5.121196   -2.186395   -0.081988
     28          8           0       -6.243489   -0.471434   -0.830648
 ---------------------------------------------------------------------

 SCF Done:  E(RHF) =  -868.335871994     A.U. after   16 cycles
 E2 =    -0.2600227660D+01 EUMP2 =    -0.87093609965433D+03

 The electronic state is 1-A.
 Alpha  occ. eigenvalues --  -20.61361 -20.61351 -20.61110 -20.61102 -15.86421
 Alpha  occ. eigenvalues --  -15.86168 -11.31944 -11.31696 -11.28630 -11.28492
 Alpha  occ. eigenvalues --  -11.28343 -11.28284 -11.28277 -11.28214 -11.27742
 Alpha  occ. eigenvalues --  -11.27524 -11.27443 -11.27370  -1.60430  -1.60180
 Alpha  occ. eigenvalues --   -1.39981  -1.39728  -1.20146  -1.19906  -1.09513
 Alpha  occ. eigenvalues --   -1.09303  -1.05595  -1.05329  -0.96317  -0.96103
 Alpha  occ. eigenvalues --   -0.86993  -0.86743  -0.83164  -0.82923  -0.78191
 Alpha  occ. eigenvalues --   -0.77907  -0.72637  -0.72386  -0.71755  -0.71504
 Alpha  occ. eigenvalues --   -0.71267  -0.71111  -0.65814  -0.65715  -0.65547
 Alpha  occ. eigenvalues --   -0.65331  -0.62981  -0.62632  -0.56122  -0.55928
 Alpha  occ. eigenvalues --   -0.53884  -0.53711  -0.53627  -0.53445  -0.49408
 Alpha  occ. eigenvalues --   -0.49381  -0.49160  -0.49126  -0.45352  -0.45097
 Alpha  occ. eigenvalues --   -0.38128  -0.37934  -0.37185  -0.36908
 Alpha virt. eigenvalues --    0.04388   0.04621   0.10438   0.10720   0.15800
 Alpha virt. eigenvalues --    0.16054   0.17075   0.22256   0.24261   0.24751
 Alpha virt. eigenvalues --    0.28066   0.28752   0.30341   0.30949   0.33156

 Mulliken charges:
               1
     1  C   -0.170816
     2  C   -0.217987
     3  C   -0.169257
     4  C    0.159769
     5  C   -0.170966
     6  C   -0.218883
     7  H    0.224990
     8  H    0.226302
     9  H    0.278523
    10  H    0.272731
    11  H    0.214864
    12  N    0.488170
    13  O   -0.459803
    14  O   -0.457558
    15  C   -0.171311
    16  C   -0.217783
    17  C   -0.169810
    18  C    0.159239
    19  C   -0.169303
    20  C   -0.217621
    21  H    0.216584
    22  H    0.223955
    23  H    0.277528
    24  H    0.279580
    25  H    0.217865
    26  N    0.487899
    27  O   -0.457737
    28  O   -0.459162
 Sum of Mulliken charges =  -0.00000

 Dipole moment (field-independent basis, Debye):
    X=              2.3855    Y=              7.9506    Z=              1.0407  Tot=              8.3657
 Quadrupole moment (field-independent basis, Debye-Ang):
   XX=           -144.9300   YY=           -105.3463   ZZ=           -104.6956
   XY=              6.2712   XZ=             -5.8091   YZ=             -2.9457

 Normal termination of Gaussian 16 at Thu May  6 03:19:38 2021.
