 Gaussian 16, Revision A.03,
 Gaussian 16:  EM64L-G16RevA.03 25-Dec-2016

 -------------
 #p 6-31g* mp2
 -------------

 ------------------------------------------------------
 Input file generated by CHIRIPA (05-May-2021 14:53:15)
 ------------------------------------------------------
 Symbolic Z-matrix:
 Charge =  0 Multiplicity = 1

                         Standard orientation:
 ---------------------------------------------------------------------
 Center     Atomic      Atomic             Coordinates (Angstroms)
 Number     Number       Type             X           Y           Z
 ---------------------------------------------------------------------
      1          6           0       -3.221143    0.648401   -0.061687
      2          6           0       -3.242652   -0.856631   -0.330762
      3          6           0       -4.650941   -1.389651   -0.596100
      4          1           0       -3.866772    0.869798    0.799180
      5          1           0       -3.656966    1.174011   -0.922610
      6          1           0       -2.805652   -1.379158    0.529827
      7          1           0       -2.596745   -1.074494   -1.190969
      8          1           0       -5.092354   -0.894805   -1.467239
      9          1           0       -5.302447   -1.201200    0.263334
     10          1           0       -4.643088   -2.467494   -0.785977
     11          6           0       -1.820278    1.196118    0.205352
     12          6           0       -1.798769    2.701150    0.474427
     13          6           0       -0.390480    3.234171    0.739765
     14          1           0       -1.384455    0.670508    1.066275
     15          1           0       -1.174648    0.974721   -0.655514
     16          1           0       -2.444675    2.919013    1.334634
     17          1           0       -2.235769    3.223677   -0.386162
     18          1           0        0.261027    3.045719   -0.119669
     19          1           0        0.050933    2.739324    1.610904
     20          1           0       -0.398333    4.312013    0.929642
     21          6           0        0.305168   -2.426559    0.772128
     22          6           0        1.304980   -1.951450    1.627213
     23          6           0        2.232385   -1.006139    1.179044
     24          6           0        2.130188   -0.555581   -0.136191
     25          6           0        1.145491   -1.009746   -1.012203
     26          6           0        0.228750   -1.955021   -0.542534
     27          1           0       -0.411119   -3.160884    1.128626
     28          1           0        1.366738   -2.315871    2.648696
     29          1           0        3.016499   -0.621386    1.819785
     30          1           0        1.109324   -0.627716   -2.025200
     31          1           0       -0.546658   -2.322221   -1.208830
     32          7           0        3.106345    0.445158   -0.622028
     33          8           0        2.994867    0.826264   -1.785200
     34          8           0        3.964451    0.829481    0.169543
 ---------------------------------------------------------------------

 SCF Done:  E(RHF) =  -669.534009736     A.U. after   15 cycles
 E2 =    -0.2095168706D+01 EUMP2 =    -0.67162917844137D+03

 The electronic state is 1-A.
 Alpha  occ. eigenvalues --  -20.60776 -20.60771 -15.85828 -11.31190 -11.27744
 Alpha  occ. eigenvalues --  -11.27716 -11.27471 -11.26789 -11.26707 -11.22328
 Alpha  occ. eigenvalues --  -11.21788 -11.21715 -11.21616 -11.21490 -11.20915
 Alpha  occ. eigenvalues --   -1.59849  -1.39404  -1.19355  -1.08815  -1.08700
 Alpha  occ. eigenvalues --   -1.04761  -1.03846  -0.96256  -0.95588  -0.87281
 Alpha  occ. eigenvalues --   -0.86159  -0.82428  -0.79984  -0.78552  -0.77454
 Alpha  occ. eigenvalues --   -0.72046  -0.71168  -0.70466  -0.65428  -0.65001
 Alpha  occ. eigenvalues --   -0.64774  -0.62129  -0.61237  -0.59674  -0.57878
 Alpha  occ. eigenvalues --   -0.55533  -0.55258  -0.53278  -0.52984  -0.52815
 Alpha  occ. eigenvalues --   -0.52583  -0.50198  -0.48817  -0.48802  -0.48242
 Alpha  occ. eigenvalues --   -0.47011  -0.46027  -0.45968  -0.44803  -0.44075
 Alpha  occ. eigenvalues --   -0.37289  -0.36248
 Alpha virt. eigenvalues --    0.05020   0.11201   0.16396   0.20404   0.22862
 Alpha virt. eigenvalues --    0.23937   0.25232   0.26380   0.27575   0.28384
 Alpha virt. eigenvalues --    0.28801   0.29552   0.31349   0.31729   0.31833

 Mulliken charges:
               1
     1  C   -0.298096
     2  C   -0.299682
     3  C   -0.475522
     4  H    0.150449
     5  H    0.151077
     6  H    0.147467
     7  H    0.144059
     8  H    0.158115
     9  H    0.157541
    10  H    0.156626
    11  C   -0.299806
    12  C   -0.300125
    13  C   -0.477124
    14  H    0.150598
    15  H    0.149958
    16  H    0.150376
    17  H    0.152286
    18  H    0.160795
    19  H    0.153756
    20  H    0.161964
    21  C   -0.172932
    22  C   -0.219077
    23  C   -0.171802
    24  C    0.160831
    25  C   -0.173653
    26  C   -0.209842
    27  H    0.225532
    28  H    0.223288
    29  H    0.275493
    30  H    0.274488
    31  H    0.226021
    32  N    0.488188
    33  O   -0.461295
    34  O   -0.459953
 Sum of Mulliken charges =  -0.00000

 Dipole moment (field-independent basis, Debye):
    X=             -3.4072    Y=             -3.4581    Z=              1.7233  Tot=              5.1514
 Quadrupole moment (field-independent basis, Debye-Ang):
   XX=           -110.0735   YY=            -91.7225   ZZ=            -90.4700
   XY=             -6.1937   XZ=              6.1302   YZ=             -0.8644

 Normal termination of Gaussian 16 at Thu May  6 10:37:17 2021.
