 Gaussian 16, Revision A.03,
 Gaussian 16:  EM64L-G16RevA.03 25-Dec-2016

 -------------
 #p 6-31g* mp2
 -------------

 ------------------------------------------------------
 Input file generated by CHIRIPA (05-May-2021 14:57:23)
 ------------------------------------------------------
 Symbolic Z-matrix:
 Charge =  0 Multiplicity = 1

                         Standard orientation:
 ---------------------------------------------------------------------
 Center     Atomic      Atomic             Coordinates (Angstroms)
 Number     Number       Type             X           Y           Z
 ---------------------------------------------------------------------
      1          6           0        2.268766   -1.364463    1.964606
      2          6           0        1.692859   -1.452568    0.692958
      3          6           0        2.250803   -0.764158   -0.388401
      4          6           0        3.389938    0.006609   -0.161288
      5          6           0        3.986923    0.114385    1.093815
      6          6           0        3.411945   -0.582646    2.160630
      7          1           0        1.828726   -1.902586    2.798983
      8          1           0        0.805037   -2.058981    0.537781
      9          1           0        1.825421   -0.814723   -1.383344
     10          1           0        4.871795    0.726857    1.217503
     11          1           0        3.861347   -0.512373    3.147111
     12          7           0        3.989625    0.739961   -1.298376
     13          8           0        4.993334    1.412279   -1.072116
     14          8           0        3.444595    0.628559   -2.394355
     15          6           0       -3.360531    2.485384    0.833450
     16          6           0       -2.221956    1.699324    1.039068
     17          6           0       -2.172395    0.384248    0.567194
     18          6           0       -3.284390   -0.114975   -0.109218
     19          6           0       -4.433203    0.643222   -0.329797
     20          6           0       -4.460582    1.955757    0.150878
     21          1           0       -3.390416    3.505981    1.203431
     22          1           0       -1.366164    2.108008    1.568825
     23          1           0       -1.303674   -0.246329    0.712507
     24          1           0       -5.270719    0.208093   -0.861445
     25          1           0       -5.346148    2.563911   -0.010261
     26          7           0       -3.243664   -1.505843   -0.613428
     27          8           0       -4.236487   -1.922245   -1.206343
     28          8           0       -2.219691   -2.153268   -0.406166
 ---------------------------------------------------------------------

 SCF Done:  E(RHF) =  -868.339629565     A.U. after   16 cycles
 E2 =    -0.2599633524D+01 EUMP2 =    -0.87093926308827D+03

 The electronic state is 1-A.
 Alpha  occ. eigenvalues --  -20.61460 -20.61402 -20.60822 -20.60811 -15.86475
 Alpha  occ. eigenvalues --  -15.85871 -11.31631 -11.31247 -11.28192 -11.28150
 Alpha  occ. eigenvalues --  -11.27858 -11.27851 -11.27761 -11.27550 -11.27140
 Alpha  occ. eigenvalues --  -11.27123 -11.26855 -11.26674  -1.60490  -1.59896
 Alpha  occ. eigenvalues --   -1.40058  -1.39448  -1.19780  -1.19424  -1.09208
 Alpha  occ. eigenvalues --   -1.08812  -1.05155  -1.04802  -0.96081  -0.95643
 Alpha  occ. eigenvalues --   -0.86567  -0.86189  -0.82928  -0.82453  -0.78018
 Alpha  occ. eigenvalues --   -0.77488  -0.72706  -0.72084  -0.71798  -0.71225
 Alpha  occ. eigenvalues --   -0.70892  -0.70508  -0.65440  -0.65176  -0.65053
 Alpha  occ. eigenvalues --   -0.64729  -0.62541  -0.62075  -0.55656  -0.55295
 Alpha  occ. eigenvalues --   -0.53490  -0.53332  -0.53097  -0.52816  -0.49468
 Alpha  occ. eigenvalues --   -0.49414  -0.48845  -0.48839  -0.45507  -0.44850
 Alpha  occ. eigenvalues --   -0.37740  -0.37428  -0.36754  -0.36421
 Alpha virt. eigenvalues --    0.04521   0.04998   0.10904   0.11095   0.16071
 Alpha virt. eigenvalues --    0.16384   0.20582   0.21792   0.26039   0.27307
 Alpha virt. eigenvalues --    0.28350   0.28683   0.30331   0.31262   0.32139

 Mulliken charges:
               1
     1  C   -0.174561
     2  C   -0.236285
     3  C   -0.174390
     4  C    0.157851
     5  C   -0.171795
     6  C   -0.219482
     7  H    0.227439
     8  H    0.246655
     9  H    0.280666
    10  H    0.275270
    11  H    0.222962
    12  N    0.487860
    13  O   -0.461314
    14  O   -0.458803
    15  C   -0.169649
    16  C   -0.219903
    17  C   -0.172635
    18  C    0.158168
    19  C   -0.169844
    20  C   -0.218422
    21  H    0.227733
    22  H    0.225729
    23  H    0.272012
    24  H    0.276585
    25  H    0.225322
    26  N    0.491489
    27  O   -0.455218
    28  O   -0.473442
 Sum of Mulliken charges =  -0.00000

 Dipole moment (field-independent basis, Debye):
    X=             -2.4284    Y=              2.3534    Z=              5.7199  Tot=              6.6447
 Quadrupole moment (field-independent basis, Debye-Ang):
   XX=           -111.2886   YY=           -106.2209   ZZ=           -105.0960
   XY=            -24.6087   XZ=             12.6057   YZ=              0.8380

 Normal termination of Gaussian 16 at Thu May  6 16:17:32 2021.
