 Gaussian 16, Revision A.03,
 Gaussian 16:  EM64L-G16RevA.03 25-Dec-2016

 -------------
 #p 6-31g* mp2
 -------------

 ------------------------------------------------------
 Input file generated by CHIRIPA (05-May-2021 14:57:23)
 ------------------------------------------------------
 Symbolic Z-matrix:
 Charge =  0 Multiplicity = 1

                         Standard orientation:
 ---------------------------------------------------------------------
 Center     Atomic      Atomic             Coordinates (Angstroms)
 Number     Number       Type             X           Y           Z
 ---------------------------------------------------------------------
      1          6           0       -2.165913    2.596322    0.434457
      2          6           0       -3.525743    2.305955    0.282563
      3          6           0       -3.943847    1.010572   -0.036372
      4          6           0       -2.970773    0.025367   -0.196951
      5          6           0       -1.608504    0.283362   -0.052208
      6          6           0       -1.213313    1.585881    0.266882
      7          1           0       -1.850020    3.605378    0.682274
      8          1           0       -4.267762    3.088687    0.412114
      9          1           0       -4.990019    0.758158   -0.159781
     10          1           0       -0.892188   -0.517878   -0.187569
     11          1           0       -0.156564    1.808488    0.384235
     12          7           0       -3.401272   -1.349774   -0.534675
     13          8           0       -2.524266   -2.200033   -0.670896
     14          8           0       -4.607553   -1.551312   -0.656768
     15          6           0        1.650957   -2.113863    1.298765
     16          6           0        2.471356   -2.397438    0.201928
     17          6           0        3.168029   -1.373739   -0.447100
     18          6           0        3.020557   -0.072009    0.029390
     19          6           0        2.210807    0.242370    1.119692
     20          6           0        1.523526   -0.797186    1.753345
     21          1           0        1.113413   -2.915256    1.796973
     22          1           0        2.572217   -3.419052   -0.153287
     23          1           0        3.809889   -1.565172   -1.298443
     24          1           0        2.130250    1.270616    1.450807
     25          1           0        0.887099   -0.574013    2.604932
     26          7           0        3.753123    1.020129   -0.649569
     27          8           0        3.606325    2.158637   -0.210382
     28          8           0        4.460233    0.716957   -1.608067
 ---------------------------------------------------------------------

 SCF Done:  E(RHF) =  -868.338328790     A.U. after   16 cycles
 E2 =    -0.2601947367D+01 EUMP2 =    -0.87094027615669D+03

 The electronic state is 1-A.
 Alpha  occ. eigenvalues --  -20.61414 -20.61378 -20.61077 -20.61051 -15.86451
 Alpha  occ. eigenvalues --  -15.86116 -11.31860 -11.31358 -11.28477 -11.28308
 Alpha  occ. eigenvalues --  -11.28007 -11.27934 -11.27857 -11.27633 -11.27423
 Alpha  occ. eigenvalues --  -11.27290 -11.26909 -11.26856  -1.60472  -1.60143
 Alpha  occ. eigenvalues --   -1.40026  -1.39700  -1.20018  -1.19527  -1.09361
 Alpha  occ. eigenvalues --   -1.08944  -1.05434  -1.04891  -0.96199  -0.95794
 Alpha  occ. eigenvalues --   -0.86787  -0.86303  -0.83036  -0.82622  -0.78123
 Alpha  occ. eigenvalues --   -0.77682  -0.72659  -0.72338  -0.71801  -0.71467
 Alpha  occ. eigenvalues --   -0.71035  -0.70622  -0.65636  -0.65392  -0.65174
 Alpha  occ. eigenvalues --   -0.64878  -0.62793  -0.62224  -0.55790  -0.55427
 Alpha  occ. eigenvalues --   -0.53695  -0.53487  -0.53238  -0.52949  -0.49431
 Alpha  occ. eigenvalues --   -0.49410  -0.49096  -0.49080  -0.45422  -0.45133
 Alpha  occ. eigenvalues --   -0.37946  -0.37511  -0.37130  -0.36382
 Alpha virt. eigenvalues --    0.04382   0.04819   0.10457   0.11191   0.15803
 Alpha virt. eigenvalues --    0.16440   0.20335   0.21814   0.25741   0.27403
 Alpha virt. eigenvalues --    0.28033   0.28563   0.30251   0.31178   0.31838

 Mulliken charges:
               1
     1  C   -0.170977
     2  C   -0.219000
     3  C   -0.170799
     4  C    0.157609
     5  C   -0.177465
     6  C   -0.225359
     7  H    0.228416
     8  H    0.224234
     9  H    0.275548
    10  H    0.278902
    11  H    0.226708
    12  N    0.488241
    13  O   -0.464345
    14  O   -0.459500
    15  C   -0.170371
    16  C   -0.215652
    17  C   -0.170922
    18  C    0.159887
    19  C   -0.184471
    20  C   -0.222723
    21  H    0.234973
    22  H    0.230476
    23  H    0.278783
    24  H    0.271288
    25  H    0.227955
    26  N    0.488691
    27  O   -0.464358
    28  O   -0.455770
 Sum of Mulliken charges =  -0.00000

 Dipole moment (field-independent basis, Debye):
    X=             -0.8795    Y=              0.7501    Z=              3.5601  Tot=              3.7430
 Quadrupole moment (field-independent basis, Debye-Ang):
   XX=           -124.3780   YY=           -101.5620   ZZ=           -104.2098
   XY=            -29.9128   XZ=              1.6989   YZ=              0.9767

 Normal termination of Gaussian 16 at Fri May  7 06:26:18 2021.
