 Gaussian 16, Revision A.03,
 Gaussian 16:  EM64L-G16RevA.03 25-Dec-2016

 -------------
 #p 6-31g* mp2
 -------------

 ------------------------------------------------------
 Input file generated by CHIRIPA (05-May-2021 14:53:17)
 ------------------------------------------------------
 Symbolic Z-matrix:
 Charge =  0 Multiplicity = 1

                         Standard orientation:
 ---------------------------------------------------------------------
 Center     Atomic      Atomic             Coordinates (Angstroms)
 Number     Number       Type             X           Y           Z
 ---------------------------------------------------------------------
      1          6           0        3.180788   -0.480266   -0.287007
      2          6           0        4.502324   -1.153381    0.085071
      3          6           0        4.366210   -2.666065    0.261295
      4          1           0        2.435590   -0.694602    0.491251
      5          1           0        2.799298   -0.925739   -1.216208
      6          1           0        4.881904   -0.705813    1.012551
      7          1           0        5.244517   -0.937258   -0.694067
      8          1           0        4.010743   -3.131241   -0.663830
      9          1           0        3.646070   -2.898481    1.052485
     10          1           0        5.322672   -3.126964    0.527024
     11          6           0        3.300705    1.032046   -0.466622
     12          6           0        1.979169    1.705161   -0.838700
     13          6           0        2.115283    3.217845   -1.014923
     14          1           0        3.682195    1.477520    0.462579
     15          1           0        4.045903    1.246382   -1.244880
     16          1           0        1.236976    1.489038   -0.059561
     17          1           0        1.599589    1.257593   -1.766179
     18          1           0        2.835423    3.450261   -1.806114
     19          1           0        2.470750    3.683021   -0.089799
     20          1           0        1.158821    3.678744   -1.280653
     21          6           0       -0.849461    0.539830    2.016294
     22          6           0       -0.616797   -0.621986    1.272942
     23          6           0       -1.542043   -1.049961    0.316226
     24          6           0       -2.694478   -0.288565    0.127919
     25          6           0       -2.954745    0.873406    0.852747
     26          6           0       -2.015637    1.282508    1.804197
     27          1           0       -0.125323    0.864961    2.757448
     28          1           0        0.287997   -1.200743    1.435530
     29          1           0       -1.387031   -1.945494   -0.273187
     30          1           0       -3.865901    1.429438    0.668247
     31          1           0       -2.198959    2.185199    2.380035
     32          7           0       -3.681333   -0.731654   -0.882127
     33          8           0       -4.688852   -0.043217   -1.029094
     34          8           0       -3.428625   -1.758992   -1.507708
 ---------------------------------------------------------------------

 SCF Done:  E(RHF) =  -669.534890243     A.U. after   15 cycles
 E2 =    -0.2093134864D+01 EUMP2 =    -0.67162802510784D+03

 The electronic state is 1-A.
 Alpha  occ. eigenvalues --  -20.60793 -20.60788 -15.85846 -11.31233 -11.27798
 Alpha  occ. eigenvalues --  -11.27784 -11.27559 -11.26832 -11.26804 -11.22228
 Alpha  occ. eigenvalues --  -11.22113 -11.21945 -11.21886 -11.21702 -11.21432
 Alpha  occ. eigenvalues --   -1.59868  -1.39420  -1.19412  -1.09022  -1.08803
 Alpha  occ. eigenvalues --   -1.04812  -1.04045  -0.96519  -0.95637  -0.87530
 Alpha  occ. eigenvalues --   -0.86219  -0.82465  -0.80112  -0.78846  -0.77497
 Alpha  occ. eigenvalues --   -0.72065  -0.71190  -0.70523  -0.65724  -0.65063
 Alpha  occ. eigenvalues --   -0.64782  -0.62165  -0.61451  -0.59882  -0.58119
 Alpha  occ. eigenvalues --   -0.55835  -0.55320  -0.53272  -0.53106  -0.53011
 Alpha  occ. eigenvalues --   -0.52821  -0.50463  -0.48831  -0.48818  -0.48416
 Alpha  occ. eigenvalues --   -0.47152  -0.46351  -0.46287  -0.44821  -0.44322
 Alpha  occ. eigenvalues --   -0.37343  -0.36376
 Alpha virt. eigenvalues --    0.05008   0.11132   0.16437   0.19952   0.22864
 Alpha virt. eigenvalues --    0.23512   0.25305   0.26527   0.27406   0.28109
 Alpha virt. eigenvalues --    0.29333   0.30013   0.31237   0.31564   0.31829

 Mulliken charges:
               1
     1  C   -0.300183
     2  C   -0.299764
     3  C   -0.475583
     4  H    0.139577
     5  H    0.153003
     6  H    0.151363
     7  H    0.155510
     8  H    0.157644
     9  H    0.149490
    10  H    0.163354
    11  C   -0.298285
    12  C   -0.305984
    13  C   -0.475786
    14  H    0.146872
    15  H    0.152486
    16  H    0.155553
    17  H    0.154622
    18  H    0.156697
    19  H    0.152066
    20  H    0.162010
    21  C   -0.173211
    22  C   -0.216453
    23  C   -0.171533
    24  C    0.158982
    25  C   -0.170955
    26  C   -0.218203
    27  H    0.225810
    28  H    0.227459
    29  H    0.276233
    30  H    0.275825
    31  H    0.223850
    32  N    0.488004
    33  O   -0.460319
    34  O   -0.460153
 Sum of Mulliken charges =  -0.00000

 Dipole moment (field-independent basis, Debye):
    X=              3.4833    Y=              1.5545    Z=              3.4846  Tot=              5.1664
 Quadrupole moment (field-independent basis, Debye-Ang):
   XX=           -112.0057   YY=            -94.0689   ZZ=            -93.2530
   XY=             -7.9919   XZ=            -10.4309   YZ=              0.5568

 Normal termination of Gaussian 16 at Thu May  6 09:07:39 2021.
