 Gaussian 16, Revision A.03,
 Gaussian 16:  EM64L-G16RevA.03 25-Dec-2016

 -------------
 #p 6-31g* mp2
 -------------

 ------------------------------------------------------
 Input file generated by CHIRIPA (05-May-2021 14:57:25)
 ------------------------------------------------------
 Symbolic Z-matrix:
 Charge =  0 Multiplicity = 1

                         Standard orientation:
 ---------------------------------------------------------------------
 Center     Atomic      Atomic             Coordinates (Angstroms)
 Number     Number       Type             X           Y           Z
 ---------------------------------------------------------------------
      1          6           0        6.026822    0.936250   -0.104199
      2          6           0        5.779394   -0.287318   -0.735215
      3          6           0        4.521882   -0.891460   -0.644535
      4          6           0        3.530349   -0.241347    0.088612
      5          6           0        3.746001    0.978200    0.728525
      6          6           0        5.011126    1.563998    0.624373
      7          1           0        7.006644    1.398437   -0.179874
      8          1           0        6.566308   -0.777117   -1.301704
      9          1           0        4.303097   -1.838286   -1.123150
     10          1           0        2.941656    1.442411    1.286160
     11          1           0        5.200426    2.514281    1.115465
     12          7           0        2.195047   -0.871216    0.191742
     13          8           0        1.338315   -0.278165    0.843614
     14          8           0        2.030454   -1.946030   -0.381249
     15          6           0       -3.673001    2.642291   -0.365114
     16          6           0       -2.490974    1.895626   -0.407843
     17          6           0       -2.521947    0.507267   -0.246449
     18          6           0       -3.757908   -0.104612   -0.043241
     19          6           0       -4.952812    0.611790    0.004323
     20          6           0       -4.897987    1.999123   -0.159530
     21          1           0       -3.639677    3.720403   -0.491445
     22          1           0       -1.538202    2.392443   -0.567353
     23          1           0       -1.622057   -0.095056   -0.275122
     24          1           0       -5.887499    0.088350    0.164910
     25          1           0       -5.817558    2.576448   -0.125885
     26          7           0       -3.803322   -1.573864    0.128921
     27          8           0       -4.904939   -2.089132    0.306615
     28          8           0       -2.736441   -2.182373    0.082909
 ---------------------------------------------------------------------

 SCF Done:  E(RHF) =  -868.338264914     A.U. after   16 cycles
 E2 =    -0.2599119860D+01 EUMP2 =    -0.87093738477431D+03

 The electronic state is 1-A.
 Alpha  occ. eigenvalues --  -20.61139 -20.61083 -20.59675 -20.59608 -15.86143
 Alpha  occ. eigenvalues --  -15.84696 -11.31475 -11.30131 -11.28062 -11.28009
 Alpha  occ. eigenvalues --  -11.27766 -11.27053 -11.27017 -11.26825 -11.26612
 Alpha  occ. eigenvalues --  -11.26565 -11.25871 -11.25759  -1.60168  -1.58727
 Alpha  occ. eigenvalues --   -1.39725  -1.38270  -1.19641  -1.18352  -1.09040
 Alpha  occ. eigenvalues --   -1.07759  -1.05038  -1.03755  -0.95879  -0.94559
 Alpha  occ. eigenvalues --   -0.86436  -0.85162  -0.82713  -0.81379  -0.77768
 Alpha  occ. eigenvalues --   -0.76385  -0.72350  -0.71493  -0.70911  -0.70745
 Alpha  occ. eigenvalues --   -0.70058  -0.69471  -0.65293  -0.65036  -0.64006
 Alpha  occ. eigenvalues --   -0.63778  -0.62385  -0.61066  -0.55534  -0.54322
 Alpha  occ. eigenvalues --   -0.53370  -0.53127  -0.52112  -0.51849  -0.49113
 Alpha  occ. eigenvalues --   -0.49082  -0.47705  -0.47646  -0.45139  -0.43659
 Alpha  occ. eigenvalues --   -0.37618  -0.36640  -0.36397  -0.35366
 Alpha virt. eigenvalues --    0.04741   0.06127   0.11015   0.12275   0.16235
 Alpha virt. eigenvalues --    0.17565   0.21156   0.22364   0.27073   0.27935
 Alpha virt. eigenvalues --    0.28340   0.29344   0.30758   0.31858   0.32293

 Mulliken charges:
               1
     1  C   -0.170578
     2  C   -0.218485
     3  C   -0.170509
     4  C    0.158015
     5  C   -0.171941
     6  C   -0.218488
     7  H    0.226462
     8  H    0.224882
     9  H    0.277729
    10  H    0.273407
    11  H    0.223392
    12  N    0.487914
    13  O   -0.467316
    14  O   -0.450971
    15  C   -0.171527
    16  C   -0.220955
    17  C   -0.173844
    18  C    0.156017
    19  C   -0.171541
    20  C   -0.219894
    21  H    0.220573
    22  H    0.220876
    23  H    0.296034
    24  H    0.272755
    25  H    0.219166
    26  N    0.486743
    27  O   -0.466980
    28  O   -0.450938
 Sum of Mulliken charges =  -0.00000

 Dipole moment (field-independent basis, Debye):
    X=              5.3442    Y=              7.1358    Z=             -0.9995  Tot=              8.9711
 Quadrupole moment (field-independent basis, Debye-Ang):
   XX=            -69.0242   YY=           -105.2146   ZZ=           -104.7276
   XY=            -14.2003   XZ=             -0.4373   YZ=              2.7823

 Normal termination of Gaussian 16 at Fri May  7 05:01:38 2021.
