 Gaussian 16, Revision A.03,
 Gaussian 16:  EM64L-G16RevA.03 25-Dec-2016

 -------------
 #p 6-31g* mp2
 -------------

 ------------------------------------------------------
 Input file generated by CHIRIPA (05-May-2021 14:55:24)
 ------------------------------------------------------
 Symbolic Z-matrix:
 Charge =  0 Multiplicity = 1

                         Standard orientation:
 ---------------------------------------------------------------------
 Center     Atomic      Atomic             Coordinates (Angstroms)
 Number     Number       Type             X           Y           Z
 ---------------------------------------------------------------------
      1          6           0       -4.835353    1.247678   -0.858716
      2          6           0       -4.280850    1.673212    0.352882
      3          6           0       -3.204519    0.985629    0.921465
      4          6           0       -2.705324   -0.128400    0.248387
      5          6           0       -3.236118   -0.577018   -0.960038
      6          6           0       -4.312139    0.125899   -1.510160
      7          1           0       -5.671353    1.787765   -1.293234
      8          1           0       -4.685141    2.544065    0.861024
      9          1           0       -2.756120    1.293315    1.858314
     10          1           0       -2.811567   -1.448663   -1.443163
     11          1           0       -4.740769   -0.206857   -2.451221
     12          7           0       -1.566024   -0.864430    0.840548
     13          8           0       -1.144413   -1.842906    0.227795
     14          8           0       -1.116225   -0.448918    1.906225
     15          6           0        4.050740    0.602023   -0.526238
     16          6           0        4.108618    1.847015    0.359555
     17          6           0        4.806905    3.024760   -0.320964
     18          1           0        5.072423    0.311830   -0.807122
     19          1           0        3.527999    0.849297   -1.460579
     20          1           0        4.629877    1.597105    1.292533
     21          1           0        3.086688    2.134165    0.638520
     22          1           0        4.284584    3.302229   -1.242264
     23          1           0        5.836541    2.762117   -0.584535
     24          1           0        4.837101    3.904139    0.329912
     25          6           0        3.355582   -0.583864    0.140213
     26          6           0        3.297705   -1.828856   -0.745580
     27          6           0        2.599416   -3.006601   -0.065061
     28          1           0        3.878322   -0.831137    1.074554
     29          1           0        2.333898   -0.293671    0.421097
     30          1           0        4.319633   -2.116006   -1.024546
     31          1           0        2.776444   -1.578945   -1.678559
     32          1           0        1.569781   -2.743957    0.198509
     33          1           0        3.121738   -3.284070    0.856238
     34          1           0        2.569221   -3.885979   -0.715939
 ---------------------------------------------------------------------

 SCF Done:  E(RHF) =  -669.536614981     A.U. after   15 cycles
 E2 =    -0.2091238768D+01 EUMP2 =    -0.67162785374885D+03

 The electronic state is 1-A.
 Alpha  occ. eigenvalues --  -20.61086 -20.61069 -15.86095 -11.31372 -11.27927
 Alpha  occ. eigenvalues --  -11.27924 -11.27657 -11.26923 -11.26913 -11.20922
 Alpha  occ. eigenvalues --  -11.20572 -11.20560 -11.20387 -11.20210 -11.19374
 Alpha  occ. eigenvalues --   -1.60130  -1.39686  -1.19534  -1.08947  -1.07460
 Alpha  occ. eigenvalues --   -1.04922  -1.02519  -0.95796  -0.94951  -0.86325
 Alpha  occ. eigenvalues --   -0.85964  -0.82629  -0.78626  -0.77688  -0.77217
 Alpha  occ. eigenvalues --   -0.72310  -0.71440  -0.70641  -0.65189  -0.64924
 Alpha  occ. eigenvalues --   -0.64098  -0.62269  -0.59914  -0.58391  -0.56558
 Alpha  occ. eigenvalues --   -0.55429  -0.54227  -0.53257  -0.53012  -0.51671
 Alpha  occ. eigenvalues --   -0.51367  -0.49227  -0.49066  -0.48724  -0.46904
 Alpha  occ. eigenvalues --   -0.45663  -0.45094  -0.44764  -0.44620  -0.42785
 Alpha  occ. eigenvalues --   -0.37511  -0.36521
 Alpha virt. eigenvalues --    0.04821   0.11135   0.16325   0.21273   0.23757
 Alpha virt. eigenvalues --    0.25388   0.27200   0.27575   0.28141   0.28464
 Alpha virt. eigenvalues --    0.29127   0.30850   0.32318   0.32481   0.32614

 Mulliken charges:
               1
     1  C   -0.170394
     2  C   -0.218613
     3  C   -0.170554
     4  C    0.157561
     5  C   -0.170761
     6  C   -0.218576
     7  H    0.226320
     8  H    0.224133
     9  H    0.276076
    10  H    0.276119
    11  H    0.224151
    12  N    0.489358
    13  O   -0.460280
    14  O   -0.458499
    15  C   -0.297486
    16  C   -0.298815
    17  C   -0.475023
    18  H    0.146964
    19  H    0.145965
    20  H    0.151973
    21  H    0.152191
    22  H    0.152881
    23  H    0.154175
    24  H    0.157899
    25  C   -0.299714
    26  C   -0.297158
    27  C   -0.488607
    28  H    0.148358
    29  H    0.158857
    30  H    0.145410
    31  H    0.147380
    32  H    0.187048
    33  H    0.149579
    34  H    0.152078
 Sum of Mulliken charges =  -0.00000

 Dipole moment (field-independent basis, Debye):
    X=             -4.4159    Y=              2.5882    Z=             -1.9717  Tot=              5.4851
 Quadrupole moment (field-independent basis, Debye-Ang):
   XX=            -74.2056   YY=            -95.1609   ZZ=            -93.2183
   XY=             -7.3031   XZ=              5.7827   YZ=              3.8825

 Normal termination of Gaussian 16 at Wed May  5 23:59:54 2021.
