 Gaussian 16, Revision A.03,
 Gaussian 16:  EM64L-G16RevA.03 25-Dec-2016

 -------------
 #p 6-31g* mp2
 -------------

 ------------------------------------------------------
 Input file generated by CHIRIPA (05-May-2021 14:51:09)
 ------------------------------------------------------
 Symbolic Z-matrix:
 Charge =  0 Multiplicity = 1

                         Standard orientation:
 ---------------------------------------------------------------------
 Center     Atomic      Atomic             Coordinates (Angstroms)
 Number     Number       Type             X           Y           Z
 ---------------------------------------------------------------------
      1          6           0       -2.839969   -0.286653    0.517725
      2          6           0       -2.064884   -1.580938    0.268616
      3          6           0       -0.720210   -1.613983    0.995634
      4          1           0       -2.227463    0.567411    0.197793
      5          1           0       -3.003012   -0.167200    1.597791
      6          1           0       -1.904556   -1.698615   -0.810765
      7          1           0       -2.679383   -2.432032    0.589000
      8          1           0       -0.864525   -1.521542    2.076943
      9          1           0       -0.085295   -0.783958    0.669224
     10          1           0       -0.182895   -2.547959    0.803696
     11          6           0       -4.186379   -0.238652   -0.202417
     12          6           0       -4.961463    1.055633    0.046691
     13          6           0       -6.306137    1.088678   -0.680327
     14          1           0       -4.023335   -0.358105   -1.282483
     15          1           0       -4.798885   -1.092716    0.117514
     16          1           0       -4.346964    1.906727   -0.273693
     17          1           0       -5.121791    1.173310    1.126072
     18          1           0       -6.941052    0.258653   -0.353917
     19          1           0       -6.161822    0.996237   -1.761635
     20          1           0       -6.843452    2.022654   -0.488389
     21          6           0        3.173939   -0.367426   -0.424772
     22          6           0        3.920226   -1.654258   -0.071064
     23          6           0        3.229264   -2.906190   -0.612386
     24          1           0        2.150847   -0.423675   -0.028459
     25          1           0        3.082319   -0.293419   -1.517257
     26          1           0        4.011626   -1.725127    1.020376
     27          1           0        4.941720   -1.594860   -0.468098
     28          1           0        3.151525   -2.861972   -1.703533
     29          1           0        2.216146   -2.992979   -0.206602
     30          1           0        3.779586   -3.814545   -0.348006
     31          6           0        3.852408    0.892732    0.109465
     32          6           0        3.106121    2.179562   -0.244244
     33          6           0        3.797084    3.431495    0.297079
     34          1           0        3.944028    0.818724    1.201949
     35          1           0        4.875500    0.948980   -0.286848
     36          1           0        2.084627    2.120165    0.152790
     37          1           0        3.014721    2.250431   -1.335683
     38          1           0        4.810201    3.518285   -0.108705
     39          1           0        3.874822    3.387278    1.388226
     40          1           0        3.246761    4.339851    0.032699
 ---------------------------------------------------------------------

 SCF Done:  E(RHF) =  -470.733053777     A.U. after   11 cycles
 E2 =    -0.1583136872D+01 EUMP2 =    -0.47231619064955D+03

 The electronic state is 1-A.
 Alpha  occ. eigenvalues --  -11.21649 -11.21620 -11.21602 -11.21548 -11.21437
 Alpha  occ. eigenvalues --  -11.21376 -11.21359 -11.21285 -11.21151 -11.21084
 Alpha  occ. eigenvalues --  -11.21066 -11.21007  -1.08466  -1.08393  -1.03575
 Alpha  occ. eigenvalues --   -1.03492  -0.96027  -0.95945  -0.87048  -0.86963
 Alpha  occ. eigenvalues --   -0.79664  -0.79539  -0.78292  -0.78191  -0.65142
 Alpha  occ. eigenvalues --   -0.64990  -0.61018  -0.60859  -0.59420  -0.59289
 Alpha  occ. eigenvalues --   -0.57702  -0.57503  -0.55377  -0.55187  -0.52746
 Alpha  occ. eigenvalues --   -0.52643  -0.52526  -0.52285  -0.50052  -0.49834
 Alpha  occ. eigenvalues --   -0.47951  -0.47875  -0.46773  -0.46552  -0.45897
 Alpha  occ. eigenvalues --   -0.45764  -0.45714  -0.45451  -0.43806  -0.43746
 Alpha virt. eigenvalues --    0.21167   0.23080   0.23561   0.24537   0.25540
 Alpha virt. eigenvalues --    0.26572   0.26863   0.27202   0.27845   0.29290
 Alpha virt. eigenvalues --    0.30118   0.31576   0.31719   0.31862   0.32045

 Mulliken charges:
               1
     1  C   -0.298764
     2  C   -0.299179
     3  C   -0.484744
     4  H    0.149832
     5  H    0.149519
     6  H    0.152750
     7  H    0.152197
     8  H    0.155558
     9  H    0.160123
    10  H    0.163313
    11  C   -0.298329
    12  C   -0.299703
    13  C   -0.475733
    14  H    0.149749
    15  H    0.149737
    16  H    0.152036
    17  H    0.151918
    18  H    0.155206
    19  H    0.155262
    20  H    0.160320
    21  C   -0.307253
    22  C   -0.298585
    23  C   -0.480232
    24  H    0.158903
    25  H    0.148799
    26  H    0.151923
    27  H    0.151612
    28  H    0.154739
    29  H    0.159588
    30  H    0.159843
    31  C   -0.297672
    32  C   -0.299644
    33  C   -0.475641
    34  H    0.149580
    35  H    0.149541
    36  H    0.150965
    37  H    0.151774
    38  H    0.155267
    39  H    0.155325
    40  H    0.160099
 Sum of Mulliken charges =  -0.00000

 Dipole moment (field-independent basis, Debye):
    X=             -0.0423    Y=             -0.0054    Z=              0.0109  Tot=              0.0440
 Quadrupole moment (field-independent basis, Debye-Ang):
   XX=            -85.5094   YY=            -85.6680   ZZ=            -83.6861
   XY=              0.0803   XZ=             -1.3826   YZ=             -0.6852

 Normal termination of Gaussian 16 at Wed May  5 21:22:02 2021.
