 Gaussian 16, Revision A.03,
 Gaussian 16:  EM64L-G16RevA.03 25-Dec-2016

 -------------
 #p 6-31g* mp2
 -------------

 ------------------------------------------------------
 Input file generated by CHIRIPA (05-May-2021 14:55:22)
 ------------------------------------------------------
 Symbolic Z-matrix:
 Charge =  0 Multiplicity = 1

                         Standard orientation:
 ---------------------------------------------------------------------
 Center     Atomic      Atomic             Coordinates (Angstroms)
 Number     Number       Type             X           Y           Z
 ---------------------------------------------------------------------
      1          6           0        1.923539    2.314460   -0.297462
      2          6           0        1.061273    1.217457   -0.395460
      3          6           0        1.550178   -0.084727   -0.254616
      4          6           0        2.913027   -0.254125   -0.015374
      5          6           0        3.797403    0.818533    0.087464
      6          6           0        3.286449    2.111854   -0.056737
      7          1           0        1.535182    3.322586   -0.408176
      8          1           0        0.002362    1.371802   -0.582355
      9          1           0        0.904947   -0.951914   -0.325897
     10          1           0        4.848156    0.633036    0.274352
     11          1           0        3.958433    2.961922    0.019851
     12          7           0        3.442279   -1.627997    0.135508
     13          8           0        4.647022   -1.750526    0.345789
     14          8           0        2.642343   -2.556296    0.040631
     15          6           0       -3.942893   -0.591961    0.340643
     16          6           0       -3.792153   -1.821529   -0.555698
     17          6           0       -4.449235   -3.068765    0.036281
     18          1           0       -3.504166   -0.807341    1.324552
     19          1           0       -5.011298   -0.399230    0.510229
     20          1           0       -2.724379   -2.011062   -0.724672
     21          1           0       -4.231118   -1.603131   -1.537649
     22          1           0       -5.520762   -2.904060    0.188931
     23          1           0       -4.005462   -3.314308    1.006526
     24          1           0       -4.329485   -3.935853   -0.620742
     25          6           0       -3.291154    0.662858   -0.237626
     26          6           0       -3.441894    1.892425    0.658715
     27          6           0       -2.784811    3.139662    0.066736
     28          1           0       -2.222749    0.470127   -0.407212
     29          1           0       -3.729880    0.878237   -1.221535
     30          1           0       -3.002928    1.674027    1.640666
     31          1           0       -4.509668    2.081958    0.827689
     32          1           0       -3.228584    3.385205   -0.903510
     33          1           0       -1.713284    2.974956   -0.085914
     34          1           0       -2.904562    4.006749    0.723759
 ---------------------------------------------------------------------

 SCF Done:  E(RHF) =  -669.535005098     A.U. after   15 cycles
 E2 =    -0.2092102604D+01 EUMP2 =    -0.67162710770140D+03

 The electronic state is 1-A.
 Alpha  occ. eigenvalues --  -20.60750 -20.60745 -15.85803 -11.31163 -11.27730
 Alpha  occ. eigenvalues --  -11.27727 -11.27463 -11.26743 -11.26693 -11.22481
 Alpha  occ. eigenvalues --  -11.22315 -11.22178 -11.22052 -11.21964 -11.21321
 Alpha  occ. eigenvalues --   -1.59825  -1.39379  -1.19332  -1.09168  -1.08727
 Alpha  occ. eigenvalues --   -1.04738  -1.04210  -0.96680  -0.95564  -0.87694
 Alpha  occ. eigenvalues --   -0.86141  -0.82403  -0.80298  -0.78960  -0.77446
 Alpha  occ. eigenvalues --   -0.72022  -0.71148  -0.70442  -0.65889  -0.64985
 Alpha  occ. eigenvalues --   -0.64723  -0.62163  -0.61519  -0.60056  -0.58272
 Alpha  occ. eigenvalues --   -0.55996  -0.55234  -0.53342  -0.53114  -0.53059
 Alpha  occ. eigenvalues --   -0.52854  -0.50636  -0.48803  -0.48777  -0.48568
 Alpha  occ. eigenvalues --   -0.47308  -0.46476  -0.46379  -0.44786  -0.44471
 Alpha  occ. eigenvalues --   -0.37310  -0.36336
 Alpha virt. eigenvalues --    0.05087   0.11282   0.16571   0.18765   0.22555
 Alpha virt. eigenvalues --    0.23497   0.24717   0.25891   0.26560   0.28394
 Alpha virt. eigenvalues --    0.29629   0.30137   0.31051   0.31289   0.31709

 Mulliken charges:
               1
     1  C   -0.173112
     2  C   -0.228883
     3  C   -0.173596
     4  C    0.158941
     5  C   -0.171235
     6  C   -0.218500
     7  H    0.226313
     8  H    0.238130
     9  H    0.274858
    10  H    0.275531
    11  H    0.223365
    12  N    0.487978
    13  O   -0.460519
    14  O   -0.460581
    15  C   -0.298984
    16  C   -0.299923
    17  C   -0.476329
    18  H    0.152235
    19  H    0.152315
    20  H    0.150712
    21  H    0.152757
    22  H    0.155446
    23  H    0.157636
    24  H    0.163444
    25  C   -0.302066
    26  C   -0.301097
    27  C   -0.477984
    28  H    0.140849
    29  H    0.152830
    30  H    0.155137
    31  H    0.156947
    32  H    0.158797
    33  H    0.143661
    34  H    0.164929
 Sum of Mulliken charges =  -0.00000

 Dipole moment (field-independent basis, Debye):
    X=             -2.1103    Y=              4.8016    Z=             -0.4802  Tot=              5.2668
 Quadrupole moment (field-independent basis, Debye-Ang):
   XX=            -99.7925   YY=            -97.6571   ZZ=            -95.3458
   XY=             16.0839   XZ=             -0.3877   YZ=              0.5855

 Normal termination of Gaussian 16 at Thu May  6 17:33:46 2021.
