 Gaussian 16, Revision A.03,
 Gaussian 16:  EM64L-G16RevA.03 25-Dec-2016

 -------------
 #p 6-31g* mp2
 -------------

 ------------------------------------------------------
 Input file generated by CHIRIPA (05-May-2021 14:51:12)
 ------------------------------------------------------
 Symbolic Z-matrix:
 Charge =  0 Multiplicity = 1

                         Standard orientation:
 ---------------------------------------------------------------------
 Center     Atomic      Atomic             Coordinates (Angstroms)
 Number     Number       Type             X           Y           Z
 ---------------------------------------------------------------------
      1          6           0        2.833052   -0.362553    0.169797
      2          6           0        3.395697    0.224908   -1.124925
      3          6           0        4.413938    1.337920   -0.875559
      4          1           0        2.364938    0.440009    0.756064
      5          1           0        3.661342   -0.751618    0.778040
      6          1           0        2.566461    0.611504   -1.731165
      7          1           0        3.862358   -0.579180   -1.708266
      8          1           0        5.260216    0.962054   -0.291486
      9          1           0        3.956956    2.159504   -0.314516
     10          1           0        4.803283    1.743609   -1.814540
     11          6           0        1.813780   -1.476370   -0.063068
     12          6           0        1.251136   -2.063831    1.231654
     13          6           0        0.232895   -3.176843    0.982288
     14          1           0        0.985491   -1.087304   -0.671311
     15          1           0        2.281895   -2.278932   -0.649334
     16          1           0        0.784475   -1.259743    1.814995
     17          1           0        2.080372   -2.450427    1.837895
     18          1           0        0.689876   -3.998426    0.421245
     19          1           0       -0.613383   -2.800977    0.398216
     20          1           0       -0.156450   -3.582532    1.921269
     21          6           0       -1.998337    1.312946    0.514901
     22          6           0       -1.355304    2.621990    0.055663
     23          6           0       -0.709143    3.397879    1.203821
     24          1           0       -2.753624    1.532182    1.281988
     25          1           0       -1.234988    0.687168    0.997699
     26          1           0       -2.119336    3.244532   -0.427360
     27          1           0       -0.601594    2.399630   -0.710557
     28          1           0        0.072771    2.798792    1.681633
     29          1           0       -1.453594    3.648493    1.966439
     30          1           0       -0.255577    4.330178    0.853170
     31          6           0       -2.648496    0.525976   -0.621629
     32          6           0       -3.291529   -0.783067   -0.162392
     33          6           0       -3.937689   -1.558957   -1.310551
     34          1           0       -3.411844    1.151756   -1.104428
     35          1           0       -1.893209    0.306741   -1.388717
     36          1           0       -4.045238   -0.560708    0.603828
     37          1           0       -2.527496   -1.405609    0.320631
     38          1           0       -3.193239   -1.809570   -2.073168
     39          1           0       -4.719604   -0.959868   -1.788362
     40          1           0       -4.391256   -2.491255   -0.959899
 ---------------------------------------------------------------------

 SCF Done:  E(RHF) =  -470.733382766     A.U. after   11 cycles
 E2 =    -0.1584088898D+01 EUMP2 =    -0.47231747166441D+03

 The electronic state is 1-A.
 Alpha  occ. eigenvalues --  -11.21677 -11.21669 -11.21654 -11.21617 -11.21478
 Alpha  occ. eigenvalues --  -11.21467 -11.21418 -11.21407 -11.21140 -11.21118
 Alpha  occ. eigenvalues --  -11.21100 -11.21093  -1.08521  -1.08464  -1.03605
 Alpha  occ. eigenvalues --   -1.03564  -0.96045  -0.96020  -0.87070  -0.87027
 Alpha  occ. eigenvalues --   -0.79692  -0.79602  -0.78316  -0.78296  -0.65398
 Alpha  occ. eigenvalues --   -0.64873  -0.61158  -0.60827  -0.59406  -0.59391
 Alpha  occ. eigenvalues --   -0.57672  -0.57613  -0.55410  -0.55244  -0.52727
 Alpha  occ. eigenvalues --   -0.52716  -0.52476  -0.52440  -0.50122  -0.49858
 Alpha  occ. eigenvalues --   -0.48046  -0.47901  -0.46831  -0.46503  -0.46004
 Alpha  occ. eigenvalues --   -0.45852  -0.45692  -0.45605  -0.43844  -0.43834
 Alpha virt. eigenvalues --    0.18165   0.21942   0.23836   0.24485   0.25630
 Alpha virt. eigenvalues --    0.25883   0.27452   0.27710   0.28757   0.29791
 Alpha virt. eigenvalues --    0.31208   0.31524   0.31694   0.31726   0.32498

 Mulliken charges:
               1
     1  C   -0.299054
     2  C   -0.299670
     3  C   -0.475878
     4  H    0.149775
     5  H    0.149997
     6  H    0.151594
     7  H    0.152167
     8  H    0.155295
     9  H    0.155625
    10  H    0.160429
    11  C   -0.299582
    12  C   -0.301797
    13  C   -0.481878
    14  H    0.149859
    15  H    0.150189
    16  H    0.153216
    17  H    0.152630
    18  H    0.155720
    19  H    0.160850
    20  H    0.160706
    21  C   -0.301792
    22  C   -0.299680
    23  C   -0.476310
    24  H    0.150163
    25  H    0.152108
    26  H    0.152428
    27  H    0.151565
    28  H    0.154877
    29  H    0.155650
    30  H    0.160628
    31  C   -0.298653
    32  C   -0.307600
    33  C   -0.475659
    34  H    0.150039
    35  H    0.149480
    36  H    0.152430
    37  H    0.158916
    38  H    0.155108
    39  H    0.155395
    40  H    0.160712
 Sum of Mulliken charges =  -0.00000

 Dipole moment (field-independent basis, Debye):
    X=             -0.0015    Y=             -0.0091    Z=              0.0063  Tot=              0.0112
 Quadrupole moment (field-independent basis, Debye-Ang):
   XX=            -84.1133   YY=            -85.0973   ZZ=            -85.2890
   XY=             -1.9600   XZ=             -0.5392   YZ=             -0.4307

 Normal termination of Gaussian 16 at Thu May  6 00:45:11 2021.
