 Gaussian 16, Revision A.03,
 Gaussian 16:  EM64L-G16RevA.03 25-Dec-2016

 -------------
 #p 6-31g* mp2
 -------------

 ------------------------------------------------------
 Input file generated by CHIRIPA (05-May-2021 14:57:24)
 ------------------------------------------------------
 Symbolic Z-matrix:
 Charge =  0 Multiplicity = 1

                         Standard orientation:
 ---------------------------------------------------------------------
 Center     Atomic      Atomic             Coordinates (Angstroms)
 Number     Number       Type             X           Y           Z
 ---------------------------------------------------------------------
      1          6           0       -1.633292   -2.354288    0.682938
      2          6           0       -1.580643   -1.197530    1.467578
      3          6           0       -2.385258   -0.095606    1.162770
      4          6           0       -3.234810   -0.185224    0.061171
      5          6           0       -3.309938   -1.323707   -0.739768
      6          6           0       -2.496250   -2.413580   -0.416293
      7          1           0       -1.004724   -3.205608    0.926971
      8          1           0       -0.911405   -1.148658    2.321848
      9          1           0       -2.364504    0.812292    1.753285
     10          1           0       -3.987042   -1.342657   -1.585102
     11          1           0       -2.539235   -3.310636   -1.027428
     12          7           0       -4.091422    0.974954   -0.271397
     13          8           0       -4.831458    0.870869   -1.247179
     14          8           0       -4.006579    1.966419    0.450016
     15          6           0        1.415236    2.254415    0.032718
     16          6           0        2.784089    2.531099    0.111498
     17          6           0        3.723013    1.498443    0.030295
     18          6           0        3.255890    0.194880   -0.130358
     19          6           0        1.898709   -0.112783   -0.212155
     20          6           0        0.977685    0.935682   -0.128573
     21          1           0        0.692810    3.062747    0.096723
     22          1           0        3.126781    3.554289    0.236756
     23          1           0        4.788593    1.684411    0.088367
     24          1           0        1.587484   -1.142810   -0.337060
     25          1           0       -0.084770    0.717847   -0.190060
     26          7           0        4.240412   -0.906715   -0.217584
     27          8           0        3.803222   -2.046662   -0.359083
     28          8           0        5.430627   -0.609338   -0.142801
 ---------------------------------------------------------------------

 SCF Done:  E(RHF) =  -868.337837196     A.U. after   16 cycles
 E2 =    -0.2602012268D+01 EUMP2 =    -0.87093984946428D+03

 The electronic state is 1-A.
 Alpha  occ. eigenvalues --  -20.61662 -20.61634 -20.61078 -20.61054 -15.86706
 Alpha  occ. eigenvalues --  -15.86116 -11.32182 -11.31392 -11.28701 -11.28644
 Alpha  occ. eigenvalues --  -11.28353 -11.27932 -11.27915 -11.27699 -11.27654
 Alpha  occ. eigenvalues --  -11.27572 -11.26904 -11.26761  -1.60729  -1.60144
 Alpha  occ. eigenvalues --   -1.40277  -1.39702  -1.20343  -1.19530  -1.09682
 Alpha  occ. eigenvalues --   -1.08933  -1.05733  -1.04901  -0.96505  -0.95789
 Alpha  occ. eigenvalues --   -0.87082  -0.86312  -0.83314  -0.82620  -0.78373
 Alpha  occ. eigenvalues --   -0.77702  -0.72907  -0.72335  -0.72068  -0.71467
 Alpha  occ. eigenvalues --   -0.71340  -0.70614  -0.65941  -0.65644  -0.65165
 Alpha  occ. eigenvalues --   -0.64920  -0.63024  -0.62308  -0.56119  -0.55423
 Alpha  occ. eigenvalues --   -0.54184  -0.53742  -0.53252  -0.52793  -0.49679
 Alpha  occ. eigenvalues --   -0.49664  -0.49101  -0.49076  -0.45658  -0.45127
 Alpha  occ. eigenvalues --   -0.38325  -0.37594  -0.37337  -0.36373
 Alpha virt. eigenvalues --    0.04101   0.04808   0.10211   0.11111   0.15527
 Alpha virt. eigenvalues --    0.16426   0.20514   0.21595   0.26548   0.26848
 Alpha virt. eigenvalues --    0.27528   0.28612   0.30449   0.31173   0.31641

 Mulliken charges:
               1
     1  C   -0.177186
     2  C   -0.218402
     3  C   -0.190214
     4  C    0.161158
     5  C   -0.171706
     6  C   -0.217310
     7  H    0.234421
     8  H    0.230947
     9  H    0.276580
    10  H    0.279134
    11  H    0.229675
    12  N    0.487806
    13  O   -0.456104
    14  O   -0.461503
    15  C   -0.174999
    16  C   -0.218171
    17  C   -0.171848
    18  C    0.159435
    19  C   -0.177662
    20  C   -0.225541
    21  H    0.230709
    22  H    0.224805
    23  H    0.275675
    24  H    0.269822
    25  H    0.235440
    26  N    0.488248
    27  O   -0.464169
    28  O   -0.459039
 Sum of Mulliken charges =  -0.00000

 Dipole moment (field-independent basis, Debye):
    X=             -0.7081    Y=             -0.2982    Z=              1.4747  Tot=              1.6628
 Quadrupole moment (field-independent basis, Debye-Ang):
   XX=           -144.0164   YY=            -98.4897   ZZ=           -102.6461
   XY=             29.2593   XZ=              0.1147   YZ=              1.6305

 Normal termination of Gaussian 16 at Thu May  6 12:58:27 2021.
