 Gaussian 16, Revision A.03,
 Gaussian 16:  EM64L-G16RevA.03 25-Dec-2016

 -------------
 #p 6-31g* mp2
 -------------

 ------------------------------------------------------
 Input file generated by CHIRIPA (05-May-2021 14:55:19)
 ------------------------------------------------------
 Symbolic Z-matrix:
 Charge =  0 Multiplicity = 1

                         Standard orientation:
 ---------------------------------------------------------------------
 Center     Atomic      Atomic             Coordinates (Angstroms)
 Number     Number       Type             X           Y           Z
 ---------------------------------------------------------------------
      1          6           0        3.013638    2.117166    0.411794
      2          6           0        2.256841    1.696240   -0.686659
      3          6           0        2.074160    0.334073   -0.942936
      4          6           0        2.665181   -0.584058   -0.076322
      5          6           0        3.424701   -0.195995    1.026324
      6          6           0        3.594130    1.171373    1.263279
      7          1           0        3.150402    3.177350    0.603371
      8          1           0        1.804852    2.428518   -1.349622
      9          1           0        1.493129   -0.019427   -1.786060
     10          1           0        3.862924   -0.949538    1.669403
     11          1           0        4.182378    1.495373    2.117113
     12          7           0        2.478800   -2.028875   -0.337403
     13          8           0        3.009909   -2.817849    0.441109
     14          8           0        1.805134   -2.344992   -1.315606
     15          6           0       -3.629102   -0.296425    0.114555
     16          6           0       -5.122585   -0.541439    0.332414
     17          6           0       -5.463681   -2.025102    0.474521
     18          1           0       -3.302665   -0.836918   -0.784473
     19          1           0       -3.067830   -0.723579    0.957115
     20          1           0       -5.680973   -0.112734   -0.509626
     21          1           0       -5.445546   -0.000145    1.230919
     22          1           0       -4.932335   -2.462721    1.325851
     23          1           0       -5.169099   -2.575948   -0.424584
     24          1           0       -6.536371   -2.177377    0.629464
     25          6           0       -3.272399    1.182016   -0.029326
     26          6           0       -1.778916    1.427031   -0.247184
     27          6           0       -1.437820    2.910693   -0.389293
     28          1           0       -3.833671    1.609171   -0.871887
     29          1           0       -3.598836    1.722509    0.869702
     30          1           0       -1.455956    0.885737   -1.145690
     31          1           0       -1.220529    0.998325    0.594855
     32          1           0       -1.732402    3.461540    0.509813
     33          1           0       -1.969167    3.348313   -1.240621
     34          1           0       -0.365131    3.062969   -0.544235
 ---------------------------------------------------------------------

 SCF Done:  E(RHF) =  -669.535127774     A.U. after   15 cycles
 E2 =    -0.2092277043D+01 EUMP2 =    -0.67162740481763D+03

 The electronic state is 1-A.
 Alpha  occ. eigenvalues --  -20.60776 -20.60771 -15.85831 -11.31207 -11.27785
 Alpha  occ. eigenvalues --  -11.27780 -11.27527 -11.26796 -11.26784 -11.21923
 Alpha  occ. eigenvalues --  -11.21609 -11.21557 -11.21549 -11.21347 -11.20931
 Alpha  occ. eigenvalues --   -1.59851  -1.39405  -1.19388  -1.08780  -1.08545
 Alpha  occ. eigenvalues --   -1.04797  -1.03683  -0.96144  -0.95609  -0.87171
 Alpha  occ. eigenvalues --   -0.86186  -0.82443  -0.79756  -0.78320  -0.77490
 Alpha  occ. eigenvalues --   -0.72050  -0.71174  -0.70489  -0.65175  -0.65038
 Alpha  occ. eigenvalues --   -0.64835  -0.62194  -0.61075  -0.59542  -0.57753
 Alpha  occ. eigenvalues --   -0.55419  -0.55287  -0.53230  -0.53013  -0.52733
 Alpha  occ. eigenvalues --   -0.52414  -0.50069  -0.48810  -0.48803  -0.48062
 Alpha  occ. eigenvalues --   -0.46779  -0.45870  -0.45772  -0.44807  -0.43934
 Alpha  occ. eigenvalues --   -0.37354  -0.36358
 Alpha virt. eigenvalues --    0.05037   0.11159   0.16467   0.20436   0.22917
 Alpha virt. eigenvalues --    0.24209   0.26055   0.26542   0.27045   0.28328
 Alpha virt. eigenvalues --    0.28708   0.30091   0.31356   0.31576   0.32283

 Mulliken charges:
               1
     1  C   -0.171746
     2  C   -0.216430
     3  C   -0.169505
     4  C    0.157664
     5  C   -0.170801
     6  C   -0.218664
     7  H    0.226029
     8  H    0.224715
     9  H    0.275890
    10  H    0.275679
    11  H    0.223536
    12  N    0.488178
    13  O   -0.460503
    14  O   -0.460286
    15  C   -0.299160
    16  C   -0.299894
    17  C   -0.475977
    18  H    0.153033
    19  H    0.151368
    20  H    0.151314
    21  H    0.150985
    22  H    0.156458
    23  H    0.157266
    24  H    0.159773
    25  C   -0.298776
    26  C   -0.299142
    27  C   -0.477936
    28  H    0.149268
    29  H    0.149477
    30  H    0.149318
    31  H    0.155772
    32  H    0.156944
    33  H    0.155700
    34  H    0.150455
 Sum of Mulliken charges =  -0.00000

 Dipole moment (field-independent basis, Debye):
    X=              0.6336    Y=              4.9986    Z=              0.9572  Tot=              5.1287
 Quadrupole moment (field-independent basis, Debye-Ang):
   XX=            -90.2685   YY=           -102.4061   ZZ=            -90.9399
   XY=             12.4536   XZ=              5.2227   YZ=             -1.6252

 Normal termination of Gaussian 16 at Wed May  5 17:20:07 2021.
