 Gaussian 16, Revision A.03,
 Gaussian 16:  EM64L-G16RevA.03 25-Dec-2016

 -------------
 #p 6-31g* mp2
 -------------

 ------------------------------------------------------
 Input file generated by CHIRIPA (05-May-2021 14:57:26)
 ------------------------------------------------------
 Symbolic Z-matrix:
 Charge =  0 Multiplicity = 1

                         Standard orientation:
 ---------------------------------------------------------------------
 Center     Atomic      Atomic             Coordinates (Angstroms)
 Number     Number       Type             X           Y           Z
 ---------------------------------------------------------------------
      1          6           0        2.015666    2.234789   -1.237883
      2          6           0        0.983406    1.325415   -1.490866
      3          6           0        1.064550    0.010794   -1.022107
      4          6           0        2.197417   -0.362233   -0.300476
      5          6           0        3.242398    0.520546   -0.032133
      6          6           0        3.139885    1.830165   -0.510606
      7          1           0        1.944331    3.254075   -1.605799
      8          1           0        0.109141    1.636867   -2.055404
      9          1           0        0.279981   -0.713730   -1.203586
     10          1           0        4.101454    0.180732    0.533523
     11          1           0        3.943079    2.534246   -0.312629
     12          7           0        2.294632   -1.751316    0.200920
     13          8           0        3.303205   -2.055180    0.834232
     14          8           0        1.360415   -2.509913   -0.048892
     15          6           0       -1.020223    1.628864    2.050709
     16          6           0       -0.918724    0.238707    2.167680
     17          6           0       -1.557914   -0.599629    1.249434
     18          6           0       -2.293653   -0.011290    0.221895
     19          6           0       -2.413617    1.370154    0.078691
     20          6           0       -1.766031    2.189164    1.008425
     21          1           0       -0.520424    2.272596    2.768487
     22          1           0       -0.340198   -0.199213    2.976123
     23          1           0       -1.495959   -1.679021    1.316463
     24          1           0       -2.997463    1.777362   -0.737842
     25          1           0       -1.846599    3.268444    0.915116
     26          7           0       -2.974779   -0.888568   -0.756292
     27          8           0       -3.616936   -0.345477   -1.652575
     28          8           0       -2.853590   -2.102659   -0.608191
 ---------------------------------------------------------------------

 SCF Done:  E(RHF) =  -868.336453778     A.U. after   16 cycles
 E2 =    -0.2605956033D+01 EUMP2 =    -0.87094240981083D+03

 The electronic state is 1-A.
 Alpha  occ. eigenvalues --  -20.61080 -20.61052 -20.61032 -20.60999 -15.86081
 Alpha  occ. eigenvalues --  -15.86074 -11.31433 -11.31343 -11.28133 -11.27952
 Alpha  occ. eigenvalues --  -11.27883 -11.27860 -11.27786 -11.27684 -11.27122
 Alpha  occ. eigenvalues --  -11.26961 -11.26946 -11.26874  -1.60131  -1.60121
 Alpha  occ. eigenvalues --   -1.39675  -1.39669  -1.19711  -1.19489  -1.09050
 Alpha  occ. eigenvalues --   -1.08956  -1.05043  -1.04925  -0.95881  -0.95787
 Alpha  occ. eigenvalues --   -0.86457  -0.86316  -0.82693  -0.82618  -0.77757
 Alpha  occ. eigenvalues --   -0.77660  -0.72308  -0.72271  -0.71547  -0.71446
 Alpha  occ. eigenvalues --   -0.70720  -0.70639  -0.65288  -0.65194  -0.65017
 Alpha  occ. eigenvalues --   -0.64938  -0.62350  -0.62303  -0.55535  -0.55480
 Alpha  occ. eigenvalues --   -0.54129  -0.53106  -0.53030  -0.52492  -0.49073
 Alpha  occ. eigenvalues --   -0.49053  -0.49048  -0.49031  -0.45112  -0.45035
 Alpha  occ. eigenvalues --   -0.37880  -0.37633  -0.36424  -0.36306
 Alpha virt. eigenvalues --    0.04632   0.04918   0.10824   0.11244   0.16150
 Alpha virt. eigenvalues --    0.16388   0.20906   0.21420   0.26533   0.27165
 Alpha virt. eigenvalues --    0.28040   0.28243   0.30517   0.30961   0.31820

 Mulliken charges:
               1
     1  C   -0.173249
     2  C   -0.214579
     3  C   -0.166839
     4  C    0.156364
     5  C   -0.173412
     6  C   -0.220286
     7  H    0.223741
     8  H    0.223853
     9  H    0.277852
    10  H    0.274322
    11  H    0.222086
    12  N    0.486574
    13  O   -0.461558
    14  O   -0.459338
    15  C   -0.167204
    16  C   -0.219866
    17  C   -0.171903
    18  C    0.147764
    19  C   -0.178156
    20  C   -0.216668
    21  H    0.226002
    22  H    0.229412
    23  H    0.290047
    24  H    0.272944
    25  H    0.220879
    26  N    0.486119
    27  O   -0.464080
    28  O   -0.450822
 Sum of Mulliken charges =  -0.00000

 Dipole moment (field-independent basis, Debye):
    X=              1.9849    Y=              7.7735    Z=              1.8404  Tot=              8.2313
 Quadrupole moment (field-independent basis, Debye-Ang):
   XX=           -114.2749   YY=           -105.7335   ZZ=           -101.2078
   XY=              3.5910   XZ=             -8.4570   YZ=             -1.9071

 Normal termination of Gaussian 16 at Wed May  5 22:52:35 2021.
