 Gaussian 16, Revision A.03,
 Gaussian 16:  EM64L-G16RevA.03 25-Dec-2016

 -------------
 #p 6-31g* mp2
 -------------

 ------------------------------------------------------
 Input file generated by CHIRIPA (05-May-2021 14:51:08)
 ------------------------------------------------------
 Symbolic Z-matrix:
 Charge =  0 Multiplicity = 1

                         Standard orientation:
 ---------------------------------------------------------------------
 Center     Atomic      Atomic             Coordinates (Angstroms)
 Number     Number       Type             X           Y           Z
 ---------------------------------------------------------------------
      1          6           0        3.174879   -0.562955    0.595346
      2          6           0        1.680490   -0.357557    0.345153
      3          6           0        0.806679   -1.285067    1.190122
      4          1           0        3.435402   -1.608844    0.382768
      5          1           0        3.387194   -0.398302    1.660807
      6          1           0        1.471287   -0.521195   -0.719776
      7          1           0        1.423532    0.688011    0.558168
      8          1           0        0.986271   -1.117382    2.257000
      9          1           0        1.034297   -2.333459    0.971796
     10          1           0       -0.257821   -1.121361    0.995442
     11          6           0        4.061405    0.357098   -0.242091
     12          6           0        5.555795    0.151699    0.008102
     13          6           0        6.429606    1.079210   -0.836867
     14          1           0        3.849091    0.192444   -1.307552
     15          1           0        3.800883    1.402986   -0.029513
     16          1           0        5.812753   -0.893869   -0.204913
     17          1           0        5.764998    0.315337    1.073031
     18          1           0        6.201988    2.127601   -0.618540
     19          1           0        6.250014    0.911524   -1.903745
     20          1           0        7.494106    0.915503   -0.642187
     21          6           0       -3.151910   -0.499853   -0.228718
     22          6           0       -3.891636   -1.823178   -0.427716
     23          6           0       -2.945363   -3.019787   -0.530127
     24          1           0       -2.454906   -0.347498   -1.064134
     25          1           0       -2.539694   -0.563312    0.681534
     26          1           0       -4.503347   -1.756754   -1.336569
     27          1           0       -4.587098   -1.972307    0.408172
     28          1           0       -2.343954   -3.114312    0.379804
     29          1           0       -2.259727   -2.897535   -1.374851
     30          1           0       -3.495186   -3.955412   -0.672112
     31          6           0       -4.084375    0.705710   -0.124537
     32          6           0       -3.344648    2.029036    0.074461
     33          6           0       -4.290923    3.225645    0.176872
     34          1           0       -4.696591    0.769170   -1.034789
     35          1           0       -4.781378    0.553356    0.710878
     36          1           0       -2.649187    2.178166   -0.761428
     37          1           0       -2.732938    1.962612    0.983314
     38          1           0       -4.976558    3.103393    1.021596
     39          1           0       -4.892331    3.320171   -0.733059
     40          1           0       -3.741098    4.161270    0.318856
 ---------------------------------------------------------------------

 SCF Done:  E(RHF) =  -470.733188873     A.U. after   11 cycles
 E2 =    -0.1582901765D+01 EUMP2 =    -0.47231609063812D+03

 The electronic state is 1-A.
 Alpha  occ. eigenvalues --  -11.21615 -11.21614 -11.21582 -11.21549 -11.21430
 Alpha  occ. eigenvalues --  -11.21373 -11.21370 -11.21312 -11.21081 -11.21057
 Alpha  occ. eigenvalues --  -11.21055 -11.20962  -1.08456  -1.08392  -1.03546
 Alpha  occ. eigenvalues --   -1.03483  -0.95991  -0.95938  -0.87009  -0.86956
 Alpha  occ. eigenvalues --   -0.79628  -0.79531  -0.78279  -0.78207  -0.65091
 Alpha  occ. eigenvalues --   -0.65024  -0.60943  -0.60885  -0.59467  -0.59217
 Alpha  occ. eigenvalues --   -0.57645  -0.57510  -0.55288  -0.55214  -0.52737
 Alpha  occ. eigenvalues --   -0.52633  -0.52461  -0.52297  -0.49942  -0.49868
 Alpha  occ. eigenvalues --   -0.47981  -0.47818  -0.46637  -0.46582  -0.45793
 Alpha  occ. eigenvalues --   -0.45772  -0.45712  -0.45672  -0.43803  -0.43670
 Alpha virt. eigenvalues --    0.21652   0.23115   0.23579   0.24814   0.26015
 Alpha virt. eigenvalues --    0.26665   0.26856   0.27454   0.28037   0.29117
 Alpha virt. eigenvalues --    0.30789   0.31214   0.31592   0.31899   0.32175

 Mulliken charges:
               1
     1  C   -0.298421
     2  C   -0.298519
     3  C   -0.485174
     4  H    0.149603
     5  H    0.149342
     6  H    0.151545
     7  H    0.151827
     8  H    0.153943
     9  H    0.155083
    10  H    0.169797
    11  C   -0.298175
    12  C   -0.299605
    13  C   -0.475677
    14  H    0.149365
    15  H    0.149561
    16  H    0.151921
    17  H    0.151878
    18  H    0.155130
    19  H    0.155119
    20  H    0.160186
    21  C   -0.304246
    22  C   -0.299419
    23  C   -0.477375
    24  H    0.150081
    25  H    0.154457
    26  H    0.151959
    27  H    0.151883
    28  H    0.157584
    29  H    0.155081
    30  H    0.160171
    31  C   -0.297471
    32  C   -0.299850
    33  C   -0.475707
    34  H    0.149686
    35  H    0.149675
    36  H    0.152197
    37  H    0.151832
    38  H    0.155208
    39  H    0.155239
    40  H    0.160285
 Sum of Mulliken charges =  -0.00000

 Dipole moment (field-independent basis, Debye):
    X=             -0.0400    Y=              0.0004    Z=             -0.0070  Tot=              0.0406
 Quadrupole moment (field-independent basis, Debye-Ang):
   XX=            -85.7183   YY=            -85.5626   ZZ=            -83.5097
   XY=              0.0811   XZ=              0.3576   YZ=              0.6520

 Normal termination of Gaussian 16 at Thu May  6 02:06:56 2021.
