 Gaussian 16, Revision A.03,
 Gaussian 16:  EM64L-G16RevA.03 25-Dec-2016

 -------------
 #p 6-31g* mp2
 -------------

 ------------------------------------------------------
 Input file generated by CHIRIPA (05-May-2021 14:53:12)
 ------------------------------------------------------
 Symbolic Z-matrix:
 Charge =  0 Multiplicity = 1

                         Standard orientation:
 ---------------------------------------------------------------------
 Center     Atomic      Atomic             Coordinates (Angstroms)
 Number     Number       Type             X           Y           Z
 ---------------------------------------------------------------------
      1          6           0       -3.399254   -0.539134    0.005139
      2          6           0       -2.660364   -1.611473    0.806460
      3          6           0       -3.547389   -2.808321    1.150750
      4          1           0       -4.271693   -0.197720    0.578927
      5          1           0       -3.788962   -0.986027   -0.919961
      6          1           0       -2.270977   -1.162362    1.729116
      7          1           0       -1.789474   -1.950237    0.230781
      8          1           0       -3.925163   -3.282692    0.239235
      9          1           0       -4.409402   -2.490340    1.746083
     10          1           0       -2.999152   -3.562720    1.723619
     11          6           0       -2.525705    0.663732   -0.346647
     12          6           0       -3.264596    1.736070   -1.147968
     13          6           0       -2.377571    2.932918   -1.492258
     14          1           0       -2.135998    1.110625    0.578453
     15          1           0       -1.653267    0.322317   -0.920434
     16          1           0       -4.135485    2.074835   -0.572289
     17          1           0       -3.653982    1.286959   -2.070623
     18          1           0       -1.515557    2.614937   -2.087591
     19          1           0       -1.999796    3.407289   -0.580743
     20          1           0       -2.925808    3.687317   -2.065127
     21          6           0        2.929544   -1.688101   -1.683144
     22          6           0        1.613213   -1.624032   -1.214434
     23          6           0        1.261039   -0.719520   -0.208262
     24          6           0        2.254971    0.109823    0.309019
     25          6           0        3.575097    0.069768   -0.137023
     26          6           0        3.904566   -0.842487   -1.143894
     27          1           0        3.194303   -2.393755   -2.465034
     28          1           0        0.853918   -2.279529   -1.631374
     29          1           0        0.249598   -0.648937    0.173080
     30          1           0        4.310078    0.736030    0.298083
     31          1           0        4.927644   -0.890044   -1.505962
     32          7           0        1.894158    1.071488    1.374577
     33          8           0        2.788321    1.791310    1.813856
     34          8           0        0.724023    1.087211    1.750306
 ---------------------------------------------------------------------

 SCF Done:  E(RHF) =  -669.535198795     A.U. after   15 cycles
 E2 =    -0.2093500237D+01 EUMP2 =    -0.67162869903130D+03

 The electronic state is 1-A.
 Alpha  occ. eigenvalues --  -20.60784 -20.60779 -15.85826 -11.31127 -11.27726
 Alpha  occ. eigenvalues --  -11.27612 -11.27471 -11.26732 -11.26714 -11.21891
 Alpha  occ. eigenvalues --  -11.21446 -11.21435 -11.21274 -11.21205 -11.20775
 Alpha  occ. eigenvalues --   -1.59850  -1.39405  -1.19315  -1.08724  -1.08450
 Alpha  occ. eigenvalues --   -1.04714  -1.03532  -0.95957  -0.95563  -0.86974
 Alpha  occ. eigenvalues --   -0.86117  -0.82403  -0.79641  -0.78359  -0.77359
 Alpha  occ. eigenvalues --   -0.72049  -0.71165  -0.70437  -0.65158  -0.64936
 Alpha  occ. eigenvalues --   -0.64692  -0.62068  -0.60928  -0.59340  -0.57571
 Alpha  occ. eigenvalues --   -0.55273  -0.55190  -0.53051  -0.52883  -0.52615
 Alpha  occ. eigenvalues --   -0.52363  -0.49896  -0.48817  -0.48804  -0.47937
 Alpha  occ. eigenvalues --   -0.46674  -0.45764  -0.45607  -0.44784  -0.43774
 Alpha  occ. eigenvalues --   -0.37304  -0.36303
 Alpha virt. eigenvalues --    0.05043   0.11296   0.16523   0.20171   0.23097
 Alpha virt. eigenvalues --    0.24239   0.25208   0.26471   0.27848   0.28059
 Alpha virt. eigenvalues --    0.29747   0.30954   0.31640   0.31759   0.31946

 Mulliken charges:
               1
     1  C   -0.297052
     2  C   -0.305542
     3  C   -0.475002
     4  H    0.153018
     5  H    0.146397
     6  H    0.165481
     7  H    0.136039
     8  H    0.153541
     9  H    0.158740
    10  H    0.160599
    11  C   -0.308829
    12  C   -0.299085
    13  C   -0.476473
    14  H    0.173320
    15  H    0.137745
    16  H    0.153202
    17  H    0.148377
    18  H    0.152397
    19  H    0.163462
    20  H    0.158814
    21  C   -0.170107
    22  C   -0.224743
    23  C   -0.179255
    24  C    0.156243
    25  C   -0.169803
    26  C   -0.219343
    27  H    0.225396
    28  H    0.223153
    29  H    0.294747
    30  H    0.275338
    31  H    0.223273
    32  N    0.488854
    33  O   -0.460205
    34  O   -0.462701
 Sum of Mulliken charges =  -0.00000

 Dipole moment (field-independent basis, Debye):
    X=              1.1924    Y=             -3.2405    Z=             -3.5500  Tot=              4.9522
 Quadrupole moment (field-independent basis, Debye-Ang):
   XX=            -84.5032   YY=            -96.2935   ZZ=            -97.2154
   XY=             -6.6517   XZ=             -8.7036   YZ=             -0.5682

 Normal termination of Gaussian 16 at Thu May  6 13:41:29 2021.
