 Gaussian 16, Revision A.03,
 Gaussian 16:  EM64L-G16RevA.03 25-Dec-2016

 -------------
 #p 6-31g* mp2
 -------------

 ------------------------------------------------------
 Input file generated by CHIRIPA (05-May-2021 14:55:21)
 ------------------------------------------------------
 Symbolic Z-matrix:
 Charge =  0 Multiplicity = 1

                         Standard orientation:
 ---------------------------------------------------------------------
 Center     Atomic      Atomic             Coordinates (Angstroms)
 Number     Number       Type             X           Y           Z
 ---------------------------------------------------------------------
      1          6           0       -4.567025    1.881393   -0.038428
      2          6           0       -4.115819    1.384218    1.188662
      3          6           0       -3.199074    0.329654    1.233638
      4          6           0       -2.752398   -0.206467    0.026847
      5          6           0       -3.183196    0.267009   -1.211509
      6          6           0       -4.100097    1.322187   -1.232492
      7          1           0       -5.279235    2.700842   -0.064048
      8          1           0       -4.476727    1.816559    2.117571
      9          1           0       -2.833221   -0.074541    2.169691
     10          1           0       -2.805360   -0.184464   -2.120811
     11          1           0       -4.448775    1.706277   -2.186926
     12          7           0       -1.781799   -1.323211    0.061760
     13          8           0       -1.403528   -1.778233   -1.015506
     14          8           0       -1.417692   -1.722349    1.165732
     15          6           0        4.212809    0.533741    0.278204
     16          6           0        4.200123    1.889809   -0.428124
     17          6           0        5.175553    2.889499    0.193930
     18          1           0        3.965817    0.677655    1.338972
     19          1           0        5.230958    0.121644    0.247462
     20          1           0        3.182007    2.298592   -0.397269
     21          1           0        4.446986    1.742627   -1.487375
     22          1           0        6.200239    2.506564    0.149444
     23          1           0        4.928073    3.065687    1.245744
     24          1           0        5.150197    3.852036   -0.326396
     25          6           0        3.242844   -0.476360   -0.332201
     26          6           0        3.255530   -1.832430    0.374129
     27          6           0        2.280101   -2.832119   -0.247927
     28          1           0        2.224696   -0.064264   -0.301458
     29          1           0        3.489836   -0.620274   -1.392968
     30          1           0        3.008668   -1.685247    1.433379
     31          1           0        4.273647   -2.241212    0.343273
     32          1           0        2.527581   -3.008307   -1.299741
     33          1           0        1.255414   -2.449184   -0.203441
     34          1           0        2.305457   -3.794656    0.272400
 ---------------------------------------------------------------------

 SCF Done:  E(RHF) =  -669.536696301     A.U. after   15 cycles
 E2 =    -0.2091593789D+01 EUMP2 =    -0.67162829008981D+03

 The electronic state is 1-A.
 Alpha  occ. eigenvalues --  -20.61095 -20.61082 -15.86087 -11.31375 -11.27927
 Alpha  occ. eigenvalues --  -11.27922 -11.27656 -11.26921 -11.26911 -11.21105
 Alpha  occ. eigenvalues --  -11.20696 -11.20680 -11.20417 -11.20307 -11.19181
 Alpha  occ. eigenvalues --   -1.60131  -1.39685  -1.19534  -1.08946  -1.07571
 Alpha  occ. eigenvalues --   -1.04921  -1.02559  -0.95793  -0.94980  -0.86323
 Alpha  occ. eigenvalues --   -0.85994  -0.82626  -0.78684  -0.77689  -0.77315
 Alpha  occ. eigenvalues --   -0.72286  -0.71443  -0.70640  -0.65186  -0.64923
 Alpha  occ. eigenvalues --   -0.64212  -0.62267  -0.59955  -0.58464  -0.56587
 Alpha  occ. eigenvalues --   -0.55433  -0.54263  -0.53255  -0.53011  -0.51678
 Alpha  occ. eigenvalues --   -0.51416  -0.49328  -0.49058  -0.48664  -0.46930
 Alpha  occ. eigenvalues --   -0.45714  -0.45119  -0.44841  -0.44697  -0.42834
 Alpha  occ. eigenvalues --   -0.37509  -0.36519
 Alpha virt. eigenvalues --    0.04810   0.11137   0.16323   0.21280   0.23631
 Alpha virt. eigenvalues --    0.25369   0.27204   0.27449   0.28145   0.28291
 Alpha virt. eigenvalues --    0.29163   0.30843   0.32385   0.32424   0.32542

 Mulliken charges:
               1
     1  C   -0.170359
     2  C   -0.218638
     3  C   -0.170819
     4  C    0.159847
     5  C   -0.170618
     6  C   -0.218611
     7  H    0.226335
     8  H    0.224114
     9  H    0.275977
    10  H    0.276291
    11  H    0.224203
    12  N    0.487225
    13  O   -0.457996
    14  O   -0.459248
    15  C   -0.297566
    16  C   -0.298533
    17  C   -0.475066
    18  H    0.148277
    19  H    0.148084
    20  H    0.149434
    21  H    0.151062
    22  H    0.154895
    23  H    0.154049
    24  H    0.157636
    25  C   -0.296203
    26  C   -0.299191
    27  C   -0.484579
    28  H    0.148705
    29  H    0.147652
    30  H    0.151047
    31  H    0.145373
    32  H    0.147463
    33  H    0.184511
    34  H    0.155246
 Sum of Mulliken charges =  -0.00000

 Dipole moment (field-independent basis, Debye):
    X=             -3.8285    Y=              3.9022    Z=             -0.1209  Tot=              5.4680
 Quadrupole moment (field-independent basis, Debye-Ang):
   XX=            -77.5061   YY=            -98.0601   ZZ=            -89.4699
   XY=            -11.1730   XZ=             -0.4394   YZ=              0.1851

 Normal termination of Gaussian 16 at Thu May  6 06:10:09 2021.
