 Gaussian 16, Revision A.03,
 Gaussian 16:  EM64L-G16RevA.03 25-Dec-2016

 -------------
 #p 6-31g* mp2
 -------------

 ------------------------------------------------------
 Input file generated by CHIRIPA (05-May-2021 14:57:23)
 ------------------------------------------------------
 Symbolic Z-matrix:
 Charge =  0 Multiplicity = 1

                         Standard orientation:
 ---------------------------------------------------------------------
 Center     Atomic      Atomic             Coordinates (Angstroms)
 Number     Number       Type             X           Y           Z
 ---------------------------------------------------------------------
      1          6           0        4.661052    0.847062   -1.119854
      2          6           0        4.118838    1.506409   -0.011799
      3          6           0        3.123723    0.898410    0.759326
      4          6           0        2.692332   -0.375320    0.392169
      5          6           0        3.212927   -1.057959   -0.706136
      6          6           0        4.207167   -0.430764   -1.462882
      7          1           0        5.433741    1.326826   -1.713297
      8          1           0        4.469405    2.498841    0.256950
      9          1           0        2.686641    1.386163    1.622155
     10          1           0        2.843168   -2.046681   -0.949294
     11          1           0        4.626442   -0.945200   -2.322887
     12          7           0        1.639312   -1.029142    1.200912
     13          8           0        1.276391   -2.151792    0.856555
     14          8           0        1.196815   -0.406577    2.163848
     15          6           0       -3.477884   -2.166609   -0.516150
     16          6           0       -4.453192   -1.235008   -0.145457
     17          6           0       -4.125438    0.116269    0.000061
     18          6           0       -2.806716    0.502888   -0.234005
     19          6           0       -1.812541   -0.401343   -0.604506
     20          6           0       -2.162989   -1.747542   -0.744090
     21          1           0       -3.741305   -3.214341   -0.626888
     22          1           0       -5.475157   -1.557602    0.032209
     23          1           0       -4.860679    0.858611    0.286011
     24          1           0       -0.802235   -0.049645   -0.774824
     25          1           0       -1.403476   -2.468821   -1.032085
     26          7           0       -2.447726    1.930737   -0.083093
     27          8           0       -1.278804    2.245920   -0.295037
     28          8           0       -3.342067    2.707665    0.244278
 ---------------------------------------------------------------------

 SCF Done:  E(RHF) =  -868.339196599     A.U. after   16 cycles
 E2 =    -0.2599903807D+01 EUMP2 =    -0.87093910040609D+03

 The electronic state is 1-A.
 Alpha  occ. eigenvalues --  -20.61157 -20.61066 -20.60207 -20.60198 -15.86136
 Alpha  occ. eigenvalues --  -15.85250 -11.31292 -11.30419 -11.27909 -11.27759
 Alpha  occ. eigenvalues --  -11.27534 -11.26972 -11.26947 -11.26838 -11.26729
 Alpha  occ. eigenvalues --  -11.26646 -11.25988 -11.25839  -1.60186  -1.59276
 Alpha  occ. eigenvalues --   -1.39741  -1.38839  -1.19442  -1.18554  -1.08881
 Alpha  occ. eigenvalues --   -1.07991  -1.04804  -1.03925  -0.95749  -0.94870
 Alpha  occ. eigenvalues --   -0.86218  -0.85345  -0.82584  -0.81705  -0.77659
 Alpha  occ. eigenvalues --   -0.76783  -0.72360  -0.71579  -0.71446  -0.70578
 Alpha  occ. eigenvalues --   -0.70546  -0.69687  -0.65096  -0.64804  -0.64216
 Alpha  occ. eigenvalues --   -0.63933  -0.62154  -0.61290  -0.55318  -0.54463
 Alpha  occ. eigenvalues --   -0.53148  -0.52894  -0.52252  -0.52028  -0.49135
 Alpha  occ. eigenvalues --   -0.49088  -0.48246  -0.48219  -0.45182  -0.44289
 Alpha  occ. eigenvalues --   -0.37415  -0.36521  -0.36383  -0.35481
 Alpha virt. eigenvalues --    0.04824   0.05751   0.11263   0.12146   0.16346
 Alpha virt. eigenvalues --    0.17304   0.21360   0.22148   0.27236   0.27636
 Alpha virt. eigenvalues --    0.28444   0.28861   0.31057   0.31643   0.32595

 Mulliken charges:
               1
     1  C   -0.169464
     2  C   -0.217444
     3  C   -0.164598
     4  C    0.153887
     5  C   -0.174071
     6  C   -0.218236
     7  H    0.226807
     8  H    0.226758
     9  H    0.280744
    10  H    0.270753
    11  H    0.222796
    12  N    0.487015
    13  O   -0.470691
    14  O   -0.451577
    15  C   -0.171403
    16  C   -0.218127
    17  C   -0.172048
    18  C    0.159904
    19  C   -0.165945
    20  C   -0.210390
    21  H    0.223917
    22  H    0.220596
    23  H    0.272775
    24  H    0.266749
    25  H    0.229569
    26  N    0.489168
    27  O   -0.464945
    28  O   -0.462498
 Sum of Mulliken charges =  -0.00000

 Dipole moment (field-independent basis, Debye):
    X=              2.6855    Y=             -2.6374    Z=             -3.2441  Tot=              4.9691
 Quadrupole moment (field-independent basis, Debye-Ang):
   XX=            -73.9370   YY=           -109.1710   ZZ=           -105.8686
   XY=             18.1425   XZ=             -6.0635   YZ=              6.1082

 Normal termination of Gaussian 16 at Fri May  7 09:28:00 2021.
