 Gaussian 16, Revision A.03,
 Gaussian 16:  EM64L-G16RevA.03 25-Dec-2016

 -------------
 #p 6-31g* mp2
 -------------

 ------------------------------------------------------
 Input file generated by CHIRIPA (05-May-2021 14:53:11)
 ------------------------------------------------------
 Symbolic Z-matrix:
 Charge =  0 Multiplicity = 1

                         Standard orientation:
 ---------------------------------------------------------------------
 Center     Atomic      Atomic             Coordinates (Angstroms)
 Number     Number       Type             X           Y           Z
 ---------------------------------------------------------------------
      1          6           0       -4.793254   -0.018005    0.384477
      2          6           0       -5.558134    0.716789   -0.716895
      3          6           0       -6.902200    1.266045   -0.237728
      4          1           0       -5.412660   -0.841474    0.765503
      5          1           0       -4.630714    0.667075    1.228064
      6          1           0       -5.717973    0.030935   -1.558721
      7          1           0       -4.936759    1.538485   -1.095476
      8          1           0       -6.758173    1.971068    0.587378
      9          1           0       -7.543825    0.454952    0.121501
     10          1           0       -7.432157    1.787476   -1.040918
     11          6           0       -3.447568   -0.572861   -0.079198
     12          6           0       -2.682688   -1.307656    1.022173
     13          6           0       -1.338622   -1.856912    0.543006
     14          1           0       -3.610108   -1.257942   -0.922786
     15          1           0       -2.828162    0.250607   -0.460225
     16          1           0       -3.304063   -2.129352    1.400754
     17          1           0       -2.522849   -0.621802    1.863999
     18          1           0       -0.696997   -1.045819    0.183777
     19          1           0       -1.482649   -2.561935   -0.282100
     20          1           0       -0.808665   -2.378343    1.346196
     21          6           0        3.230546    2.728532    0.237351
     22          6           0        4.391732    1.983290    0.467101
     23          6           0        4.396911    0.598820    0.272772
     24          6           0        3.217962   -0.010663   -0.153725
     25          6           0        2.045098    0.704408   -0.391113
     26          6           0        2.062994    2.087842   -0.190269
     27          1           0        3.235486    3.803618    0.390841
     28          1           0        5.299918    2.478190    0.799239
     29          1           0        5.281790   -0.002326    0.443152
     30          1           0        1.155061    0.182949   -0.721767
     31          1           0        1.159728    2.664069   -0.369481
     32          7           0        3.211231   -1.475791   -0.362900
     33          8           0        2.159666   -1.989008   -0.739012
     34          8           0        4.257646   -2.083200   -0.146781
 ---------------------------------------------------------------------

 SCF Done:  E(RHF) =  -669.535225389     A.U. after   15 cycles
 E2 =    -0.2091477900D+01 EUMP2 =    -0.67162670328905D+03

 The electronic state is 1-A.
 Alpha  occ. eigenvalues --  -20.60769 -20.60755 -15.85808 -11.31197 -11.27767
 Alpha  occ. eigenvalues --  -11.27759 -11.27517 -11.26794 -11.26784 -11.21679
 Alpha  occ. eigenvalues --  -11.21441 -11.21409 -11.21353 -11.21150 -11.20645
 Alpha  occ. eigenvalues --   -1.59834  -1.39386  -1.19373  -1.08764  -1.08412
 Alpha  occ. eigenvalues --   -1.04782  -1.03448  -0.95881  -0.95590  -0.86882
 Alpha  occ. eigenvalues --   -0.86177  -0.82426  -0.79509  -0.78234  -0.77462
 Alpha  occ. eigenvalues --   -0.72026  -0.71153  -0.70490  -0.65066  -0.65025
 Alpha  occ. eigenvalues --   -0.64786  -0.62164  -0.60840  -0.59256  -0.57489
 Alpha  occ. eigenvalues --   -0.55339  -0.55131  -0.53106  -0.52906  -0.52527
 Alpha  occ. eigenvalues --   -0.52263  -0.49827  -0.48790  -0.48785  -0.47802
 Alpha  occ. eigenvalues --   -0.46561  -0.45769  -0.45698  -0.44772  -0.43692
 Alpha  occ. eigenvalues --   -0.37354  -0.36381
 Alpha virt. eigenvalues --    0.05041   0.11225   0.16541   0.20730   0.22890
 Alpha virt. eigenvalues --    0.24086   0.25799   0.27006   0.27653   0.27738
 Alpha virt. eigenvalues --    0.29167   0.30478   0.31503   0.31842   0.32188

 Mulliken charges:
               1
     1  C   -0.297932
     2  C   -0.299221
     3  C   -0.475615
     4  H    0.151041
     5  H    0.147983
     6  H    0.153026
     7  H    0.149276
     8  H    0.154357
     9  H    0.156070
    10  H    0.160055
    11  C   -0.296277
    12  C   -0.302210
    13  C   -0.470382
    14  H    0.151885
    15  H    0.141653
    16  H    0.152832
    17  H    0.148397
    18  H    0.146729
    19  H    0.161530
    20  H    0.165338
    21  C   -0.170662
    22  C   -0.218592
    23  C   -0.170564
    24  C    0.156655
    25  C   -0.174174
    26  C   -0.220561
    27  H    0.225608
    28  H    0.223495
    29  H    0.275677
    30  H    0.283993
    31  H    0.223330
    32  N    0.487773
    33  O   -0.460018
    34  O   -0.460496
 Sum of Mulliken charges =  -0.00000

 Dipole moment (field-independent basis, Debye):
    X=              0.0759    Y=              5.0250    Z=              0.7353  Tot=              5.0791
 Quadrupole moment (field-independent basis, Debye-Ang):
   XX=            -90.9132   YY=            -94.5697   ZZ=            -95.4890
   XY=             17.6897   XZ=              4.3077   YZ=             -0.6928

 Normal termination of Gaussian 16 at Wed May  5 18:29:39 2021.
