 Gaussian 16, Revision A.03,
 Gaussian 16:  EM64L-G16RevA.03 25-Dec-2016

 -------------
 #p 6-31g* mp2
 -------------

 ------------------------------------------------------
 Input file generated by CHIRIPA (05-May-2021 14:53:17)
 ------------------------------------------------------
 Symbolic Z-matrix:
 Charge =  0 Multiplicity = 1

                         Standard orientation:
 ---------------------------------------------------------------------
 Center     Atomic      Atomic             Coordinates (Angstroms)
 Number     Number       Type             X           Y           Z
 ---------------------------------------------------------------------
      1          6           0        3.931393    0.983469    0.106484
      2          6           0        2.621239    0.851869   -0.670795
      3          6           0        1.705421    2.063574   -0.495177
      4          1           0        3.705465    1.122671    1.172563
      5          1           0        4.455551    1.891239   -0.223072
      6          1           0        2.100368   -0.056123   -0.340856
      7          1           0        2.850316    0.712773   -1.735122
      8          1           0        2.202089    2.975385   -0.842340
      9          1           0        1.447880    2.202121    0.559848
     10          1           0        0.774643    1.948435   -1.059320
     11          6           0        4.857543   -0.220093   -0.059087
     12          6           0        6.167697   -0.088493    0.718192
     13          6           0        7.083515   -1.300198    0.542574
     14          1           0        4.333385   -1.127863    0.270469
     15          1           0        5.083470   -0.359295   -1.125166
     16          1           0        5.938620    0.050603    1.782519
     17          1           0        6.688568    0.819499    0.388254
     18          1           0        7.341056   -1.438745   -0.512451
     19          1           0        6.586847   -2.212010    0.889737
     20          1           0        8.014292   -1.185059    1.106717
     21          6           0       -5.608784    0.757904    0.700737
     22          6           0       -5.501236   -0.634032    0.614325
     23          6           0       -4.300680   -1.230090    0.216919
     24          6           0       -3.222849   -0.400293   -0.088049
     25          6           0       -3.298750    0.989557   -0.011595
     26          6           0       -4.509136    1.563835    0.388053
     27          1           0       -6.545221    1.212477    1.010322
     28          1           0       -6.353592   -1.262410    0.856552
     29          1           0       -4.189846   -2.305008    0.141515
     30          1           0       -2.431756    1.589811   -0.259459
     31          1           0       -4.589768    2.645112    0.454270
     32          7           0       -1.946671   -1.019785   -0.509952
     33          8           0       -1.011724   -0.266660   -0.773226
     34          8           0       -1.905515   -2.246737   -0.569376
 ---------------------------------------------------------------------

 SCF Done:  E(RHF) =  -669.536059028     A.U. after   15 cycles
 E2 =    -0.2091194294D+01 EUMP2 =    -0.67162725332201D+03

 The electronic state is 1-A.
 Alpha  occ. eigenvalues --  -20.60937 -20.60931 -15.85972 -11.31285 -11.27849
 Alpha  occ. eigenvalues --  -11.27843 -11.27586 -11.26855 -11.26845 -11.20941
 Alpha  occ. eigenvalues --  -11.20544 -11.20495 -11.20415 -11.20253 -11.19907
 Alpha  occ. eigenvalues --   -1.60000  -1.39556  -1.19454  -1.08860  -1.07510
 Alpha  occ. eigenvalues --   -1.04849  -1.02582  -0.95708  -0.95070  -0.86250
 Alpha  occ. eigenvalues --   -0.86109  -0.82538  -0.78673  -0.77592  -0.77282
 Alpha  occ. eigenvalues --   -0.72206  -0.71314  -0.70563  -0.65113  -0.64852
 Alpha  occ. eigenvalues --   -0.64147  -0.62196  -0.59984  -0.58439  -0.56627
 Alpha  occ. eigenvalues --   -0.55354  -0.54388  -0.53182  -0.52941  -0.51767
 Alpha  occ. eigenvalues --   -0.51500  -0.49093  -0.48940  -0.48923  -0.46973
 Alpha  occ. eigenvalues --   -0.45707  -0.44986  -0.44847  -0.44694  -0.42846
 Alpha  occ. eigenvalues --   -0.37434  -0.36450
 Alpha virt. eigenvalues --    0.04931   0.11204   0.16425   0.21123   0.23706
 Alpha virt. eigenvalues --    0.24825   0.26895   0.27528   0.27689   0.28455
 Alpha virt. eigenvalues --    0.29178   0.30594   0.31696   0.32263   0.32663

 Mulliken charges:
               1
     1  C   -0.298141
     2  C   -0.299934
     3  C   -0.476974
     4  H    0.146292
     5  H    0.144917
     6  H    0.169556
     7  H    0.149282
     8  H    0.145688
     9  H    0.147676
    10  H    0.171363
    11  C   -0.297888
    12  C   -0.298822
    13  C   -0.475250
    14  H    0.151790
    15  H    0.148959
    16  H    0.150346
    17  H    0.149976
    18  H    0.154640
    19  H    0.155419
    20  H    0.157769
    21  C   -0.170534
    22  C   -0.218632
    23  C   -0.170779
    24  C    0.157487
    25  C   -0.170913
    26  C   -0.218870
    27  H    0.225976
    28  H    0.223757
    29  H    0.275753
    30  H    0.277002
    31  H    0.224078
    32  N    0.494159
    33  O   -0.465816
    34  O   -0.459334
 Sum of Mulliken charges =  -0.00000

 Dipole moment (field-independent basis, Debye):
    X=             -4.8035    Y=              2.0295    Z=              1.4380  Tot=              5.4093
 Quadrupole moment (field-independent basis, Debye-Ang):
   XX=            -66.9452   YY=            -93.3784   ZZ=            -95.2800
   XY=             -2.8458   XZ=             -5.2729   YZ=             -1.6390

 Normal termination of Gaussian 16 at Wed May  5 23:38:34 2021.
