 Gaussian 16, Revision A.03,
 Gaussian 16:  EM64L-G16RevA.03 25-Dec-2016

 -------------
 #p 6-31g* mp2
 -------------

 ------------------------------------------------------
 Input file generated by CHIRIPA (05-May-2021 14:57:21)
 ------------------------------------------------------
 Symbolic Z-matrix:
 Charge =  0 Multiplicity = 1

                         Standard orientation:
 ---------------------------------------------------------------------
 Center     Atomic      Atomic             Coordinates (Angstroms)
 Number     Number       Type             X           Y           Z
 ---------------------------------------------------------------------
      1          6           0       -5.872215    0.560516   -0.466011
      2          6           0       -5.481586   -0.733940   -0.107802
      3          6           0       -4.139489   -1.023089    0.156235
      4          6           0       -3.210314    0.010877    0.052131
      5          6           0       -3.568317    1.310625   -0.302524
      6          6           0       -4.916019    1.576875   -0.562060
      7          1           0       -6.916965    0.776240   -0.669373
      8          1           0       -6.222006   -1.525232   -0.032431
      9          1           0       -3.809557   -2.016347    0.435523
     10          1           0       -2.807322    2.078624   -0.369463
     11          1           0       -5.216501    2.583096   -0.840043
     12          7           0       -1.786529   -0.283111    0.329272
     13          8           0       -0.987265    0.645375    0.230637
     14          8           0       -1.496789   -1.436458    0.639882
     15          6           0        4.187501    2.347175    0.146217
     16          6           0        3.130174    1.889197    0.939211
     17          6           0        2.710314    0.557866    0.862895
     18          6           0        3.373186   -0.291982   -0.021214
     19          6           0        4.429825    0.134350   -0.824360
     20          6           0        4.832814    1.469837   -0.731490
     21          1           0        4.507105    3.382998    0.211932
     22          1           0        2.627172    2.568305    1.621740
     23          1           0        1.894589    0.176877    1.465273
     24          1           0        4.911819   -0.566267   -1.495357
     25          1           0        5.654243    1.822737   -1.348547
     26          7           0        2.937629   -1.703602   -0.110768
     27          8           0        3.538019   -2.432353   -0.897592
     28          8           0        2.004097   -2.054548    0.607556
 ---------------------------------------------------------------------

 SCF Done:  E(RHF) =  -868.337500268     A.U. after   16 cycles
 E2 =    -0.2600085281D+01 EUMP2 =    -0.87093758554921D+03

 The electronic state is 1-A.
 Alpha  occ. eigenvalues --  -20.60712 -20.60615 -20.59328 -20.59201 -15.85695
 Alpha  occ. eigenvalues --  -15.84312 -11.31118 -11.29786 -11.27722 -11.27659
 Alpha  occ. eigenvalues --  -11.27449 -11.26738 -11.26697 -11.26513 -11.26302
 Alpha  occ. eigenvalues --  -11.26267 -11.25562 -11.25430  -1.59721  -1.58346
 Alpha  occ. eigenvalues --   -1.39275  -1.37887  -1.19295  -1.18019  -1.08680
 Alpha  occ. eigenvalues --   -1.07419  -1.04706  -1.03436  -0.95505  -0.94215
 Alpha  occ. eigenvalues --   -0.86102  -0.84841  -0.82335  -0.81040  -0.77376
 Alpha  occ. eigenvalues --   -0.76037  -0.71904  -0.71049  -0.70533  -0.70404
 Alpha  occ. eigenvalues --   -0.69672  -0.69156  -0.64948  -0.64710  -0.63679
 Alpha  occ. eigenvalues --   -0.63473  -0.62052  -0.60766  -0.55207  -0.54012
 Alpha  occ. eigenvalues --   -0.53033  -0.52799  -0.51778  -0.51550  -0.48693
 Alpha  occ. eigenvalues --   -0.48619  -0.47335  -0.47261  -0.44671  -0.43251
 Alpha  occ. eigenvalues --   -0.37280  -0.36312  -0.36063  -0.35024
 Alpha virt. eigenvalues --    0.05156   0.06495   0.11341   0.12615   0.16636
 Alpha virt. eigenvalues --    0.17914   0.21467   0.22608   0.27373   0.28340
 Alpha virt. eigenvalues --    0.28529   0.29581   0.31017   0.32088   0.32609

 Mulliken charges:
               1
     1  C   -0.170931
     2  C   -0.218578
     3  C   -0.170599
     4  C    0.158514
     5  C   -0.171400
     6  C   -0.218515
     7  H    0.225311
     8  H    0.224077
     9  H    0.278481
    10  H    0.273008
    11  H    0.222313
    12  N    0.487718
    13  O   -0.471842
    14  O   -0.444929
    15  C   -0.171861
    16  C   -0.220651
    17  C   -0.158340
    18  C    0.154456
    19  C   -0.172201
    20  C   -0.220277
    21  H    0.219660
    22  H    0.220191
    23  H    0.287923
    24  H    0.271511
    25  H    0.217610
    26  N    0.486682
    27  O   -0.470621
    28  O   -0.446710
 Sum of Mulliken charges =  -0.00000

 Dipole moment (field-independent basis, Debye):
    X=             -3.9502    Y=              5.7219    Z=             -0.4727  Tot=              6.9690
 Quadrupole moment (field-independent basis, Debye-Ang):
   XX=            -62.6504   YY=           -104.0626   ZZ=           -103.7689
   XY=             13.6967   XZ=              1.3536   YZ=             -0.7482

 Normal termination of Gaussian 16 at Thu May  6 00:05:57 2021.
