 Gaussian 16, Revision A.03,
 Gaussian 16:  EM64L-G16RevA.03 25-Dec-2016

 -------------
 #p 6-31g* mp2
 -------------

 ------------------------------------------------------
 Input file generated by CHIRIPA (05-May-2021 14:51:08)
 ------------------------------------------------------
 Symbolic Z-matrix:
 Charge =  0 Multiplicity = 1

                         Standard orientation:
 ---------------------------------------------------------------------
 Center     Atomic      Atomic             Coordinates (Angstroms)
 Number     Number       Type             X           Y           Z
 ---------------------------------------------------------------------
      1          6           0        2.340490   -0.025329    1.108836
      2          6           0        1.698351    1.287832    1.557446
      3          6           0        1.547921    1.383839    3.075981
      4          1           0        1.733686   -0.865859    1.472488
      5          1           0        3.326881   -0.123794    1.582895
      6          1           0        0.714050    1.384447    1.081595
      7          1           0        2.306651    2.125338    1.192520
      8          1           0        2.524820    1.313024    3.565119
      9          1           0        0.923170    0.567923    3.453563
     10          1           0        1.086769    2.330399    3.374681
     11          6           0        2.497610   -0.136170   -0.406669
     12          6           0        3.139749   -1.449331   -0.855279
     13          6           0        3.290179   -1.545338   -2.373814
     14          1           0        1.511219   -0.037705   -0.880729
     15          1           0        3.104415    0.704359   -0.770321
     16          1           0        2.531450   -2.286837   -0.490353
     17          1           0        4.124050   -1.545946   -0.379428
     18          1           0        3.914930   -0.729422   -2.751396
     19          1           0        2.313281   -1.474523   -2.862952
     20          1           0        3.751331   -2.491899   -2.672514
     21          6           0       -2.295510   -0.469538    0.164040
     22          6           0       -3.386775   -1.540445    0.180865
     23          6           0       -3.125507   -2.634459    1.216561
     24          1           0       -1.326609   -0.945582   -0.039821
     25          1           0       -2.218287   -0.018916    1.163226
     26          1           0       -3.462864   -1.987952   -0.818416
     27          1           0       -4.353218   -1.061772    0.384521
     28          1           0       -3.070519   -2.206979    2.222960
     29          1           0       -2.175106   -3.138422    1.013188
     30          1           0       -3.917782   -3.389531    1.211512
     31          6           0       -2.542591    0.631038   -0.866207
     32          6           0       -1.451325    1.701944   -0.883032
     33          6           0       -1.712594    2.795958   -1.918728
     34          1           0       -2.619813    0.180415   -1.865392
     35          1           0       -3.511491    1.107081   -0.662346
     36          1           0       -0.484882    1.223270   -1.086688
     37          1           0       -1.375237    2.149452    0.116250
     38          1           0       -2.662994    3.299921   -1.715354
     39          1           0       -1.767580    2.368478   -2.925127
     40          1           0       -0.920318    3.551031   -1.913680
 ---------------------------------------------------------------------

 SCF Done:  E(RHF) =  -470.732123574     A.U. after   11 cycles
 E2 =    -0.1584988103D+01 EUMP2 =    -0.47231711167646D+03

 The electronic state is 1-A.
 Alpha  occ. eigenvalues --  -11.21679 -11.21636 -11.21613 -11.21499 -11.21432
 Alpha  occ. eigenvalues --  -11.21409 -11.21377 -11.21294 -11.21137 -11.21107
 Alpha  occ. eigenvalues --  -11.21096 -11.20993  -1.08538  -1.08374  -1.03609
 Alpha  occ. eigenvalues --   -1.03477  -0.96046  -0.95948  -0.87066  -0.86961
 Alpha  occ. eigenvalues --   -0.79772  -0.79507  -0.78502  -0.78034  -0.65246
 Alpha  occ. eigenvalues --   -0.64947  -0.61025  -0.60878  -0.59459  -0.59273
 Alpha  occ. eigenvalues --   -0.57660  -0.57557  -0.55333  -0.55245  -0.52751
 Alpha  occ. eigenvalues --   -0.52635  -0.52475  -0.52372  -0.50022  -0.49875
 Alpha  occ. eigenvalues --   -0.48243  -0.47814  -0.46839  -0.46600  -0.46305
 Alpha  occ. eigenvalues --   -0.45716  -0.45696  -0.44919  -0.43847  -0.43732
 Alpha virt. eigenvalues --    0.20351   0.23530   0.23658   0.23785   0.25195
 Alpha virt. eigenvalues --    0.26329   0.27155   0.27870   0.28298   0.30225
 Alpha virt. eigenvalues --    0.30784   0.31390   0.31651   0.31937   0.32083

 Mulliken charges:
               1
     1  C   -0.297582
     2  C   -0.310089
     3  C   -0.475443
     4  H    0.149513
     5  H    0.149093
     6  H    0.165514
     7  H    0.150294
     8  H    0.154695
     9  H    0.154784
    10  H    0.159188
    11  C   -0.306324
    12  C   -0.298991
    13  C   -0.475585
    14  H    0.155592
    15  H    0.149636
    16  H    0.151414
    17  H    0.152316
    18  H    0.155384
    19  H    0.154352
    20  H    0.160375
    21  C   -0.301212
    22  C   -0.299594
    23  C   -0.475774
    24  H    0.150174
    25  H    0.150077
    26  H    0.152195
    27  H    0.152463
    28  H    0.155331
    29  H    0.154923
    30  H    0.160676
    31  C   -0.297215
    32  C   -0.312048
    33  C   -0.474357
    34  H    0.149370
    35  H    0.149970
    36  H    0.161470
    37  H    0.154279
    38  H    0.155136
    39  H    0.155083
    40  H    0.160916
 Sum of Mulliken charges =  -0.00000

 Dipole moment (field-independent basis, Debye):
    X=             -0.0589    Y=              0.0145    Z=             -0.0328  Tot=              0.0690
 Quadrupole moment (field-independent basis, Debye-Ang):
   XX=            -83.7051   YY=            -85.0874   ZZ=            -86.0646
   XY=              0.1836   XZ=             -0.2380   YZ=              0.7093

 Normal termination of Gaussian 16 at Thu May  6 10:01:07 2021.
