 Gaussian 16, Revision A.03,
 Gaussian 16:  EM64L-G16RevA.03 25-Dec-2016

 -------------
 #p 6-31g* mp2
 -------------

 ------------------------------------------------------
 Input file generated by CHIRIPA (05-May-2021 14:55:19)
 ------------------------------------------------------
 Symbolic Z-matrix:
 Charge =  0 Multiplicity = 1

                         Standard orientation:
 ---------------------------------------------------------------------
 Center     Atomic      Atomic             Coordinates (Angstroms)
 Number     Number       Type             X           Y           Z
 ---------------------------------------------------------------------
      1          6           0       -2.750079   -2.674766    0.379741
      2          6           0       -1.638914   -1.969992    0.854217
      3          6           0       -1.541851   -0.587920    0.667124
      4          6           0       -2.578909    0.060457   -0.001761
      5          6           0       -3.698738   -0.613801   -0.486169
      6          6           0       -3.774638   -1.995619   -0.287761
      7          1           0       -2.817260   -3.748294    0.529474
      8          1           0       -0.841724   -2.494812    1.372962
      9          1           0       -0.692873   -0.017665    1.024145
     10          1           0       -4.477566   -0.063079   -0.999541
     11          1           0       -4.638762   -2.540373   -0.657324
     12          7           0       -2.487355    1.523460   -0.205818
     13          8           0       -3.414387    2.071416   -0.798264
     14          8           0       -1.490296    2.094504    0.230553
     15          6           0        3.337420    0.980630   -0.187655
     16          6           0        2.261873    1.769696    0.559713
     17          6           0        2.308912    3.267392    0.255592
     18          1           0        4.326274    1.379180    0.077431
     19          1           0        3.215365    1.140375   -1.267923
     20          1           0        2.385066    1.607407    1.638185
     21          1           0        1.275475    1.369097    0.292965
     22          1           0        2.163571    3.447971   -0.814394
     23          1           0        3.279467    3.687635    0.538470
     24          1           0        1.531543    3.812262    0.800270
     25          6           0        3.303216   -0.518131    0.106068
     26          6           0        4.378763   -1.307197   -0.641299
     27          6           0        4.331725   -2.804893   -0.337178
     28          1           0        3.425271   -0.677876    1.186336
     29          1           0        2.314362   -0.916681   -0.159016
     30          1           0        5.365161   -0.906597   -0.374551
     31          1           0        4.255570   -1.144908   -1.719771
     32          1           0        3.361170   -3.225136   -0.620056
     33          1           0        4.477064   -2.985472    0.732807
     34          1           0        5.109093   -3.349762   -0.881856
 ---------------------------------------------------------------------

 SCF Done:  E(RHF) =  -669.535961420     A.U. after   15 cycles
 E2 =    -0.2092128876D+01 EUMP2 =    -0.67162809029582D+03

 The electronic state is 1-A.
 Alpha  occ. eigenvalues --  -20.60894 -20.60884 -15.85927 -11.31247 -11.27815
 Alpha  occ. eigenvalues --  -11.27788 -11.27549 -11.26824 -11.26807 -11.21711
 Alpha  occ. eigenvalues --  -11.21487 -11.21306 -11.21139 -11.21044 -11.20244
 Alpha  occ. eigenvalues --   -1.59957  -1.39513  -1.19418  -1.08822  -1.08308
 Alpha  occ. eigenvalues --   -1.04812  -1.03292  -0.95757  -0.95656  -0.86770
 Alpha  occ. eigenvalues --   -0.86214  -0.82497  -0.79423  -0.78141  -0.77513
 Alpha  occ. eigenvalues --   -0.72153  -0.71272  -0.70527  -0.65082  -0.64962
 Alpha  occ. eigenvalues --   -0.64788  -0.62169  -0.60672  -0.59161  -0.57331
 Alpha  occ. eigenvalues --   -0.55319  -0.55054  -0.53146  -0.52913  -0.52397
 Alpha  occ. eigenvalues --   -0.52178  -0.49719  -0.48940  -0.48901  -0.47698
 Alpha  occ. eigenvalues --   -0.46466  -0.45637  -0.45545  -0.44848  -0.43559
 Alpha  occ. eigenvalues --   -0.37399  -0.36412
 Alpha virt. eigenvalues --    0.04938   0.11202   0.16437   0.20719   0.23039
 Alpha virt. eigenvalues --    0.24378   0.25396   0.26998   0.27747   0.28186
 Alpha virt. eigenvalues --    0.29724   0.30034   0.31568   0.31717   0.32508

 Mulliken charges:
               1
     1  C   -0.170468
     2  C   -0.221012
     3  C   -0.174120
     4  C    0.156123
     5  C   -0.170525
     6  C   -0.218715
     7  H    0.225948
     8  H    0.225122
     9  H    0.283733
    10  H    0.275650
    11  H    0.223658
    12  N    0.489821
    13  O   -0.459328
    14  O   -0.463271
    15  C   -0.297670
    16  C   -0.310426
    17  C   -0.473125
    18  H    0.149261
    19  H    0.150802
    20  H    0.145764
    21  H    0.165594
    22  H    0.156558
    23  H    0.148935
    24  H    0.171521
    25  C   -0.298257
    26  C   -0.299046
    27  C   -0.475561
    28  H    0.146809
    29  H    0.142474
    30  H    0.153549
    31  H    0.153419
    32  H    0.151681
    33  H    0.153857
    34  H    0.161247
 Sum of Mulliken charges =  -0.00000

 Dipole moment (field-independent basis, Debye):
    X=             -0.4557    Y=             -5.0202    Z=              0.6730  Tot=              5.0856
 Quadrupole moment (field-independent basis, Debye-Ang):
   XX=            -89.2025   YY=            -96.8780   ZZ=            -93.8034
   XY=             13.7893   XZ=              0.8860   YZ=              0.2634

 Normal termination of Gaussian 16 at Thu May  6 19:03:45 2021.
