 Gaussian 16, Revision A.03,
 Gaussian 16:  EM64L-G16RevA.03 25-Dec-2016

 -------------
 #p 6-31g* mp2
 -------------

 ------------------------------------------------------
 Input file generated by CHIRIPA (05-May-2021 14:51:11)
 ------------------------------------------------------
 Symbolic Z-matrix:
 Charge =  0 Multiplicity = 1

                         Standard orientation:
 ---------------------------------------------------------------------
 Center     Atomic      Atomic             Coordinates (Angstroms)
 Number     Number       Type             X           Y           Z
 ---------------------------------------------------------------------
      1          6           0       -2.416453    0.883133    0.441495
      2          6           0       -1.737286    2.240350    0.255264
      3          6           0       -2.044077    3.215838    1.391968
      4          1           0       -3.502476    1.030955    0.516645
      5          1           0       -2.093452    0.447356    1.397091
      6          1           0       -2.060403    2.672812   -0.700344
      7          1           0       -0.652769    2.089261    0.180357
      8          1           0       -1.705876    2.809085    2.350494
      9          1           0       -3.121508    3.395952    1.464789
     10          1           0       -1.548598    4.179606    1.238628
     11          6           0       -2.119277   -0.102912   -0.686836
     12          6           0       -2.798444   -1.460129   -0.500605
     13          6           0       -2.491653   -2.435618   -1.637309
     14          1           0       -2.442278    0.332865   -1.642432
     15          1           0       -1.033254   -0.250734   -0.761985
     16          1           0       -3.882961   -1.309040   -0.425698
     17          1           0       -2.475326   -1.892591    0.455003
     18          1           0       -1.414222   -2.615731   -1.710130
     19          1           0       -2.829854   -2.028864   -2.595835
     20          1           0       -2.987132   -3.399385   -1.483969
     21          6           0        2.191719   -1.150091    0.114672
     22          6           0        1.533931   -1.706910    1.377704
     23          6           0        1.388539   -3.228652    1.346767
     24          1           0        1.597734   -1.445377   -0.761076
     25          1           0        3.181300   -1.611467   -0.008843
     26          1           0        0.546457   -1.243591    1.499551
     27          1           0        2.129446   -1.410103    2.250564
     28          1           0        2.368321   -3.707355    1.249441
     29          1           0        0.776338   -3.539897    0.494161
     30          1           0        0.916005   -3.605431    2.259241
     31          6           0        2.344011    0.369870    0.130669
     32          6           0        3.001799    0.926690   -1.132364
     33          6           0        3.147190    2.448431   -1.101427
     34          1           0        1.354430    0.831247    0.254183
     35          1           0        2.937996    0.665156    1.006416
     36          1           0        2.406283    0.629882   -2.005223
     37          1           0        3.989273    0.463371   -1.254210
     38          1           0        3.759392    2.759676   -0.248820
     39          1           0        2.167409    2.927133   -1.004100
     40          1           0        3.619726    2.825211   -2.013900
 ---------------------------------------------------------------------

 SCF Done:  E(RHF) =  -470.733186689     A.U. after   11 cycles
 E2 =    -0.1585107104D+01 EUMP2 =    -0.47231829379305D+03

 The electronic state is 1-A.
 Alpha  occ. eigenvalues --  -11.21677 -11.21659 -11.21655 -11.21631 -11.21473
 Alpha  occ. eigenvalues --  -11.21467 -11.21413 -11.21400 -11.21139 -11.21129
 Alpha  occ. eigenvalues --  -11.21104 -11.21089  -1.08550  -1.08444  -1.03609
 Alpha  occ. eigenvalues --   -1.03558  -0.96048  -0.96016  -0.87068  -0.87027
 Alpha  occ. eigenvalues --   -0.79678  -0.79623  -0.78378  -0.78250  -0.65560
 Alpha  occ. eigenvalues --   -0.64722  -0.61188  -0.60786  -0.59415  -0.59384
 Alpha  occ. eigenvalues --   -0.57650  -0.57635  -0.55421  -0.55227  -0.52729
 Alpha  occ. eigenvalues --   -0.52716  -0.52468  -0.52445  -0.50084  -0.49875
 Alpha  occ. eigenvalues --   -0.48084  -0.47883  -0.46857  -0.46644  -0.46218
 Alpha  occ. eigenvalues --   -0.45796  -0.45750  -0.45248  -0.43845  -0.43831
 Alpha virt. eigenvalues --    0.18082   0.21453   0.23123   0.25168   0.25527
 Alpha virt. eigenvalues --    0.26097   0.26554   0.27362   0.28599   0.30081
 Alpha virt. eigenvalues --    0.31470   0.31514   0.31791   0.31973   0.32164

 Mulliken charges:
               1
     1  C   -0.298994
     2  C   -0.308804
     3  C   -0.475185
     4  H    0.150364
     5  H    0.150175
     6  H    0.152282
     7  H    0.159051
     8  H    0.155556
     9  H    0.155351
    10  H    0.160492
    11  C   -0.304057
    12  C   -0.300415
    13  C   -0.476930
    14  H    0.149902
    15  H    0.154354
    16  H    0.152403
    17  H    0.153015
    18  H    0.155184
    19  H    0.155485
    20  H    0.160890
    21  C   -0.299353
    22  C   -0.302696
    23  C   -0.476849
    24  H    0.150126
    25  H    0.150415
    26  H    0.153631
    27  H    0.152431
    28  H    0.155619
    29  H    0.156280
    30  H    0.160426
    31  C   -0.309185
    32  C   -0.299111
    33  C   -0.477138
    34  H    0.158798
    35  H    0.150069
    36  H    0.152239
    37  H    0.152155
    38  H    0.155182
    39  H    0.156309
    40  H    0.160531
 Sum of Mulliken charges =  -0.00000

 Dipole moment (field-independent basis, Debye):
    X=             -0.0041    Y=              0.0050    Z=              0.0037  Tot=              0.0074
 Quadrupole moment (field-independent basis, Debye-Ang):
   XX=            -83.1898   YY=            -86.4733   ZZ=            -84.8822
   XY=             -0.4566   XZ=              0.9542   YZ=             -0.6929

 Normal termination of Gaussian 16 at Wed May  5 23:05:29 2021.
