 Gaussian 16, Revision A.03,
 Gaussian 16:  EM64L-G16RevA.03 25-Dec-2016

 -------------
 #p 6-31g* mp2
 -------------

 ------------------------------------------------------
 Input file generated by CHIRIPA (05-May-2021 14:55:25)
 ------------------------------------------------------
 Symbolic Z-matrix:
 Charge =  0 Multiplicity = 1

                         Standard orientation:
 ---------------------------------------------------------------------
 Center     Atomic      Atomic             Coordinates (Angstroms)
 Number     Number       Type             X           Y           Z
 ---------------------------------------------------------------------
      1          6           0        5.186908   -0.089585   -0.533548
      2          6           0        4.569979    1.067580   -0.046835
      3          6           0        3.221517    1.051824    0.321881
      4          6           0        2.516809   -0.143733    0.190281
      5          6           0        3.103243   -1.313107   -0.291332
      6          6           0        4.452865   -1.274146   -0.654031
      7          1           0        6.234876   -0.068332   -0.817639
      8          1           0        5.137582    1.988946    0.047803
      9          1           0        2.719005    1.933137    0.701601
     10          1           0        2.511469   -2.216611   -0.374405
     11          1           0        4.929370   -2.174338   -1.031713
     12          7           0        1.088639   -0.172696    0.577439
     13          8           0        0.489706   -1.238613    0.451987
     14          8           0        0.595214    0.871068    0.999015
     15          6           0       -3.717145    0.887283   -0.367782
     16          6           0       -2.659855    1.933037   -0.012084
     17          6           0       -3.063104    3.347343   -0.430318
     18          1           0       -3.899297    0.912992   -1.450882
     19          1           0       -4.666531    1.156852    0.115327
     20          1           0       -1.712384    1.660826   -0.494595
     21          1           0       -2.480058    1.904703    1.070269
     22          1           0       -3.995255    3.643508    0.061600
     23          1           0       -3.223218    3.398246   -1.512156
     24          1           0       -2.293003    4.078936   -0.166545
     25          6           0       -3.328458   -0.531546    0.044013
     26          6           0       -4.385748   -1.577299   -0.311686
     27          6           0       -3.982498   -2.991606    0.106549
     28          1           0       -2.379072   -0.801115   -0.439095
     29          1           0       -3.146305   -0.557255    1.127112
     30          1           0       -4.565544   -1.548966   -1.394038
     31          1           0       -5.333219   -1.305089    0.170826
     32          1           0       -3.822384   -3.042509    1.188387
     33          1           0       -3.050348   -3.287771   -0.385369
     34          1           0       -4.752600   -3.723199   -0.157225
 ---------------------------------------------------------------------

 SCF Done:  E(RHF) =  -669.535920114     A.U. after   15 cycles
 E2 =    -0.2092208636D+01 EUMP2 =    -0.67162812875003D+03

 The electronic state is 1-A.
 Alpha  occ. eigenvalues --  -20.61039 -20.61031 -15.86044 -11.31355 -11.27913
 Alpha  occ. eigenvalues --  -11.27910 -11.27646 -11.26914 -11.26904 -11.20288
 Alpha  occ. eigenvalues --  -11.19900 -11.19867 -11.19861 -11.19798 -11.19585
 Alpha  occ. eigenvalues --   -1.60085  -1.39642  -1.19519  -1.08927  -1.06884
 Alpha  occ. eigenvalues --   -1.04911  -1.02114  -0.95769  -0.94601  -0.86313
 Alpha  occ. eigenvalues --   -0.85622  -0.82606  -0.78142  -0.77660  -0.76617
 Alpha  occ. eigenvalues --   -0.72255  -0.71397  -0.70626  -0.65173  -0.64913
 Alpha  occ. eigenvalues --   -0.63538  -0.62258  -0.59536  -0.57960  -0.56185
 Alpha  occ. eigenvalues --   -0.55416  -0.53915  -0.53245  -0.53002  -0.51356
 Alpha  occ. eigenvalues --   -0.51016  -0.49082  -0.49034  -0.48554  -0.46476
 Alpha  occ. eigenvalues --   -0.45334  -0.44828  -0.44157  -0.44017  -0.42333
 Alpha  occ. eigenvalues --   -0.37494  -0.36511
 Alpha virt. eigenvalues --    0.04828   0.11144   0.16319   0.21280   0.24301
 Alpha virt. eigenvalues --    0.25584   0.27205   0.28029   0.28257   0.29080
 Alpha virt. eigenvalues --    0.29381   0.30910   0.32339   0.32700   0.33054

 Mulliken charges:
               1
     1  C   -0.170492
     2  C   -0.218549
     3  C   -0.170807
     4  C    0.158082
     5  C   -0.170780
     6  C   -0.218558
     7  H    0.226229
     8  H    0.224065
     9  H    0.275972
    10  H    0.275862
    11  H    0.224036
    12  N    0.487765
    13  O   -0.458879
    14  O   -0.457018
    15  C   -0.299539
    16  C   -0.294703
    17  C   -0.475710
    18  H    0.142064
    19  H    0.142688
    20  H    0.159508
    21  H    0.158543
    22  H    0.150360
    23  H    0.149034
    24  H    0.156152
    25  C   -0.298799
    26  C   -0.299117
    27  C   -0.473662
    28  H    0.164257
    29  H    0.153032
    30  H    0.146300
    31  H    0.146702
    32  H    0.155302
    33  H    0.157428
    34  H    0.153233
 Sum of Mulliken charges =  -0.00000

 Dipole moment (field-independent basis, Debye):
    X=              5.5174    Y=              0.0254    Z=             -1.2227  Tot=              5.6513
 Quadrupole moment (field-independent basis, Debye-Ang):
   XX=            -71.7107   YY=            -92.2076   ZZ=            -95.1218
   XY=              0.0756   XZ=             -3.4543   YZ=              2.2264

 Normal termination of Gaussian 16 at Wed May  5 19:12:10 2021.
