 Gaussian 16, Revision A.03,
 Gaussian 16:  EM64L-G16RevA.03 25-Dec-2016

 -------------
 #p 6-31g* mp2
 -------------

 ------------------------------------------------------
 Input file generated by CHIRIPA (05-May-2021 14:57:24)
 ------------------------------------------------------
 Symbolic Z-matrix:
 Charge =  0 Multiplicity = 1

                         Standard orientation:
 ---------------------------------------------------------------------
 Center     Atomic      Atomic             Coordinates (Angstroms)
 Number     Number       Type             X           Y           Z
 ---------------------------------------------------------------------
      1          6           0       -1.935173    0.924795    0.661488
      2          6           0       -2.317156   -0.409625    0.834504
      3          6           0       -3.603362   -0.831082    0.484370
      4          6           0       -4.486070    0.112764   -0.038384
      5          6           0       -4.135275    1.449274   -0.222710
      6          6           0       -2.843849    1.848357    0.134363
      7          1           0       -0.933989    1.243503    0.936176
      8          1           0       -1.613559   -1.129065    1.243651
      9          1           0       -3.925362   -1.857974    0.607772
     10          1           0       -4.858710    2.143371   -0.632941
     11          1           0       -2.549951    2.885331   -0.001108
     12          7           0       -5.850481   -0.321571   -0.412728
     13          8           0       -6.609528    0.529443   -0.871271
     14          8           0       -6.135025   -1.504792   -0.240508
     15          6           0        6.466345    0.960943   -0.460987
     16          6           0        6.322810   -0.405333   -0.724066
     17          6           0        5.105611   -1.050311   -0.485367
     18          6           0        4.048012   -0.295071    0.019000
     19          6           0        4.159813    1.067523    0.291266
     20          6           0        5.386293    1.691722    0.044948
     21          1           0        7.415499    1.453907   -0.649374
     22          1           0        7.159883   -0.975375   -1.117008
     23          1           0        4.966956   -2.106853   -0.680074
     24          1           0        3.307363    1.609313    0.682687
     25          1           0        5.494877    2.752912    0.250197
     26          7           0        2.754507   -0.966882    0.275733
     27          8           0        1.837969   -0.279176    0.720322
     28          8           0        2.681685   -2.168430    0.027511
 ---------------------------------------------------------------------

 SCF Done:  E(RHF) =  -868.340291400     A.U. after   16 cycles
 E2 =    -0.2598254047D+01 EUMP2 =    -0.87093854544671D+03

 The electronic state is 1-A.
 Alpha  occ. eigenvalues --  -20.61873 -20.61821 -20.60001 -20.59990 -15.86883
 Alpha  occ. eigenvalues --  -15.85044 -11.31977 -11.30207 -11.28545 -11.28484
 Alpha  occ. eigenvalues --  -11.28189 -11.27474 -11.27439 -11.26806 -11.26693
 Alpha  occ. eigenvalues --  -11.26298 -11.25762 -11.25517  -1.60903  -1.59079
 Alpha  occ. eigenvalues --   -1.40469  -1.38638  -1.20120  -1.18340  -1.09561
 Alpha  occ. eigenvalues --   -1.07740  -1.05485  -1.03712  -0.96445  -0.94617
 Alpha  occ. eigenvalues --   -0.86895  -0.85093  -0.83295  -0.81464  -0.78372
 Alpha  occ. eigenvalues --   -0.76565  -0.73133  -0.72199  -0.71266  -0.71225
 Alpha  occ. eigenvalues --   -0.70400  -0.69362  -0.65778  -0.65483  -0.63971
 Alpha  occ. eigenvalues --   -0.63673  -0.62840  -0.61061  -0.55986  -0.54104
 Alpha  occ. eigenvalues --   -0.53822  -0.53574  -0.52059  -0.51774  -0.49889
 Alpha  occ. eigenvalues --   -0.49831  -0.48034  -0.48002  -0.45929  -0.44090
 Alpha  occ. eigenvalues --   -0.38075  -0.37074  -0.36268  -0.35330
 Alpha virt. eigenvalues --    0.04154   0.05958   0.10585   0.12338   0.15704
 Alpha virt. eigenvalues --    0.17526   0.20681   0.22565   0.26622   0.27387
 Alpha virt. eigenvalues --    0.28454   0.29283   0.30474   0.31588   0.32689

 Mulliken charges:
               1
     1  C   -0.172546
     2  C   -0.219956
     3  C   -0.172951
     4  C    0.157388
     5  C   -0.172623
     6  C   -0.220172
     7  H    0.236954
     8  H    0.236801
     9  H    0.273689
    10  H    0.271461
    11  H    0.217785
    12  N    0.488240
    13  O   -0.463906
    14  O   -0.462117
    15  C   -0.169750
    16  C   -0.218343
    17  C   -0.170092
    18  C    0.158228
    19  C   -0.169990
    20  C   -0.218226
    21  H    0.228265
    22  H    0.226168
    23  H    0.277231
    24  H    0.271289
    25  H    0.224911
    26  N    0.492979
    27  O   -0.475234
    28  O   -0.455481
 Sum of Mulliken charges =  -0.00000

 Dipole moment (field-independent basis, Debye):
    X=             10.0191    Y=              3.7496    Z=              0.4364  Tot=             10.7067
 Quadrupole moment (field-independent basis, Debye-Ang):
   XX=           -111.4005   YY=            -97.9913   ZZ=           -105.6127
   XY=             -0.7894   XZ=            -10.5862   YZ=              0.4539

 Normal termination of Gaussian 16 at Thu May  6 14:39:02 2021.
