 Gaussian 16, Revision A.03,
 Gaussian 16:  EM64L-G16RevA.03 25-Dec-2016

 -------------
 #p 6-31g* mp2
 -------------

 ------------------------------------------------------
 Input file generated by CHIRIPA (05-May-2021 14:55:25)
 ------------------------------------------------------
 Symbolic Z-matrix:
 Charge =  0 Multiplicity = 1

                         Standard orientation:
 ---------------------------------------------------------------------
 Center     Atomic      Atomic             Coordinates (Angstroms)
 Number     Number       Type             X           Y           Z
 ---------------------------------------------------------------------
      1          6           0        4.855647    1.164654    0.183654
      2          6           0        4.680809    0.223863   -0.836574
      3          6           0        3.485506   -0.493273   -0.943876
      4          6           0        2.481485   -0.243276   -0.009675
      5          6           0        2.625504    0.687534    1.018012
      6          6           0        3.829246    1.393084    1.106065
      7          1           0        5.787465    1.717242    0.259533
      8          1           0        5.476205    0.044388   -1.554334
      9          1           0        3.323526   -1.227358   -1.723813
     10          1           0        1.814480    0.844607    1.718716
     11          1           0        3.962236    2.123111    1.899424
     12          7           0        1.211604   -0.996343   -0.113082
     13          8           0        0.342370   -0.757659    0.722442
     14          8           0        1.109550   -1.811021   -1.027698
     15          6           0       -3.539329    0.747878   -0.478407
     16          6           0       -3.676540    2.082157    0.255663
     17          6           0       -3.866241    3.263695   -0.696061
     18          1           0       -2.688023    0.803320   -1.170613
     19          1           0       -4.433573    0.583080   -1.095306
     20          1           0       -2.782920    2.243736    0.872064
     21          1           0       -4.527501    2.023467    0.946341
     22          1           0       -4.767883    3.129125   -1.302306
     23          1           0       -3.013389    3.350645   -1.377005
     24          1           0       -3.962162    4.207479   -0.150231
     25          6           0       -3.349058   -0.442825    0.459545
     26          6           0       -3.211847   -1.777104   -0.274525
     27          6           0       -3.022146   -2.958641    0.677200
     28          1           0       -2.454814   -0.278027    1.076444
     29          1           0       -4.200364   -0.498267    1.151751
     30          1           0       -2.360886   -1.718414   -0.965203
     31          1           0       -4.105467   -1.938683   -0.890926
     32          1           0       -3.874998   -3.045592    1.358144
     33          1           0       -2.120504   -2.824072    1.283444
     34          1           0       -2.926225   -3.902425    0.131369
 ---------------------------------------------------------------------

 SCF Done:  E(RHF) =  -669.536850148     A.U. after   15 cycles
 E2 =    -0.2091998750D+01 EUMP2 =    -0.67162884889786D+03

 The electronic state is 1-A.
 Alpha  occ. eigenvalues --  -20.61162 -20.61156 -15.86167 -11.31418 -11.27970
 Alpha  occ. eigenvalues --  -11.27965 -11.27693 -11.26959 -11.26949 -11.20730
 Alpha  occ. eigenvalues --  -11.20431 -11.20181 -11.19807 -11.19693 -11.19319
 Alpha  occ. eigenvalues --   -1.60199  -1.39759  -1.19576  -1.08994  -1.07074
 Alpha  occ. eigenvalues --   -1.04961  -1.02203  -0.95847  -0.94687  -0.86365
 Alpha  occ. eigenvalues --   -0.85716  -0.82686  -0.78355  -0.77749  -0.76802
 Alpha  occ. eigenvalues --   -0.72390  -0.71506  -0.70684  -0.65236  -0.64966
 Alpha  occ. eigenvalues --   -0.63678  -0.62308  -0.59577  -0.58133  -0.56284
 Alpha  occ. eigenvalues --   -0.55465  -0.53962  -0.53295  -0.53051  -0.51448
 Alpha  occ. eigenvalues --   -0.51118  -0.49152  -0.49138  -0.48610  -0.46655
 Alpha  occ. eigenvalues --   -0.45383  -0.45190  -0.44359  -0.44141  -0.42450
 Alpha  occ. eigenvalues --   -0.37550  -0.36558
 Alpha virt. eigenvalues --    0.04761   0.11099   0.16265   0.21213   0.24119
 Alpha virt. eigenvalues --    0.25690   0.27159   0.27710   0.28339   0.28833
 Alpha virt. eigenvalues --    0.29237   0.30862   0.32349   0.32662   0.32773

 Mulliken charges:
               1
     1  C   -0.170304
     2  C   -0.218603
     3  C   -0.170329
     4  C    0.157598
     5  C   -0.170577
     6  C   -0.218531
     7  H    0.226507
     8  H    0.224290
     9  H    0.276159
    10  H    0.275681
    11  H    0.224330
    12  N    0.492265
    13  O   -0.463855
    14  O   -0.458150
    15  C   -0.296901
    16  C   -0.298363
    17  C   -0.474666
    18  H    0.149819
    19  H    0.144868
    20  H    0.150039
    21  H    0.149588
    22  H    0.154177
    23  H    0.152937
    24  H    0.155978
    25  C   -0.303544
    26  C   -0.297299
    27  C   -0.477438
    28  H    0.168992
    29  H    0.140224
    30  H    0.165710
    31  H    0.141298
    32  H    0.145032
    33  H    0.167943
    34  H    0.155126
 Sum of Mulliken charges =  -0.00000

 Dipole moment (field-independent basis, Debye):
    X=              4.9781    Y=              2.5832    Z=              0.3764  Tot=              5.6210
 Quadrupole moment (field-independent basis, Debye-Ang):
   XX=            -73.0222   YY=            -97.1302   ZZ=            -92.2258
   XY=              4.9645   XZ=             -0.9223   YZ=              2.8695

 Normal termination of Gaussian 16 at Thu May  6 12:42:51 2021.
