 Gaussian 16, Revision A.03,
 Gaussian 16:  EM64L-G16RevA.03 25-Dec-2016

 -------------
 #p 6-31g* mp2
 -------------

 ------------------------------------------------------
 Input file generated by CHIRIPA (05-May-2021 14:57:20)
 ------------------------------------------------------
 Symbolic Z-matrix:
 Charge =  0 Multiplicity = 1

                         Standard orientation:
 ---------------------------------------------------------------------
 Center     Atomic      Atomic             Coordinates (Angstroms)
 Number     Number       Type             X           Y           Z
 ---------------------------------------------------------------------
      1          6           0       -1.265355   -1.661993    0.205445
      2          6           0       -1.636730   -0.790180    1.234300
      3          6           0       -2.814785   -0.043125    1.141323
      4          6           0       -3.601334   -0.193192    0.000223
      5          6           0       -3.258307   -1.053507   -1.041641
      6          6           0       -2.075900   -1.790648   -0.927245
      7          1           0       -0.348524   -2.238472    0.285990
      8          1           0       -1.009194   -0.688241    2.115124
      9          1           0       -3.126098    0.639122    1.923014
     10          1           0       -3.904348   -1.133796   -1.907437
     11          1           0       -1.789982   -2.466942   -1.727821
     12          7           0       -4.850792    0.592433   -0.109545
     13          8           0       -5.526451    0.442217   -1.125201
     14          8           0       -5.130799    1.343547    0.822153
     15          6           0        2.427250    2.649218   -0.143919
     16          6           0        3.759906    2.425161   -0.504957
     17          6           0        4.306891    1.140232   -0.439284
     18          6           0        3.489007    0.097751   -0.006172
     19          6           0        2.157703    0.289048    0.360332
     20          6           0        1.631804    1.582328    0.286815
     21          1           0        2.010529    3.650626   -0.197982
     22          1           0        4.380005    3.251828   -0.839836
     23          1           0        5.335460    0.938593   -0.712793
     24          1           0        1.564274   -0.554982    0.690295
     25          1           0        0.596518    1.753381    0.567829
     26          7           0        4.056914   -1.266966    0.067507
     27          8           0        3.315488   -2.168536    0.452340
     28          8           0        5.232712   -1.409221   -0.260973
 ---------------------------------------------------------------------

 SCF Done:  E(RHF) =  -868.338432663     A.U. after   16 cycles
 E2 =    -0.2600704376D+01 EUMP2 =    -0.87093913703860D+03

 The electronic state is 1-A.
 Alpha  occ. eigenvalues --  -20.61522 -20.61479 -20.61220 -20.61208 -15.86546
 Alpha  occ. eigenvalues --  -15.86274 -11.31795 -11.31712 -11.28395 -11.28352
 Alpha  occ. eigenvalues --  -11.28293 -11.28254 -11.27990 -11.27981 -11.27378
 Alpha  occ. eigenvalues --  -11.27291 -11.27278 -11.27215  -1.60569  -1.60292
 Alpha  occ. eigenvalues --   -1.40132  -1.39843  -1.19942  -1.19893  -1.09340
 Alpha  occ. eigenvalues --   -1.09268  -1.05352  -1.05281  -0.96217  -0.96076
 Alpha  occ. eigenvalues --   -0.86740  -0.86683  -0.83043  -0.82913  -0.78145
 Alpha  occ. eigenvalues --   -0.77946  -0.72772  -0.72487  -0.71885  -0.71621
 Alpha  occ. eigenvalues --   -0.71182  -0.70825  -0.65604  -0.65545  -0.65349
 Alpha  occ. eigenvalues --   -0.65239  -0.62773  -0.62553  -0.55868  -0.55679
 Alpha  occ. eigenvalues --   -0.53693  -0.53577  -0.53398  -0.53373  -0.49542
 Alpha  occ. eigenvalues --   -0.49497  -0.49251  -0.49239  -0.45562  -0.45233
 Alpha  occ. eigenvalues --   -0.37904  -0.37865  -0.36933  -0.36890
 Alpha virt. eigenvalues --    0.04329   0.04618   0.10592   0.10727   0.15849
 Alpha virt. eigenvalues --    0.16057   0.19340   0.21936   0.25474   0.26670
 Alpha virt. eigenvalues --    0.27555   0.29157   0.30106   0.31126   0.31687

 Mulliken charges:
               1
     1  C   -0.179457
     2  C   -0.227992
     3  C   -0.173728
     4  C    0.158475
     5  C   -0.170040
     6  C   -0.218489
     7  H    0.239910
     8  H    0.223956
     9  H    0.275979
    10  H    0.277810
    11  H    0.229091
    12  N    0.487996
    13  O   -0.458416
    14  O   -0.460507
    15  C   -0.170352
    16  C   -0.218160
    17  C   -0.170256
    18  C    0.159163
    19  C   -0.173659
    20  C   -0.220297
    21  H    0.229065
    22  H    0.225892
    23  H    0.276872
    24  H    0.266908
    25  H    0.226153
    26  N    0.488734
    27  O   -0.468483
    28  O   -0.456165
 Sum of Mulliken charges =  -0.00000

 Dipole moment (field-independent basis, Debye):
    X=              2.3725    Y=              2.0756    Z=             -0.0450  Tot=              3.1526
 Quadrupole moment (field-independent basis, Debye-Ang):
   XX=           -146.4338   YY=           -101.9229   ZZ=           -101.1936
   XY=             28.6439   XZ=             -3.0076   YZ=              1.4427

 Normal termination of Gaussian 16 at Wed May  5 20:52:30 2021.
