 Gaussian 16, Revision A.03,
 Gaussian 16:  EM64L-G16RevA.03 25-Dec-2016

 -------------
 #p 6-31g* mp2
 -------------

 ------------------------------------------------------
 Input file generated by CHIRIPA (05-May-2021 14:55:24)
 ------------------------------------------------------
 Symbolic Z-matrix:
 Charge =  0 Multiplicity = 1

                         Standard orientation:
 ---------------------------------------------------------------------
 Center     Atomic      Atomic             Coordinates (Angstroms)
 Number     Number       Type             X           Y           Z
 ---------------------------------------------------------------------
      1          6           0       -0.587310   -0.641992    0.792590
      2          6           0       -0.897470    0.455691   -0.016987
      3          6           0       -2.215196    0.690211   -0.420901
      4          6           0       -3.202320   -0.197139    0.005112
      5          6           0       -2.924940   -1.299600    0.811915
      6          6           0       -1.600250   -1.514595    1.203732
      7          1           0        0.439036   -0.816589    1.101661
      8          1           0       -0.112851    1.135027   -0.337801
      9          1           0       -2.483228    1.532224   -1.047471
     10          1           0       -3.728617   -1.959299    1.115753
     11          1           0       -1.362302   -2.367885    1.832479
     12          7           0       -4.601024    0.040802   -0.416090
     13          8           0       -5.452504   -0.755725   -0.027293
     14          8           0       -4.819364    1.019322   -1.127049
     15          6           0        3.244209    0.814704   -0.184056
     16          6           0        3.506106    2.131780    0.547178
     17          6           0        2.377511    3.146247    0.360294
     18          1           0        3.105857    1.018327   -1.254730
     19          1           0        2.299736    0.384495    0.176895
     20          1           0        4.450501    2.558686    0.185950
     21          1           0        3.644041    1.924977    1.616206
     22          1           0        1.431783    2.744322    0.737992
     23          1           0        2.242825    3.381632   -0.700391
     24          1           0        2.585350    4.080384    0.891378
     25          6           0        4.363590   -0.209637   -0.006744
     26          6           0        4.101693   -1.526714   -0.737978
     27          6           0        5.230289   -2.541180   -0.551095
     28          1           0        5.308063    0.220572   -0.367694
     29          1           0        4.501942   -0.413260    1.063929
     30          1           0        3.963758   -1.319909   -1.807007
     31          1           0        3.157298   -1.953618   -0.376750
     32          1           0        5.364974   -2.776565    0.509591
     33          1           0        6.176017   -2.139254   -0.928793
     34          1           0        5.022450   -3.475318   -1.082179
 ---------------------------------------------------------------------

 SCF Done:  E(RHF) =  -669.534833081     A.U. after   15 cycles
 E2 =    -0.2092733158D+01 EUMP2 =    -0.67162756623888D+03

 The electronic state is 1-A.
 Alpha  occ. eigenvalues --  -20.60717 -20.60711 -15.85769 -11.31128 -11.27698
 Alpha  occ. eigenvalues --  -11.27679 -11.27426 -11.26718 -11.26638 -11.22698
 Alpha  occ. eigenvalues --  -11.22638 -11.22537 -11.22392 -11.22179 -11.21823
 Alpha  occ. eigenvalues --   -1.59792  -1.39346  -1.19296  -1.09526  -1.08695
 Alpha  occ. eigenvalues --   -1.04701  -1.04528  -0.96994  -0.95536  -0.88004
 Alpha  occ. eigenvalues --   -0.86105  -0.82365  -0.80604  -0.79365  -0.77404
 Alpha  occ. eigenvalues --   -0.71988  -0.71115  -0.70450  -0.66197  -0.64945
 Alpha  occ. eigenvalues --   -0.64692  -0.62143  -0.61829  -0.60338  -0.58611
 Alpha  occ. eigenvalues --   -0.56342  -0.55193  -0.53631  -0.53436  -0.53019
 Alpha  occ. eigenvalues --   -0.52787  -0.50930  -0.48919  -0.48743  -0.48720
 Alpha  occ. eigenvalues --   -0.47630  -0.46846  -0.46789  -0.44806  -0.44753
 Alpha  occ. eigenvalues --   -0.37279  -0.36294
 Alpha virt. eigenvalues --    0.05116   0.11273   0.16569   0.19028   0.22164
 Alpha virt. eigenvalues --    0.23295   0.24837   0.25924   0.26223   0.28404
 Alpha virt. eigenvalues --    0.29932   0.30604   0.30940   0.31425   0.31627

 Mulliken charges:
               1
     1  C   -0.176475
     2  C   -0.225250
     3  C   -0.171917
     4  C    0.158557
     5  C   -0.171005
     6  C   -0.218253
     7  H    0.228522
     8  H    0.232980
     9  H    0.275816
    10  H    0.275339
    11  H    0.223117
    12  N    0.488017
    13  O   -0.460624
    14  O   -0.460443
    15  C   -0.305635
    16  C   -0.299562
    17  C   -0.481877
    18  H    0.153429
    19  H    0.141265
    20  H    0.157246
    21  H    0.153921
    22  H    0.151648
    23  H    0.156583
    24  H    0.167451
    25  C   -0.298965
    26  C   -0.299802
    27  C   -0.476361
    28  H    0.154380
    29  H    0.150068
    30  H    0.155234
    31  H    0.146350
    32  H    0.155448
    33  H    0.157797
    34  H    0.163000
 Sum of Mulliken charges =  -0.00000

 Dipole moment (field-independent basis, Debye):
    X=              5.2194    Y=             -0.7749    Z=              1.4376  Tot=              5.4689
 Quadrupole moment (field-independent basis, Debye-Ang):
   XX=           -125.6422   YY=            -91.4724   ZZ=            -93.3533
   XY=              4.0530   XZ=             -6.1527   YZ=             -2.8983

 Normal termination of Gaussian 16 at Thu May  6 04:45:56 2021.
