 Gaussian 16, Revision A.03,
 Gaussian 16:  EM64L-G16RevA.03 25-Dec-2016

 -------------
 #p 6-31g* mp2
 -------------

 ------------------------------------------------------
 Input file generated by CHIRIPA (05-May-2021 14:57:22)
 ------------------------------------------------------
 Symbolic Z-matrix:
 Charge =  0 Multiplicity = 1

                         Standard orientation:
 ---------------------------------------------------------------------
 Center     Atomic      Atomic             Coordinates (Angstroms)
 Number     Number       Type             X           Y           Z
 ---------------------------------------------------------------------
      1          6           0       -4.661559    1.728042    0.766694
      2          6           0       -4.442180    0.502586    1.404387
      3          6           0       -3.569222   -0.439196    0.851632
      4          6           0       -2.929459   -0.121126   -0.345374
      5          6           0       -3.127263    1.091120   -1.004633
      6          6           0       -4.004559    2.017886   -0.433665
      7          1           0       -5.341379    2.453808    1.203162
      8          1           0       -4.951044    0.274780    2.336700
      9          1           0       -3.381061   -1.395584    1.324216
     10          1           0       -2.605557    1.289664   -1.932976
     11          1           0       -4.173010    2.968786   -0.931117
     12          7           0       -2.003001   -1.110200   -0.940192
     13          8           0       -1.451565   -0.805881   -1.995628
     14          8           0       -1.845822   -2.171028   -0.339712
     15          6           0        1.511254   -1.880656    0.966459
     16          6           0        1.988425   -0.960490    1.905673
     17          6           0        2.859245    0.062408    1.518504
     18          6           0        3.234018    0.135880    0.177819
     19          6           0        2.775739   -0.765757   -0.781514
     20          6           0        1.905738   -1.780529   -0.371777
     21          1           0        0.835099   -2.672112    1.275987
     22          1           0        1.683752   -1.035818    2.945647
     23          1           0        3.243776    0.788136    2.224814
     24          1           0        3.097248   -0.665046   -1.811032
     25          1           0        1.536745   -2.493741   -1.103364
     26          7           0        4.155483    1.214475   -0.244005
     27          8           0        4.470634    1.257576   -1.431211
     28          8           0        4.545128    1.996355    0.620564
 ---------------------------------------------------------------------

 SCF Done:  E(RHF) =  -868.340580693     A.U. after   16 cycles
 E2 =    -0.2599492536D+01 EUMP2 =    -0.87094007322930D+03

 The electronic state is 1-A.
 Alpha  occ. eigenvalues --  -20.61674 -20.61617 -20.60096 -20.60081 -15.86651
 Alpha  occ. eigenvalues --  -15.85135 -11.31754 -11.30269 -11.28323 -11.28256
 Alpha  occ. eigenvalues --  -11.27977 -11.27264 -11.27214 -11.26877 -11.26721
 Alpha  occ. eigenvalues --  -11.26364 -11.25838 -11.25551  -1.60691  -1.59172
 Alpha  occ. eigenvalues --   -1.40258  -1.38732  -1.19899  -1.18404  -1.09343
 Alpha  occ. eigenvalues --   -1.07813  -1.05264  -1.03759  -0.96227  -0.94692
 Alpha  occ. eigenvalues --   -0.86674  -0.85149  -0.83074  -0.81531  -0.78149
 Alpha  occ. eigenvalues --   -0.76633  -0.72909  -0.71985  -0.71356  -0.71006
 Alpha  occ. eigenvalues --   -0.70495  -0.69426  -0.65558  -0.65266  -0.64030
 Alpha  occ. eigenvalues --   -0.63722  -0.62617  -0.61107  -0.55772  -0.54176
 Alpha  occ. eigenvalues --   -0.53604  -0.53353  -0.52125  -0.51822  -0.49671
 Alpha  occ. eigenvalues --   -0.49626  -0.48126  -0.48090  -0.45716  -0.44190
 Alpha  occ. eigenvalues --   -0.37862  -0.36854  -0.36329  -0.35358
 Alpha virt. eigenvalues --    0.04354   0.05882   0.10805   0.12291   0.15898
 Alpha virt. eigenvalues --    0.17456   0.20955   0.22578   0.26887   0.27794
 Alpha virt. eigenvalues --    0.28440   0.29423   0.30597   0.31866   0.32355

 Mulliken charges:
               1
     1  C   -0.169780
     2  C   -0.218555
     3  C   -0.171207
     4  C    0.159221
     5  C   -0.169607
     6  C   -0.218303
     7  H    0.227836
     8  H    0.224203
     9  H    0.272395
    10  H    0.277718
    11  H    0.226445
    12  N    0.491212
    13  O   -0.457893
    14  O   -0.471024
    15  C   -0.171803
    16  C   -0.222015
    17  C   -0.173767
    18  C    0.156240
    19  C   -0.171989
    20  C   -0.213858
    21  H    0.233547
    22  H    0.217493
    23  H    0.270751
    24  H    0.274752
    25  H    0.236320
    26  N    0.488147
    27  O   -0.461738
    28  O   -0.464741
 Sum of Mulliken charges =  -0.00000

 Dipole moment (field-independent basis, Debye):
    X=             -6.9036    Y=             -0.3868    Z=              3.3616  Tot=              7.6883
 Quadrupole moment (field-independent basis, Debye-Ang):
   XX=           -108.5044   YY=           -104.8588   ZZ=            -98.9579
   XY=            -23.0376   XZ=             -1.9151   YZ=             -2.7631

 Normal termination of Gaussian 16 at Fri May  7 01:46:25 2021.
