 Gaussian 16, Revision A.03,
 Gaussian 16:  EM64L-G16RevA.03 25-Dec-2016

 -------------
 #p 6-31g* mp2
 -------------

 ------------------------------------------------------
 Input file generated by CHIRIPA (05-May-2021 14:57:25)
 ------------------------------------------------------
 Symbolic Z-matrix:
 Charge =  0 Multiplicity = 1

                         Standard orientation:
 ---------------------------------------------------------------------
 Center     Atomic      Atomic             Coordinates (Angstroms)
 Number     Number       Type             X           Y           Z
 ---------------------------------------------------------------------
      1          6           0       -5.235851    1.519991    0.685004
      2          6           0       -5.117864    0.217917    1.182202
      3          6           0       -4.078229   -0.613622    0.755295
      4          6           0       -3.170213   -0.108382   -0.173968
      5          6           0       -3.261049    1.184268   -0.687869
      6          6           0       -4.308701    1.998167   -0.246801
      7          1           0       -6.046578    2.159099    1.022136
      8          1           0       -5.836446   -0.156106    1.905936
      9          1           0       -3.963313   -1.625736    1.123857
     10          1           0       -2.529405    1.529026   -1.408464
     11          1           0       -4.397861    3.008946   -0.634645
     12          7           0       -2.065355   -0.979358   -0.633411
     13          8           0       -1.278330   -0.510527   -1.452817
     14          8           0       -2.007311   -2.114369   -0.165416
     15          6           0        2.051528   -2.194932    0.001791
     16          6           0        2.122275   -1.369458   -1.125199
     17          6           0        2.840141   -0.170521   -1.083188
     18          6           0        3.478062    0.173633    0.107571
     19          6           0        3.426173   -0.627548    1.247179
     20          6           0        2.702555   -1.822001    1.182302
     21          1           0        1.491638   -3.124554   -0.039726
     22          1           0        1.617669   -1.656546   -2.043349
     23          1           0        2.911321    0.487294   -1.940878
     24          1           0        3.939630   -0.314653    2.148221
     25          1           0        2.649332   -2.461109    2.059088
     26          7           0        4.241079    1.440520    0.164150
     27          8           0        4.794272    1.721168    1.225211
     28          8           0        4.271492    2.128869   -0.853636
 ---------------------------------------------------------------------

 SCF Done:  E(RHF) =  -868.340435191     A.U. after   16 cycles
 E2 =    -0.2599127067D+01 EUMP2 =    -0.87093956225751D+03

 The electronic state is 1-A.
 Alpha  occ. eigenvalues --  -20.61606 -20.61576 -20.59934 -20.59926 -15.86604
 Alpha  occ. eigenvalues --  -15.84972 -11.31687 -11.30030 -11.28234 -11.28204
 Alpha  occ. eigenvalues --  -11.27910 -11.27182 -11.27153 -11.26592 -11.26466
 Alpha  occ. eigenvalues --  -11.26078 -11.25549 -11.25299  -1.60647  -1.59015
 Alpha  occ. eigenvalues --   -1.40210  -1.38577  -1.19832  -1.18140  -1.09282
 Alpha  occ. eigenvalues --   -1.07565  -1.05192  -1.03487  -0.96167  -0.94463
 Alpha  occ. eigenvalues --   -0.86604  -0.84884  -0.83011  -0.81311  -0.78086
 Alpha  occ. eigenvalues --   -0.76424  -0.72858  -0.71934  -0.71199  -0.70938
 Alpha  occ. eigenvalues --   -0.70336  -0.69188  -0.65491  -0.65194  -0.63772
 Alpha  occ. eigenvalues --   -0.63458  -0.62543  -0.60849  -0.55706  -0.53915
 Alpha  occ. eigenvalues --   -0.53536  -0.53281  -0.51860  -0.51568  -0.49610
 Alpha  occ. eigenvalues --   -0.49568  -0.47971  -0.47921  -0.45670  -0.44053
 Alpha  occ. eigenvalues --   -0.37797  -0.36781  -0.36045  -0.35053
 Alpha virt. eigenvalues --    0.04428   0.06084   0.10878   0.12601   0.15990
 Alpha virt. eigenvalues --    0.17700   0.21046   0.22792   0.26974   0.27909
 Alpha virt. eigenvalues --    0.28651   0.29657   0.30640   0.32066   0.32414

 Mulliken charges:
               1
     1  C   -0.169734
     2  C   -0.218538
     3  C   -0.170644
     4  C    0.158183
     5  C   -0.169876
     6  C   -0.218398
     7  H    0.227708
     8  H    0.224649
     9  H    0.274580
    10  H    0.276615
    11  H    0.226109
    12  N    0.490529
    13  O   -0.463085
    14  O   -0.465842
    15  C   -0.169637
    16  C   -0.203743
    17  C   -0.175091
    18  C    0.156462
    19  C   -0.174692
    20  C   -0.220722
    21  H    0.232270
    22  H    0.232679
    23  H    0.271697
    24  H    0.270151
    25  H    0.218729
    26  N    0.488141
    27  O   -0.464756
    28  O   -0.463741
 Sum of Mulliken charges =  -0.00000

 Dipole moment (field-independent basis, Debye):
    X=             -7.0917    Y=             -1.4833    Z=              1.2483  Tot=              7.3519
 Quadrupole moment (field-independent basis, Debye-Ang):
   XX=           -100.1839   YY=           -104.9274   ZZ=            -99.8325
   XY=            -25.1869   XZ=             -6.0023   YZ=             -4.5520

 Normal termination of Gaussian 16 at Wed May  5 21:08:31 2021.
