 Gaussian 16, Revision A.03,
 Gaussian 16:  EM64L-G16RevA.03 25-Dec-2016

 -------------
 #p 6-31g* mp2
 -------------

 ------------------------------------------------------
 Input file generated by CHIRIPA (05-May-2021 14:53:11)
 ------------------------------------------------------
 Symbolic Z-matrix:
 Charge =  0 Multiplicity = 1

                         Standard orientation:
 ---------------------------------------------------------------------
 Center     Atomic      Atomic             Coordinates (Angstroms)
 Number     Number       Type             X           Y           Z
 ---------------------------------------------------------------------
      1          6           0        3.730937    1.082511   -0.360021
      2          6           0        2.584031    1.891391    0.246860
      3          6           0        2.641328    3.372287   -0.129248
      4          1           0        4.687563    1.509560   -0.029200
      5          1           0        3.704302    1.185305   -1.453693
      6          1           0        2.611989    1.785982    1.338978
      7          1           0        1.630023    1.462249   -0.085290
      8          1           0        2.590349    3.496039   -1.215842
      9          1           0        3.577893    3.821611    0.216519
     10          1           0        1.812264    3.931741    0.315189
     11          6           0        3.687366   -0.399774    0.006939
     12          6           0        4.834272   -1.208653   -0.599942
     13          6           0        4.776975   -2.689550   -0.223834
     14          1           0        3.714001   -0.502568    1.100611
     15          1           0        2.730740   -0.826823   -0.323882
     16          1           0        5.788280   -0.779512   -0.267792
     17          1           0        4.806314   -1.103244   -1.692061
     18          1           0        3.840410   -3.138874   -0.569601
     19          1           0        4.827954   -2.813302    0.862760
     20          1           0        5.606039   -3.249004   -0.668272
     21          6           0       -0.580707   -0.759107    1.006631
     22          6           0       -1.028765    0.562981    0.918036
     23          6           0       -2.310688    0.847567    0.438209
     24          6           0       -3.121780   -0.219090    0.053939
     25          6           0       -2.704122   -1.546874    0.130349
     26          6           0       -1.418338   -1.807965    0.613197
     27          1           0        0.416620   -0.971054    1.380545
     28          1           0       -0.380419    1.379542    1.222868
     29          1           0       -2.682929    1.861768    0.359159
     30          1           0       -3.373288   -2.339761   -0.181042
     31          1           0       -1.073030   -2.835693    0.680905
     32          7           0       -4.480937    0.069752   -0.455632
     33          8           0       -5.176208   -0.887788   -0.787824
     34          8           0       -4.825238    1.248218   -0.513192
 ---------------------------------------------------------------------

 SCF Done:  E(RHF) =  -669.535394538     A.U. after   15 cycles
 E2 =    -0.2092426340D+01 EUMP2 =    -0.67162782087873D+03

 The electronic state is 1-A.
 Alpha  occ. eigenvalues --  -20.60744 -20.60739 -15.85797 -11.31161 -11.27730
 Alpha  occ. eigenvalues --  -11.27714 -11.27429 -11.26736 -11.26675 -11.22635
 Alpha  occ. eigenvalues --  -11.22420 -11.22363 -11.22269 -11.21934 -11.21835
 Alpha  occ. eigenvalues --   -1.59820  -1.39373  -1.19329  -1.09367  -1.08717
 Alpha  occ. eigenvalues --   -1.04735  -1.04417  -0.96851  -0.95554  -0.87865
 Alpha  occ. eigenvalues --   -0.86130  -0.82387  -0.80516  -0.79228  -0.77433
 Alpha  occ. eigenvalues --   -0.72015  -0.71143  -0.70415  -0.65997  -0.64974
 Alpha  occ. eigenvalues --   -0.64735  -0.62138  -0.61759  -0.60217  -0.58488
 Alpha  occ. eigenvalues --   -0.56124  -0.55198  -0.53536  -0.53280  -0.53066
 Alpha  occ. eigenvalues --   -0.52819  -0.50775  -0.48871  -0.48771  -0.48701
 Alpha  occ. eigenvalues --   -0.47519  -0.46720  -0.46647  -0.44780  -0.44681
 Alpha  occ. eigenvalues --   -0.37280  -0.36321
 Alpha virt. eigenvalues --    0.05071   0.11172   0.16495   0.20266   0.22374
 Alpha virt. eigenvalues --    0.23137   0.25326   0.25690   0.26032   0.28188
 Alpha virt. eigenvalues --    0.29577   0.30438   0.30620   0.31209   0.32032

 Mulliken charges:
               1
     1  C   -0.297142
     2  C   -0.311241
     3  C   -0.475802
     4  H    0.152930
     5  H    0.153892
     6  H    0.147481
     7  H    0.154496
     8  H    0.159890
     9  H    0.158909
    10  H    0.158318
    11  C   -0.302809
    12  C   -0.299930
    13  C   -0.476499
    14  H    0.146382
    15  H    0.147968
    16  H    0.154656
    17  H    0.155143
    18  H    0.153466
    19  H    0.154537
    20  H    0.163960
    21  C   -0.174467
    22  C   -0.221740
    23  C   -0.172775
    24  C    0.158538
    25  C   -0.170924
    26  C   -0.219349
    27  H    0.230487
    28  H    0.230109
    29  H    0.275572
    30  H    0.275453
    31  H    0.223417
    32  N    0.488080
    33  O   -0.460552
    34  O   -0.460453
 Sum of Mulliken charges =  -0.00000

 Dipole moment (field-independent basis, Debye):
    X=              4.9870    Y=             -0.9834    Z=              1.7028  Tot=              5.3607
 Quadrupole moment (field-independent basis, Debye-Ang):
   XX=           -124.1211   YY=            -90.4158   ZZ=            -94.6500
   XY=              3.3513   XZ=             -5.1665   YZ=              0.5229

 Normal termination of Gaussian 16 at Thu May  6 00:53:42 2021.
