 Gaussian 16, Revision A.03,
 Gaussian 16:  EM64L-G16RevA.03 25-Dec-2016

 -------------
 #p 6-31g* mp2
 -------------

 ------------------------------------------------------
 Input file generated by CHIRIPA (05-May-2021 14:57:21)
 ------------------------------------------------------
 Symbolic Z-matrix:
 Charge =  0 Multiplicity = 1

                         Standard orientation:
 ---------------------------------------------------------------------
 Center     Atomic      Atomic             Coordinates (Angstroms)
 Number     Number       Type             X           Y           Z
 ---------------------------------------------------------------------
      1          6           0        1.014485    1.249490   -1.552337
      2          6           0        0.843897   -0.067521   -1.113130
      3          6           0        1.866244   -0.723068   -0.420589
      4          6           0        3.051424   -0.028516   -0.183444
      5          6           0        3.251628    1.284024   -0.608235
      6          6           0        2.215688    1.919877   -1.298935
      7          1           0        0.215021    1.751086   -2.089604
      8          1           0       -0.087899   -0.590615   -1.308508
      9          1           0        1.760868   -1.742328   -0.069274
     10          1           0        4.191804    1.779519   -0.398537
     11          1           0        2.350966    2.942719   -1.638845
     12          7           0        4.140932   -0.712090    0.548743
     13          8           0        5.175524   -0.078279    0.745059
     14          8           0        3.939667   -1.868742    0.912452
     15          6           0       -2.578846    2.195822    1.344222
     16          6           0       -3.294661    2.057761    0.150460
     17          6           0       -3.463303    0.799365   -0.434817
     18          6           0       -2.900187   -0.304564    0.203564
     19          6           0       -2.181685   -0.199417    1.393517
     20          6           0       -2.025618    1.068779    1.960854
     21          1           0       -2.452726    3.177179    1.791911
     22          1           0       -3.725408    2.931283   -0.330646
     23          1           0       -4.012770    0.663890   -1.358478
     24          1           0       -1.763913   -1.088675    1.849702
     25          1           0       -1.469215    1.173001    2.887999
     26          7           0       -3.072064   -1.641958   -0.406547
     27          8           0       -2.566150   -2.598913    0.175627
     28          8           0       -3.709442   -1.707930   -1.455372
 ---------------------------------------------------------------------

 SCF Done:  E(RHF) =  -868.337901278     A.U. after   16 cycles
 E2 =    -0.2601106895D+01 EUMP2 =    -0.87093900817210D+03

 The electronic state is 1-A.
 Alpha  occ. eigenvalues --  -20.61658 -20.61649 -20.60798 -20.60787 -15.86703
 Alpha  occ. eigenvalues --  -15.85847 -11.32017 -11.31211 -11.28603 -11.28533
 Alpha  occ. eigenvalues --  -11.28264 -11.27802 -11.27718 -11.27584 -11.27522
 Alpha  occ. eigenvalues --  -11.27488 -11.26833 -11.26737  -1.60750  -1.59873
 Alpha  occ. eigenvalues --   -1.40294  -1.39425  -1.20189  -1.19383  -1.09586
 Alpha  occ. eigenvalues --   -1.08781  -1.05557  -1.04777  -0.96421  -0.95613
 Alpha  occ. eigenvalues --   -0.86957  -0.86179  -0.83235  -0.82439  -0.78303
 Alpha  occ. eigenvalues --   -0.77489  -0.72897  -0.72125  -0.72056  -0.71253
 Alpha  occ. eigenvalues --   -0.71201  -0.70484  -0.65816  -0.65530  -0.65029
 Alpha  occ. eigenvalues --   -0.64781  -0.62890  -0.62120  -0.56033  -0.55287
 Alpha  occ. eigenvalues --   -0.54008  -0.53624  -0.53064  -0.52824  -0.49669
 Alpha  occ. eigenvalues --   -0.49660  -0.48825  -0.48817  -0.45693  -0.44830
 Alpha  occ. eigenvalues --   -0.38172  -0.37418  -0.37186  -0.36287
 Alpha virt. eigenvalues --    0.04166   0.05038   0.10444   0.11282   0.15704
 Alpha virt. eigenvalues --    0.16532   0.20707   0.21260   0.26573   0.26825
 Alpha virt. eigenvalues --    0.27636   0.28296   0.30262   0.30819   0.31770

 Mulliken charges:
               1
     1  C   -0.170832
     2  C   -0.217273
     3  C   -0.174962
     4  C    0.157994
     5  C   -0.172159
     6  C   -0.219721
     7  H    0.224037
     8  H    0.226788
     9  H    0.280199
    10  H    0.274744
    11  H    0.221454
    12  N    0.487742
    13  O   -0.461451
    14  O   -0.458987
    15  C   -0.170388
    16  C   -0.220820
    17  C   -0.176348
    18  C    0.150506
    19  C   -0.170745
    20  C   -0.215584
    21  H    0.228426
    22  H    0.224667
    23  H    0.276319
    24  H    0.278467
    25  H    0.228662
    26  N    0.486555
    27  O   -0.458490
    28  O   -0.458801
 Sum of Mulliken charges =  -0.00000

 Dipole moment (field-independent basis, Debye):
    X=             -3.3526    Y=              7.1138    Z=             -0.2752  Tot=              7.8690
 Quadrupole moment (field-independent basis, Debye-Ang):
   XX=           -130.0750   YY=           -104.1938   ZZ=           -100.9993
   XY=             -5.2956   XZ=            -11.5893   YZ=             -1.9997

 Normal termination of Gaussian 16 at Thu May  6 17:48:25 2021.
