 Gaussian 16, Revision A.03,
 Gaussian 16:  EM64L-G16RevA.03 25-Dec-2016

 -------------
 #p 6-31g* mp2
 -------------

 ------------------------------------------------------
 Input file generated by CHIRIPA (05-May-2021 14:53:14)
 ------------------------------------------------------
 Symbolic Z-matrix:
 Charge =  0 Multiplicity = 1

                         Standard orientation:
 ---------------------------------------------------------------------
 Center     Atomic      Atomic             Coordinates (Angstroms)
 Number     Number       Type             X           Y           Z
 ---------------------------------------------------------------------
      1          6           0        3.775630   -0.452580   -0.079513
      2          6           0        3.521848   -1.734499   -0.873405
      3          6           0        4.391517   -2.901689   -0.405284
      4          1           0        4.836173   -0.179221   -0.165936
      5          1           0        3.588568   -0.646229    0.985805
      6          1           0        3.707997   -1.538119   -1.937078
      7          1           0        2.461746   -2.004732   -0.785239
      8          1           0        4.200165   -3.126049    0.649063
      9          1           0        5.453496   -2.656786   -0.509320
     10          1           0        4.193836   -3.807905   -0.986279
     11          6           0        2.913669    0.723241   -0.535797
     12          6           0        3.167452    2.005160    0.258095
     13          6           0        2.297783    3.172350   -0.210026
     14          1           0        3.100732    0.916890   -1.601116
     15          1           0        1.853127    0.449882   -0.449374
     16          1           0        4.227554    2.275393    0.169929
     17          1           0        2.981303    1.808780    1.321768
     18          1           0        1.235804    2.927447   -0.105990
     19          1           0        2.489135    3.396710   -1.264373
     20          1           0        2.495464    4.078566    0.370969
     21          6           0       -4.649088   -0.317415   -1.234599
     22          6           0       -3.832048    0.814111   -1.327437
     23          6           0       -2.701389    0.942034   -0.515162
     24          6           0       -2.416167   -0.085261    0.382949
     25          6           0       -3.210689   -1.224816    0.498884
     26          6           0       -4.336352   -1.331479   -0.323342
     27          1           0       -5.525471   -0.408530   -1.869458
     28          1           0       -4.072485    1.603215   -2.034226
     29          1           0       -2.051644    1.807268   -0.566353
     30          1           0       -2.945314   -1.994907    1.212995
     31          1           0       -4.969070   -2.211364   -0.249074
     32          7           0       -1.221833    0.038911    1.248135
     33          8           0       -0.992246   -0.880091    2.031309
     34          8           0       -0.537915    1.052888    1.126711
 ---------------------------------------------------------------------

 SCF Done:  E(RHF) =  -669.536479477     A.U. after   15 cycles
 E2 =    -0.2091905585D+01 EUMP2 =    -0.67162838506163D+03

 The electronic state is 1-A.
 Alpha  occ. eigenvalues --  -20.61104 -20.61097 -15.86117 -11.31369 -11.27925
 Alpha  occ. eigenvalues --  -11.27922 -11.27651 -11.26917 -11.26907 -11.20803
 Alpha  occ. eigenvalues --  -11.20386 -11.20343 -11.20326 -11.20135 -11.19843
 Alpha  occ. eigenvalues --   -1.60154  -1.39713  -1.19532  -1.08950  -1.07342
 Alpha  occ. eigenvalues --   -1.04918  -1.02492  -0.95804  -0.94958  -0.86322
 Alpha  occ. eigenvalues --   -0.85987  -0.82643  -0.78596  -0.77708  -0.77146
 Alpha  occ. eigenvalues --   -0.72355  -0.71460  -0.70642  -0.65195  -0.64921
 Alpha  occ. eigenvalues --   -0.63933  -0.62266  -0.59852  -0.58355  -0.56580
 Alpha  occ. eigenvalues --   -0.55426  -0.54219  -0.53253  -0.53009  -0.51700
 Alpha  occ. eigenvalues --   -0.51405  -0.49174  -0.49090  -0.48825  -0.46919
 Alpha  occ. eigenvalues --   -0.45625  -0.45299  -0.44672  -0.44360  -0.42744
 Alpha  occ. eigenvalues --   -0.37506  -0.36515
 Alpha virt. eigenvalues --    0.04792   0.11139   0.16271   0.21083   0.23937
 Alpha virt. eigenvalues --    0.25066   0.26722   0.27460   0.28111   0.28596
 Alpha virt. eigenvalues --    0.29152   0.30617   0.31657   0.32657   0.32759

 Mulliken charges:
               1
     1  C   -0.298653
     2  C   -0.298445
     3  C   -0.475331
     4  H    0.145252
     5  H    0.155695
     6  H    0.147809
     7  H    0.151558
     8  H    0.157146
     9  H    0.153319
    10  H    0.156425
    11  C   -0.301237
    12  C   -0.295155
    13  C   -0.482587
    14  H    0.140810
    15  H    0.159964
    16  H    0.144542
    17  H    0.161130
    18  H    0.170673
    19  H    0.145553
    20  H    0.155265
    21  C   -0.170326
    22  C   -0.218619
    23  C   -0.170346
    24  C    0.157522
    25  C   -0.170714
    26  C   -0.218566
    27  H    0.226360
    28  H    0.224391
    29  H    0.276277
    30  H    0.275912
    31  H    0.224112
    32  N    0.493241
    33  O   -0.458090
    34  O   -0.464886
 Sum of Mulliken charges =  -0.00000

 Dipole moment (field-independent basis, Debye):
    X=             -4.5656    Y=             -0.4926    Z=             -2.8523  Tot=              5.4058
 Quadrupole moment (field-independent basis, Debye-Ang):
   XX=            -75.4668   YY=            -92.4151   ZZ=            -96.5905
   XY=              3.0833   XZ=              5.5440   YZ=             -1.9485

 Normal termination of Gaussian 16 at Wed May  5 18:36:46 2021.
