 Gaussian 16, Revision A.03,
 Gaussian 16:  EM64L-G16RevA.03 25-Dec-2016

 -------------
 #p 6-31g* mp2
 -------------

 ------------------------------------------------------
 Input file generated by CHIRIPA (05-May-2021 14:57:27)
 ------------------------------------------------------
 Symbolic Z-matrix:
 Charge =  0 Multiplicity = 1

                         Standard orientation:
 ---------------------------------------------------------------------
 Center     Atomic      Atomic             Coordinates (Angstroms)
 Number     Number       Type             X           Y           Z
 ---------------------------------------------------------------------
      1          6           0       -6.032786    0.302082   -0.591889
      2          6           0       -5.162761   -0.481132   -1.357496
      3          6           0       -3.839819   -0.677585   -0.950334
      4          6           0       -3.418439   -0.073251    0.233098
      5          6           0       -4.261243    0.712577    1.017601
      6          6           0       -5.580049    0.895391    0.591130
      7          1           0       -7.058873    0.449394   -0.915682
      8          1           0       -5.511616   -0.943124   -2.276684
      9          1           0       -3.145076   -1.279075   -1.523883
     10          1           0       -3.884548    1.160245    1.929255
     11          1           0       -6.253500    1.504153    1.187718
     12          7           0       -2.020089   -0.274007    0.674363
     13          8           0       -1.673284    0.269277    1.720883
     14          8           0       -1.297346   -0.970843   -0.034650
     15          6           0        3.441260   -2.458395    0.122491
     16          6           0        4.596346   -1.798573    0.554845
     17          6           0        4.722274   -0.414489    0.403177
     18          6           0        3.668978    0.281716   -0.187718
     19          6           0        2.505568   -0.347077   -0.628609
     20          6           0        2.401390   -1.731822   -0.466818
     21          1           0        3.351884   -3.533841    0.244242
     22          1           0        5.405518   -2.360277    1.012857
     23          1           0        5.605413    0.121563    0.728956
     24          1           0        1.715755    0.239851   -1.081521
     25          1           0        1.503172   -2.241603   -0.803526
     26          7           0        3.790779    1.747333   -0.353641
     27          8           0        2.848632    2.337901   -0.877307
     28          8           0        4.826087    2.277764    0.043117
 ---------------------------------------------------------------------

 SCF Done:  E(RHF) =  -868.339756533     A.U. after   16 cycles
 E2 =    -0.2598658514D+01 EUMP2 =    -0.87093841504689D+03

 The electronic state is 1-A.
 Alpha  occ. eigenvalues --  -20.61410 -20.61332 -20.59769 -20.59757 -15.86411
 Alpha  occ. eigenvalues --  -15.84809 -11.31562 -11.29957 -11.28134 -11.28080
 Alpha  occ. eigenvalues --  -11.27808 -11.27087 -11.27055 -11.26573 -11.26382
 Alpha  occ. eigenvalues --  -11.26247 -11.25596 -11.25333  -1.60427  -1.58842
 Alpha  occ. eigenvalues --   -1.39992  -1.38402  -1.19713  -1.18110  -1.09146
 Alpha  occ. eigenvalues --   -1.07566  -1.05088  -1.03456  -0.96019  -0.94433
 Alpha  occ. eigenvalues --   -0.86496  -0.84889  -0.82867  -0.81252  -0.77934
 Alpha  occ. eigenvalues --   -0.76317  -0.72649  -0.71728  -0.71041  -0.70824
 Alpha  occ. eigenvalues --   -0.70155  -0.69258  -0.65375  -0.65090  -0.63764
 Alpha  occ. eigenvalues --   -0.63463  -0.62441  -0.60799  -0.55595  -0.54039
 Alpha  occ. eigenvalues --   -0.53423  -0.53180  -0.51830  -0.51547  -0.49402
 Alpha  occ. eigenvalues --   -0.49354  -0.47800  -0.47776  -0.45444  -0.43854
 Alpha  occ. eigenvalues --   -0.37677  -0.36679  -0.36124  -0.35024
 Alpha virt. eigenvalues --    0.04586   0.06185   0.10979   0.12599   0.16120
 Alpha virt. eigenvalues --    0.17716   0.21109   0.22653   0.27045   0.27854
 Alpha virt. eigenvalues --    0.28693   0.29455   0.30727   0.32031   0.32334

 Mulliken charges:
               1
     1  C   -0.169932
     2  C   -0.218285
     3  C   -0.170356
     4  C    0.158419
     5  C   -0.169691
     6  C   -0.218389
     7  H    0.227164
     8  H    0.224177
     9  H    0.272453
    10  H    0.277427
    11  H    0.225345
    12  N    0.491778
    13  O   -0.453110
    14  O   -0.474701
    15  C   -0.172444
    16  C   -0.218924
    17  C   -0.172946
    18  C    0.157312
    19  C   -0.165275
    20  C   -0.213788
    21  H    0.221290
    22  H    0.218379
    23  H    0.271258
    24  H    0.277896
    25  H    0.233046
    26  N    0.488534
    27  O   -0.461827
    28  O   -0.464809
 Sum of Mulliken charges =  -0.00000

 Dipole moment (field-independent basis, Debye):
    X=             -5.9066    Y=             -4.4184    Z=             -0.9200  Tot=              7.4335
 Quadrupole moment (field-independent basis, Debye-Ang):
   XX=            -71.5470   YY=           -107.7788   ZZ=           -102.5156
   XY=            -22.2656   XZ=              7.7311   YZ=              4.1771

 Normal termination of Gaussian 16 at Fri May  7 11:16:05 2021.
