 Gaussian 16, Revision A.03,
 Gaussian 16:  EM64L-G16RevA.03 25-Dec-2016

 -------------
 #p 6-31g* mp2
 -------------

 ------------------------------------------------------
 Input file generated by CHIRIPA (05-May-2021 14:55:22)
 ------------------------------------------------------
 Symbolic Z-matrix:
 Charge =  0 Multiplicity = 1

                         Standard orientation:
 ---------------------------------------------------------------------
 Center     Atomic      Atomic             Coordinates (Angstroms)
 Number     Number       Type             X           Y           Z
 ---------------------------------------------------------------------
      1          6           0       -0.976642   -0.870899    0.009741
      2          6           0       -1.408021    0.197652   -0.783123
      3          6           0       -2.764142    0.531150   -0.848419
      4          6           0       -3.665634   -0.228592   -0.104513
      5          6           0       -3.266847   -1.298924    0.694641
      6          6           0       -1.905793   -1.614465    0.744797
      7          1           0        0.078741   -1.122993    0.054584
      8          1           0       -0.688672    0.776864   -1.355045
      9          1           0       -3.125461    1.353348   -1.454106
     10          1           0       -4.007558   -1.857886    1.253504
     11          1           0       -1.573647   -2.444844    1.361396
     12          7           0       -5.103909    0.114962   -0.165624
     13          8           0       -5.878176   -0.569927    0.499262
     14          8           0       -5.429729    1.062624   -0.877253
     15          6           0        3.634685    0.425571    0.227627
     16          6           0        3.188944    1.834638    0.619837
     17          6           0        1.678106    1.939726    0.829881
     18          1           0        3.113488    0.125602   -0.691784
     19          1           0        3.322136   -0.281105    1.008857
     20          1           0        3.503454    2.538644   -0.161236
     21          1           0        3.711406    2.131363    1.538316
     22          1           0        1.351290    1.259997    1.623455
     23          1           0        1.142157    1.669592   -0.085754
     24          1           0        1.381350    2.955385    1.109584
     25          6           0        5.142502    0.304576    0.014141
     26          6           0        5.588242   -1.104492   -0.378068
     27          6           0        7.099080   -1.209580   -0.588112
     28          1           0        5.455051    1.011252   -0.767088
     29          1           0        5.663699    0.604545    0.933553
     30          1           0        5.065781   -1.401216   -1.296548
     31          1           0        5.273731   -1.808497    0.403005
     32          1           0        7.635030   -0.939445    0.327523
     33          1           0        7.425897   -0.529849   -1.381686
     34          1           0        7.395837   -2.225238   -0.867815
 ---------------------------------------------------------------------

 SCF Done:  E(RHF) =  -669.535033091     A.U. after   15 cycles
 E2 =    -0.2091836012D+01 EUMP2 =    -0.67162686910336D+03

 The electronic state is 1-A.
 Alpha  occ. eigenvalues --  -20.60712 -20.60706 -15.85765 -11.31117 -11.27693
 Alpha  occ. eigenvalues --  -11.27684 -11.27405 -11.26698 -11.26681 -11.22483
 Alpha  occ. eigenvalues --  -11.22387 -11.22307 -11.22146 -11.22053 -11.21641
 Alpha  occ. eigenvalues --   -1.59788  -1.39341  -1.19292  -1.09283  -1.08685
 Alpha  occ. eigenvalues --   -1.04701  -1.04334  -0.96799  -0.95520  -0.87816
 Alpha  occ. eigenvalues --   -0.86096  -0.82357  -0.80408  -0.79106  -0.77411
 Alpha  occ. eigenvalues --   -0.71984  -0.71111  -0.70387  -0.65920  -0.64946
 Alpha  occ. eigenvalues --   -0.64737  -0.62114  -0.61679  -0.60161  -0.58401
 Alpha  occ. eigenvalues --   -0.56110  -0.55173  -0.53468  -0.53351  -0.52930
 Alpha  occ. eigenvalues --   -0.52754  -0.50724  -0.48766  -0.48740  -0.48683
 Alpha  occ. eigenvalues --   -0.47434  -0.46638  -0.46555  -0.44750  -0.44596
 Alpha  occ. eigenvalues --   -0.37239  -0.36290
 Alpha virt. eigenvalues --    0.05123   0.11277   0.16581   0.19534   0.22459
 Alpha virt. eigenvalues --    0.23887   0.25094   0.25998   0.26530   0.27724
 Alpha virt. eigenvalues --    0.29391   0.29615   0.30862   0.31465   0.31682

 Mulliken charges:
               1
     1  C   -0.170494
     2  C   -0.217638
     3  C   -0.171883
     4  C    0.158316
     5  C   -0.170841
     6  C   -0.219611
     7  H    0.228557
     8  H    0.223513
     9  H    0.275365
    10  H    0.275302
    11  H    0.223052
    12  N    0.488085
    13  O   -0.460684
    14  O   -0.460618
    15  C   -0.299471
    16  C   -0.300329
    17  C   -0.477259
    18  H    0.143667
    19  H    0.147145
    20  H    0.154339
    21  H    0.155916
    22  H    0.156512
    23  H    0.146045
    24  H    0.166385
    25  C   -0.298456
    26  C   -0.300222
    27  C   -0.476146
    28  H    0.151756
    29  H    0.152376
    30  H    0.151199
    31  H    0.151314
    32  H    0.156532
    33  H    0.156474
    34  H    0.161804
 Sum of Mulliken charges =  -0.00000

 Dipole moment (field-independent basis, Debye):
    X=              5.2753    Y=             -1.1443    Z=              0.2750  Tot=              5.4050
 Quadrupole moment (field-independent basis, Debye-Ang):
   XX=           -132.7157   YY=            -91.5544   ZZ=            -92.3510
   XY=              4.5512   XZ=             -1.6654   YZ=             -2.8592

 Normal termination of Gaussian 16 at Thu May  6 04:37:56 2021.
