 Gaussian 16, Revision A.03,
 Gaussian 16:  EM64L-G16RevA.03 25-Dec-2016

 -------------
 #p 6-31g* mp2
 -------------

 ------------------------------------------------------
 Input file generated by CHIRIPA (05-May-2021 14:57:23)
 ------------------------------------------------------
 Symbolic Z-matrix:
 Charge =  0 Multiplicity = 1

                         Standard orientation:
 ---------------------------------------------------------------------
 Center     Atomic      Atomic             Coordinates (Angstroms)
 Number     Number       Type             X           Y           Z
 ---------------------------------------------------------------------
      1          6           0        1.759863    2.015239    0.558890
      2          6           0        2.551913    2.217261   -0.576171
      3          6           0        3.539676    1.292000   -0.926546
      4          6           0        3.709037    0.170797   -0.115677
      5          6           0        2.935862   -0.058515    1.021384
      6          6           0        1.954023    0.879997    1.352646
      7          1           0        0.994846    2.739151    0.823646
      8          1           0        2.403353    3.097993   -1.194465
      9          1           0        4.166941    1.423664   -1.799828
     10          1           0        3.107428   -0.946087    1.618208
     11          1           0        1.340384    0.720512    2.234721
     12          7           0        4.751602   -0.815750   -0.476486
     13          8           0        4.880991   -1.795414    0.254373
     14          8           0        5.419635   -0.590662   -1.483315
     15          6           0       -5.601546    0.642197   -1.017412
     16          6           0       -5.107478   -0.594256   -1.445902
     17          6           0       -3.964440   -1.144385   -0.858220
     18          6           0       -3.337637   -0.427708    0.160005
     19          6           0       -3.805562    0.806329    0.608882
     20          6           0       -4.950159    1.337318    0.006806
     21          1           0       -6.490091    1.062117   -1.479528
     22          1           0       -5.611302   -1.136325   -2.241117
     23          1           0       -3.560484   -2.099728   -1.170562
     24          1           0       -3.281700    1.323192    1.403766
     25          1           0       -5.331609    2.297760    0.341608
     26          7           0       -2.126728   -0.999974    0.789776
     27          8           0       -1.592772   -0.348741    1.684999
     28          8           0       -1.734503   -2.088911    0.376242
 ---------------------------------------------------------------------

 SCF Done:  E(RHF) =  -868.339137674     A.U. after   16 cycles
 E2 =    -0.2598883590D+01 EUMP2 =    -0.87093802126422D+03

 The electronic state is 1-A.
 Alpha  occ. eigenvalues --  -20.61513 -20.61456 -20.60002 -20.59982 -15.86526
 Alpha  occ. eigenvalues --  -15.85039 -11.31765 -11.30278 -11.28354 -11.28279
 Alpha  occ. eigenvalues --  -11.28020 -11.27318 -11.27268 -11.26873 -11.26707
 Alpha  occ. eigenvalues --  -11.26545 -11.25927 -11.25634  -1.60545  -1.59071
 Alpha  occ. eigenvalues --   -1.40107  -1.38628  -1.19920  -1.18422  -1.09335
 Alpha  occ. eigenvalues --   -1.07852  -1.05306  -1.03784  -0.96195  -0.94713
 Alpha  occ. eigenvalues --   -0.86709  -0.85194  -0.83036  -0.81533  -0.78100
 Alpha  occ. eigenvalues --   -0.76591  -0.72762  -0.71851  -0.71264  -0.71025
 Alpha  occ. eigenvalues --   -0.70389  -0.69563  -0.65578  -0.65305  -0.64072
 Alpha  occ. eigenvalues --   -0.63764  -0.62658  -0.61120  -0.55802  -0.54339
 Alpha  occ. eigenvalues --   -0.53640  -0.53395  -0.52147  -0.51863  -0.49522
 Alpha  occ. eigenvalues --   -0.49480  -0.48025  -0.48008  -0.45537  -0.44061
 Alpha  occ. eigenvalues --   -0.37887  -0.36905  -0.36421  -0.35358
 Alpha virt. eigenvalues --    0.04424   0.05908   0.10752   0.12276   0.15947
 Alpha virt. eigenvalues --    0.17443   0.20889   0.22378   0.26809   0.27691
 Alpha virt. eigenvalues --    0.28456   0.29123   0.30528   0.31865   0.32047

 Mulliken charges:
               1
     1  C   -0.173610
     2  C   -0.219106
     3  C   -0.173395
     4  C    0.158142
     5  C   -0.170599
     6  C   -0.212110
     7  H    0.220568
     8  H    0.217943
     9  H    0.271802
    10  H    0.277222
    11  H    0.237712
    12  N    0.488154
    13  O   -0.459990
    14  O   -0.464198
    15  C   -0.170316
    16  C   -0.218383
    17  C   -0.170194
    18  C    0.158767
    19  C   -0.171688
    20  C   -0.218472
    21  H    0.227373
    22  H    0.225811
    23  H    0.277889
    24  H    0.271526
    25  H    0.223781
    26  N    0.490494
    27  O   -0.470765
    28  O   -0.454358
 Sum of Mulliken charges =  -0.00000

 Dipole moment (field-independent basis, Debye):
    X=             -8.2984    Y=              5.2867    Z=             -0.8662  Tot=              9.8774
 Quadrupole moment (field-independent basis, Debye-Ang):
   XX=           -104.8781   YY=           -101.5999   ZZ=           -101.5926
   XY=              8.1714   XZ=             11.9913   YZ=              1.4618

 Normal termination of Gaussian 16 at Wed May  5 19:22:57 2021.
