 Gaussian 16, Revision A.03,
 Gaussian 16:  EM64L-G16RevA.03 25-Dec-2016

 -------------
 #p 6-31g* mp2
 -------------

 ------------------------------------------------------
 Input file generated by CHIRIPA (05-May-2021 14:53:11)
 ------------------------------------------------------
 Symbolic Z-matrix:
 Charge =  0 Multiplicity = 1

                         Standard orientation:
 ---------------------------------------------------------------------
 Center     Atomic      Atomic             Coordinates (Angstroms)
 Number     Number       Type             X           Y           Z
 ---------------------------------------------------------------------
      1          6           0       -2.799512    0.736184   -0.161023
      2          6           0       -2.959477    2.237529   -0.402598
      3          6           0       -1.645544    2.917460   -0.788694
      4          1           0       -2.055464    0.575961    0.631231
      5          1           0       -2.395592    0.266805   -1.068727
      6          1           0       -3.364275    2.703722    0.504826
      7          1           0       -3.703371    2.394203   -1.194237
      8          1           0       -1.240243    2.479350   -1.706513
      9          1           0       -0.899221    2.790628    0.002203
     10          1           0       -1.782861    3.990201   -0.956710
     11          6           0       -4.104413    0.042401    0.225793
     12          6           0       -3.944448   -1.458945    0.467369
     13          6           0       -5.258381   -2.138875    0.853464
     14          1           0       -4.508333    0.511779    1.133498
     15          1           0       -4.848461    0.202623   -0.566461
     16          1           0       -3.200554   -1.615618    1.259007
     17          1           0       -3.539650   -1.925137   -0.440055
     18          1           0       -6.004704   -2.012044    0.062568
     19          1           0       -5.663682   -1.700766    1.771284
     20          1           0       -5.121064   -3.211617    1.021481
     21          6           0        3.195832    2.023508    0.810772
     22          6           0        4.009581    0.952470    1.194455
     23          6           0        3.742535   -0.341455    0.737301
     24          6           0        2.648605   -0.529162   -0.106129
     25          6           0        1.819291    0.517490   -0.506186
     26          6           0        2.105208    1.802988   -0.036831
     27          1           0        3.410610    3.025387    1.170639
     28          1           0        4.857251    1.120769    1.852617
     29          1           0        4.356138   -1.188660    1.018644
     30          1           0        0.981418    0.318534   -1.163304
     31          1           0        1.471523    2.632878   -0.336449
     32          7           0        2.355908   -1.894523   -0.596557
     33          8           0        1.386137   -2.033562   -1.338750
     34          8           0        3.101803   -2.799800   -0.229475
 ---------------------------------------------------------------------

 SCF Done:  E(RHF) =  -669.535609749     A.U. after   15 cycles
 E2 =    -0.2091707116D+01 EUMP2 =    -0.67162731686453D+03

 The electronic state is 1-A.
 Alpha  occ. eigenvalues --  -20.60723 -20.60718 -15.85775 -11.31124 -11.27703
 Alpha  occ. eigenvalues --  -11.27669 -11.27430 -11.26715 -11.26636 -11.22080
 Alpha  occ. eigenvalues --  -11.21935 -11.21619 -11.21459 -11.21400 -11.20908
 Alpha  occ. eigenvalues --   -1.59798  -1.39352  -1.19295  -1.08696  -1.08617
 Alpha  occ. eigenvalues --   -1.04694  -1.03758  -0.96251  -0.95532  -0.87289
 Alpha  occ. eigenvalues --   -0.86088  -0.82365  -0.79852  -0.78367  -0.77400
 Alpha  occ. eigenvalues --   -0.71994  -0.71121  -0.70405  -0.65256  -0.64945
 Alpha  occ. eigenvalues --   -0.64699  -0.62073  -0.61145  -0.59637  -0.57816
 Alpha  occ. eigenvalues --   -0.55567  -0.55196  -0.53077  -0.53018  -0.52851
 Alpha  occ. eigenvalues --   -0.52479  -0.50196  -0.48754  -0.48749  -0.48136
 Alpha  occ. eigenvalues --   -0.46850  -0.45920  -0.45796  -0.44761  -0.43985
 Alpha  occ. eigenvalues --   -0.37282  -0.36284
 Alpha virt. eigenvalues --    0.05101   0.11309   0.16516   0.20394   0.22734
 Alpha virt. eigenvalues --    0.23918   0.25817   0.25974   0.27230   0.28270
 Alpha virt. eigenvalues --    0.29718   0.29922   0.31358   0.31505   0.32140

 Mulliken charges:
               1
     1  C   -0.301457
     2  C   -0.298757
     3  C   -0.484002
     4  H    0.150126
     5  H    0.153111
     6  H    0.153530
     7  H    0.155077
     8  H    0.153645
     9  H    0.151235
    10  H    0.162832
    11  C   -0.298702
    12  C   -0.300664
    13  C   -0.476142
    14  H    0.148729
    15  H    0.150054
    16  H    0.153270
    17  H    0.157843
    18  H    0.154734
    19  H    0.153670
    20  H    0.162544
    21  C   -0.171660
    22  C   -0.218634
    23  C   -0.170990
    24  C    0.158385
    25  C   -0.173132
    26  C   -0.223555
    27  H    0.225473
    28  H    0.223063
    29  H    0.275309
    30  H    0.277344
    31  H    0.230981
    32  N    0.488121
    33  O   -0.460597
    34  O   -0.460785
 Sum of Mulliken charges =  -0.00000

 Dipole moment (field-independent basis, Debye):
    X=              0.8919    Y=              4.7474    Z=              1.7196  Tot=              5.1274
 Quadrupole moment (field-independent basis, Debye-Ang):
   XX=            -86.9148   YY=           -100.1879   ZZ=            -93.6088
   XY=             10.3409   XZ=              7.4269   YZ=             -2.0434

 Normal termination of Gaussian 16 at Wed May  5 15:27:08 2021.
