 Gaussian 16, Revision A.03,
 Gaussian 16:  EM64L-G16RevA.03 25-Dec-2016

 -------------
 #p 6-31g* mp2
 -------------

 ------------------------------------------------------
 Input file generated by CHIRIPA (05-May-2021 14:57:24)
 ------------------------------------------------------
 Symbolic Z-matrix:
 Charge =  0 Multiplicity = 1

                         Standard orientation:
 ---------------------------------------------------------------------
 Center     Atomic      Atomic             Coordinates (Angstroms)
 Number     Number       Type             X           Y           Z
 ---------------------------------------------------------------------
      1          6           0        1.828397    2.541637   -0.759436
      2          6           0        2.573810    1.654575   -1.543018
      3          6           0        2.937543    0.400153   -1.044348
      4          6           0        2.537213    0.063918    0.247926
      5          6           0        1.794131    0.925799    1.053084
      6          6           0        1.441618    2.175064    0.533835
      7          1           0        1.550199    3.514099   -1.154808
      8          1           0        2.875572    1.936579   -2.547736
      9          1           0        3.514257   -0.305922   -1.629393
     10          1           0        1.507911    0.616430    2.050975
     11          1           0        0.862682    2.861940    1.144637
     12          7           0        2.916342   -1.261353    0.786738
     13          8           0        2.551332   -1.533723    1.928325
     14          8           0        3.571333   -2.002636    0.057271
     15          6           0       -3.281712    1.973861    0.630981
     16          6           0       -2.024766    1.851208    0.029679
     17          6           0       -1.567392    0.606069   -0.411893
     18          6           0       -2.396712   -0.500460   -0.235507
     19          6           0       -3.653980   -0.410515    0.359874
     20          6           0       -4.090880    0.844599    0.793873
     21          1           0       -3.629058    2.944989    0.971063
     22          1           0       -1.394215    2.726489   -0.098128
     23          1           0       -0.598666    0.482652   -0.880675
     24          1           0       -4.260005   -1.301149    0.473544
     25          1           0       -5.067498    0.936869    1.260508
     26          7           0       -1.923348   -1.823913   -0.698971
     27          8           0       -2.673008   -2.783476   -0.531980
     28          8           0       -0.811628   -1.876613   -1.220448
 ---------------------------------------------------------------------

 SCF Done:  E(RHF) =  -868.335173691     A.U. after   16 cycles
 E2 =    -0.2604709062D+01 EUMP2 =    -0.87093988275307D+03

 The electronic state is 1-A.
 Alpha  occ. eigenvalues --  -20.60749 -20.60734 -20.60657 -20.60627 -15.85804
 Alpha  occ. eigenvalues --  -15.85717 -11.31476 -11.31273 -11.28085 -11.28032
 Alpha  occ. eigenvalues --  -11.27976 -11.27891 -11.27830 -11.27728 -11.27256
 Alpha  occ. eigenvalues --  -11.27188 -11.26977 -11.26923  -1.59812  -1.59698
 Alpha  occ. eigenvalues --   -1.39365  -1.39247  -1.19740  -1.19487  -1.09059
 Alpha  occ. eigenvalues --   -1.08881  -1.05224  -1.04867  -0.95803  -0.95684
 Alpha  occ. eigenvalues --   -0.86588  -0.86294  -0.82652  -0.82492  -0.77642
 Alpha  occ. eigenvalues --   -0.77489  -0.72026  -0.71940  -0.71148  -0.70994
 Alpha  occ. eigenvalues --   -0.70815  -0.70623  -0.65424  -0.65315  -0.65154
 Alpha  occ. eigenvalues --   -0.64784  -0.62535  -0.62252  -0.55687  -0.55501
 Alpha  occ. eigenvalues --   -0.53645  -0.53357  -0.53066  -0.52812  -0.48785
 Alpha  occ. eigenvalues --   -0.48767  -0.48720  -0.48659  -0.44748  -0.44571
 Alpha  occ. eigenvalues --   -0.37780  -0.37507  -0.37285  -0.35971
 Alpha virt. eigenvalues --    0.04733   0.05220   0.10449   0.11364   0.15966
 Alpha virt. eigenvalues --    0.16795   0.19897   0.21970   0.25818   0.27459
 Alpha virt. eigenvalues --    0.28092   0.28565   0.30385   0.31067   0.32038

 Mulliken charges:
               1
     1  C   -0.181057
     2  C   -0.218686
     3  C   -0.166362
     4  C    0.164685
     5  C   -0.171895
     6  C   -0.225700
     7  H    0.223492
     8  H    0.226626
     9  H    0.281145
    10  H    0.278282
    11  H    0.220083
    12  N    0.490673
    13  O   -0.459819
    14  O   -0.454684
    15  C   -0.171419
    16  C   -0.222136
    17  C   -0.171019
    18  C    0.157499
    19  C   -0.169377
    20  C   -0.219271
    21  H    0.223498
    22  H    0.212078
    23  H    0.282278
    24  H    0.277039
    25  H    0.223841
    26  N    0.488910
    27  O   -0.458158
    28  O   -0.460549
 Sum of Mulliken charges =  -0.00000

 Dipole moment (field-independent basis, Debye):
    X=             -2.7246    Y=              8.8950    Z=             -0.3034  Tot=              9.3079
 Quadrupole moment (field-independent basis, Debye-Ang):
   XX=            -98.8441   YY=           -109.5607   ZZ=           -103.2024
   XY=              2.7640   XZ=            -12.8583   YZ=             -0.5888

 Normal termination of Gaussian 16 at Fri May  7 04:56:25 2021.
