 Gaussian 16, Revision A.03,
 Gaussian 16:  EM64L-G16RevA.03 25-Dec-2016

 -------------
 #p 6-31g* mp2
 -------------

 ------------------------------------------------------
 Input file generated by CHIRIPA (05-May-2021 14:55:21)
 ------------------------------------------------------
 Symbolic Z-matrix:
 Charge =  0 Multiplicity = 1

                         Standard orientation:
 ---------------------------------------------------------------------
 Center     Atomic      Atomic             Coordinates (Angstroms)
 Number     Number       Type             X           Y           Z
 ---------------------------------------------------------------------
      1          6           0       -4.095407    2.541604    0.232915
      2          6           0       -4.962627    1.619386   -0.362035
      3          6           0       -4.581938    0.282825   -0.514437
      4          6           0       -3.321076   -0.098807   -0.058505
      5          6           0       -2.434646    0.796348    0.538345
      6          6           0       -2.836404    2.127871    0.680417
      7          1           0       -4.399319    3.577921    0.347292
      8          1           0       -5.940985    1.937869   -0.710502
      9          1           0       -5.233548   -0.452014   -0.971421
     10          1           0       -1.465692    0.449067    0.875896
     11          1           0       -2.160839    2.841889    1.142841
     12          7           0       -2.906905   -1.511098   -0.214378
     13          8           0       -1.790747   -1.822155    0.195587
     14          8           0       -3.706278   -2.280253   -0.743566
     15          6           0        5.096164   -0.107595   -0.029207
     16          6           0        5.554578    1.306703   -0.386419
     17          6           0        7.073121    1.418509   -0.525420
     18          1           0        5.575430   -0.415217    0.910271
     19          1           0        5.446909   -0.805410   -0.802141
     20          1           0        5.201890    2.001846    0.386242
     21          1           0        5.074017    1.611068   -1.325056
     22          1           0        7.438592    0.747804   -1.309758
     23          1           0        7.567193    1.140802    0.411263
     24          1           0        7.378900    2.437832   -0.781033
     25          6           0        3.580537   -0.235331    0.113214
     26          6           0        3.122122   -1.649629    0.470426
     27          6           0        1.603579   -1.761434    0.609426
     28          1           0        3.229792    0.462485    0.886147
     29          1           0        3.101271    0.072291   -0.826264
     30          1           0        3.602683   -1.953994    1.409063
     31          1           0        3.474810   -2.344772   -0.302235
     32          1           0        1.109508   -1.483728   -0.327256
     33          1           0        1.238108   -1.090730    1.393765
     34          1           0        1.297800   -2.780758    0.865040
 ---------------------------------------------------------------------

 SCF Done:  E(RHF) =  -669.535596689     A.U. after   15 cycles
 E2 =    -0.2091123732D+01 EUMP2 =    -0.67162672042161D+03

 The electronic state is 1-A.
 Alpha  occ. eigenvalues --  -20.60789 -20.60782 -15.85828 -11.31194 -11.27768
 Alpha  occ. eigenvalues --  -11.27752 -11.27514 -11.26784 -11.26773 -11.21459
 Alpha  occ. eigenvalues --  -11.21131 -11.21040 -11.20956 -11.20938 -11.20059
 Alpha  occ. eigenvalues --   -1.59860  -1.39413  -1.19369  -1.08767  -1.08085
 Alpha  occ. eigenvalues --   -1.04771  -1.03093  -0.95629  -0.95486  -0.86521
 Alpha  occ. eigenvalues --   -0.86169  -0.82431  -0.79172  -0.77907  -0.77453
 Alpha  occ. eigenvalues --   -0.72044  -0.71181  -0.70477  -0.65023  -0.64776
 Alpha  occ. eigenvalues --   -0.64723  -0.62118  -0.60496  -0.58920  -0.57129
 Alpha  occ. eigenvalues --   -0.55276  -0.54810  -0.53103  -0.52866  -0.52148
 Alpha  occ. eigenvalues --   -0.51944  -0.49479  -0.48815  -0.48806  -0.47460
 Alpha  occ. eigenvalues --   -0.46238  -0.45428  -0.45372  -0.44768  -0.43335
 Alpha  occ. eigenvalues --   -0.37354  -0.36376
 Alpha virt. eigenvalues --    0.05038   0.11276   0.16518   0.21098   0.23147
 Alpha virt. eigenvalues --    0.24361   0.26191   0.27054   0.27643   0.27883
 Alpha virt. eigenvalues --    0.29215   0.30772   0.31611   0.32021   0.32600

 Mulliken charges:
               1
     1  C   -0.170639
     2  C   -0.218714
     3  C   -0.170824
     4  C    0.157301
     5  C   -0.172272
     6  C   -0.219128
     7  H    0.225599
     8  H    0.223422
     9  H    0.275556
    10  H    0.278808
    11  H    0.223681
    12  N    0.492077
    13  O   -0.462437
    14  O   -0.460503
    15  C   -0.297594
    16  C   -0.299096
    17  C   -0.475444
    18  H    0.149268
    19  H    0.150125
    20  H    0.149715
    21  H    0.151085
    22  H    0.155598
    23  H    0.155046
    24  H    0.158954
    25  C   -0.297154
    26  C   -0.302774
    27  C   -0.467612
    28  H    0.144285
    29  H    0.148234
    30  H    0.148942
    31  H    0.151654
    32  H    0.161439
    33  H    0.144516
    34  H    0.168886
 Sum of Mulliken charges =  -0.00000

 Dipole moment (field-independent basis, Debye):
    X=             -1.6230    Y=              4.8547    Z=              0.5167  Tot=              5.1448
 Quadrupole moment (field-independent basis, Debye-Ang):
   XX=            -83.2754   YY=            -95.9011   ZZ=            -93.7605
   XY=            -15.9866   XZ=              0.5765   YZ=              0.4781

 Normal termination of Gaussian 16 at Thu May  6 20:42:44 2021.
