 Gaussian 16, Revision A.03,
 Gaussian 16:  EM64L-G16RevA.03 25-Dec-2016

 -------------
 #p 6-31g* mp2
 -------------

 ------------------------------------------------------
 Input file generated by CHIRIPA (05-May-2021 14:51:08)
 ------------------------------------------------------
 Symbolic Z-matrix:
 Charge =  0 Multiplicity = 1

                         Standard orientation:
 ---------------------------------------------------------------------
 Center     Atomic      Atomic             Coordinates (Angstroms)
 Number     Number       Type             X           Y           Z
 ---------------------------------------------------------------------
      1          6           0        4.000262    0.414352   -0.275822
      2          6           0        5.506267    0.593758   -0.081530
      3          6           0        6.144001    1.457540   -1.170093
      4          1           0        3.815222   -0.037638   -1.259900
      5          1           0        3.519206    1.402166   -0.290126
      6          1           0        5.984167   -0.394166   -0.066211
      7          1           0        5.687754    1.045197    0.902279
      8          1           0        5.694166    2.455582   -1.182774
      9          1           0        5.992263    1.008041   -2.156768
     10          1           0        7.220808    1.572735   -1.011731
     11          6           0        3.348390   -0.446820    0.804535
     12          6           0        1.842386   -0.626226    0.610243
     13          6           0        1.204651   -1.490008    1.698805
     14          1           0        3.829446   -1.434634    0.818839
     15          1           0        3.533430    0.005170    1.788613
     16          1           0        1.660898   -1.077665   -0.373567
     17          1           0        1.364485    0.361698    0.594924
     18          1           0        1.356389   -1.040509    2.685480
     19          1           0        1.654486   -2.488050    1.711487
     20          1           0        0.127845   -1.605203    1.540444
     21          6           0       -3.774894   -0.731252   -0.385115
     22          6           0       -2.473292   -1.478962   -0.676229
     23          6           0       -2.690836   -2.973334   -0.915646
     24          1           0       -4.258360   -1.178373    0.494253
     25          1           0       -4.466541   -0.871740   -1.227304
     26          1           0       -1.783787   -1.335962    0.165645
     27          1           0       -1.992772   -1.029888   -1.554891
     28          1           0       -3.358473   -3.133683   -1.768376
     29          1           0       -3.148302   -3.441497   -0.038065
     30          1           0       -1.747415   -3.488398   -1.121866
     31          6           0       -3.573758    0.763720   -0.143598
     32          6           0       -4.875361    1.511430    0.147516
     33          6           0       -4.657817    3.005802    0.386933
     34          1           0       -2.882111    0.904208    0.698591
     35          1           0       -3.090292    1.210840   -1.022966
     36          1           0       -5.355880    1.062355    1.026178
     37          1           0       -5.564865    1.368430   -0.694358
     38          1           0       -4.200350    3.473965   -0.490648
     39          1           0       -3.990178    3.166150    1.239663
     40          1           0       -5.601237    3.520866    0.593153
 ---------------------------------------------------------------------

 SCF Done:  E(RHF) =  -470.733328083     A.U. after   11 cycles
 E2 =    -0.1582580323D+01 EUMP2 =    -0.47231590840630D+03

 The electronic state is 1-A.
 Alpha  occ. eigenvalues --  -11.21603 -11.21597 -11.21592 -11.21586 -11.21406
 Alpha  occ. eigenvalues --  -11.21398 -11.21346 -11.21339 -11.21074 -11.21073
 Alpha  occ. eigenvalues --  -11.21068 -11.21065  -1.08438  -1.08417  -1.03552
 Alpha  occ. eigenvalues --   -1.03505  -0.95996  -0.95962  -0.87010  -0.86981
 Alpha  occ. eigenvalues --   -0.79605  -0.79576  -0.78260  -0.78220  -0.65073
 Alpha  occ. eigenvalues --   -0.65053  -0.60967  -0.60918  -0.59473  -0.59231
 Alpha  occ. eigenvalues --   -0.57684  -0.57488  -0.55273  -0.55255  -0.52719
 Alpha  occ. eigenvalues --   -0.52650  -0.52432  -0.52378  -0.49917  -0.49915
 Alpha  occ. eigenvalues --   -0.47976  -0.47846  -0.46618  -0.46606  -0.45800
 Alpha  occ. eigenvalues --   -0.45758  -0.45705  -0.45694  -0.43797  -0.43745
 Alpha virt. eigenvalues --    0.21269   0.23085   0.23536   0.24899   0.26170
 Alpha virt. eigenvalues --    0.26634   0.26956   0.27644   0.27936   0.28894
 Alpha virt. eigenvalues --    0.30415   0.31278   0.31578   0.31813   0.32092

 Mulliken charges:
               1
     1  C   -0.298258
     2  C   -0.299651
     3  C   -0.475705
     4  H    0.149626
     5  H    0.149595
     6  H    0.151907
     7  H    0.151926
     8  H    0.155193
     9  H    0.155155
    10  H    0.160237
    11  C   -0.298360
    12  C   -0.299098
    13  C   -0.482279
    14  H    0.149472
    15  H    0.149573
    16  H    0.152460
    17  H    0.152128
    18  H    0.155017
    19  H    0.155356
    20  H    0.165502
    21  C   -0.297683
    22  C   -0.307959
    23  C   -0.475438
    24  H    0.149540
    25  H    0.149585
    26  H    0.159159
    27  H    0.152344
    28  H    0.155277
    29  H    0.155096
    30  H    0.160355
    31  C   -0.298334
    32  C   -0.299654
    33  C   -0.475717
    34  H    0.149331
    35  H    0.149788
    36  H    0.151973
    37  H    0.151968
    38  H    0.155171
    39  H    0.155130
    40  H    0.160271
 Sum of Mulliken charges =  -0.00000

 Dipole moment (field-independent basis, Debye):
    X=             -0.0036    Y=              0.0003    Z=             -0.0074  Tot=              0.0082
 Quadrupole moment (field-independent basis, Debye-Ang):
   XX=            -85.1627   YY=            -85.6263   ZZ=            -84.0094
   XY=             -0.5265   XZ=              0.4430   YZ=              0.5251

 Normal termination of Gaussian 16 at Thu May  6 03:39:42 2021.
