 Gaussian 16, Revision A.03,
 Gaussian 16:  EM64L-G16RevA.03 25-Dec-2016

 -------------
 #p 6-31g* mp2
 -------------

 ------------------------------------------------------
 Input file generated by CHIRIPA (05-May-2021 14:57:27)
 ------------------------------------------------------
 Symbolic Z-matrix:
 Charge =  0 Multiplicity = 1

                         Standard orientation:
 ---------------------------------------------------------------------
 Center     Atomic      Atomic             Coordinates (Angstroms)
 Number     Number       Type             X           Y           Z
 ---------------------------------------------------------------------
      1          6           0        0.591172   -0.691347    1.771579
      2          6           0        0.906735   -1.532116    0.699176
      3          6           0        2.017902   -1.267902   -0.107079
      4          6           0        2.795202   -0.149222    0.188974
      5          6           0        2.506730    0.707311    1.250306
      6          6           0        1.390766    0.423717    2.043242
      7          1           0       -0.273872   -0.904122    2.392724
      8          1           0        0.287550   -2.398803    0.485850
      9          1           0        2.285082   -1.902161   -0.943589
     10          1           0        3.142828    1.563749    1.438216
     11          1           0        1.148094    1.078413    2.875425
     12          7           0        3.974084    0.140748   -0.657523
     13          8           0        4.642960    1.132655   -0.375810
     14          8           0        4.206892   -0.629371   -1.586691
     15          6           0       -2.330165    2.704838   -0.387073
     16          6           0       -2.780141    2.076394    0.778731
     17          6           0       -2.933870    0.687512    0.822586
     18          6           0       -2.627083   -0.045436   -0.322823
     19          6           0       -2.176719    0.551528   -1.499300
     20          6           0       -2.030419    1.941744   -1.520371
     21          1           0       -2.213631    3.784272   -0.412290
     22          1           0       -3.013681    2.666494    1.660371
     23          1           0       -3.280424    0.175254    1.711916
     24          1           0       -1.951851   -0.063358   -2.362298
     25          1           0       -1.680774    2.427104   -2.427134
     26          7           0       -2.785896   -1.516488   -0.288457
     27          8           0       -2.508917   -2.139720   -1.310954
     28          8           0       -3.184347   -2.018413    0.760326
 ---------------------------------------------------------------------

 SCF Done:  E(RHF) =  -868.339155383     A.U. after   16 cycles
 E2 =    -0.2601613720D+01 EUMP2 =    -0.87094076910267D+03

 The electronic state is 1-A.
 Alpha  occ. eigenvalues --  -20.61757 -20.61730 -20.60745 -20.60733 -15.86762
 Alpha  occ. eigenvalues --  -15.85791 -11.31877 -11.31075 -11.28475 -11.28368
 Alpha  occ. eigenvalues --  -11.28094 -11.27680 -11.27578 -11.27424 -11.27322
 Alpha  occ. eigenvalues --  -11.27320 -11.26679 -11.26483  -1.60825  -1.59821
 Alpha  occ. eigenvalues --   -1.40381  -1.39375  -1.20028  -1.19235  -1.09469
 Alpha  occ. eigenvalues --   -1.08641  -1.05399  -1.04616  -0.96346  -0.95491
 Alpha  occ. eigenvalues --   -0.86811  -0.86019  -0.83186  -0.82315  -0.78273
 Alpha  occ. eigenvalues --   -0.77383  -0.72980  -0.72189  -0.71996  -0.71147
 Alpha  occ. eigenvalues --   -0.71139  -0.70314  -0.65686  -0.65399  -0.64878
 Alpha  occ. eigenvalues --   -0.64583  -0.62758  -0.61948  -0.55896  -0.55114
 Alpha  occ. eigenvalues --   -0.53848  -0.53488  -0.52838  -0.52681  -0.49762
 Alpha  occ. eigenvalues --   -0.49721  -0.48770  -0.48758  -0.45835  -0.44799
 Alpha  occ. eigenvalues --   -0.38134  -0.37254  -0.36816  -0.36174
 Alpha virt. eigenvalues --    0.04197   0.05114   0.10607   0.11395   0.15791
 Alpha virt. eigenvalues --    0.16678   0.20598   0.21735   0.26471   0.27194
 Alpha virt. eigenvalues --    0.27715   0.28614   0.30435   0.30978   0.32628

 Mulliken charges:
               1
     1  C   -0.172305
     2  C   -0.228811
     3  C   -0.171890
     4  C    0.157512
     5  C   -0.172479
     6  C   -0.218033
     7  H    0.229223
     8  H    0.239185
     9  H    0.277545
    10  H    0.273190
    11  H    0.219297
    12  N    0.487796
    13  O   -0.462520
    14  O   -0.459979
    15  C   -0.169297
    16  C   -0.218721
    17  C   -0.176136
    18  C    0.161346
    19  C   -0.168704
    20  C   -0.217165
    21  H    0.228472
    22  H    0.223305
    23  H    0.271743
    24  H    0.277467
    25  H    0.228007
    26  N    0.485656
    27  O   -0.458550
    28  O   -0.465156
 Sum of Mulliken charges =  -0.00000

 Dipole moment (field-independent basis, Debye):
    X=             -3.7117    Y=              4.1927    Z=              2.6706  Tot=              6.2038
 Quadrupole moment (field-independent basis, Debye-Ang):
   XX=           -132.3546   YY=           -102.1205   ZZ=            -98.0636
   XY=            -15.6316   XZ=              6.8921   YZ=              0.3881

 Normal termination of Gaussian 16 at Thu May  6 22:58:20 2021.
