 Gaussian 16, Revision A.03,
 Gaussian 16:  EM64L-G16RevA.03 25-Dec-2016

 -------------
 #p 6-31g* mp2
 -------------

 ------------------------------------------------------
 Input file generated by CHIRIPA (05-May-2021 14:51:10)
 ------------------------------------------------------
 Symbolic Z-matrix:
 Charge =  0 Multiplicity = 1

                         Standard orientation:
 ---------------------------------------------------------------------
 Center     Atomic      Atomic             Coordinates (Angstroms)
 Number     Number       Type             X           Y           Z
 ---------------------------------------------------------------------
      1          6           0       -1.760072    1.466799    0.276293
      2          6           0       -1.210267    2.249752   -0.916470
      3          6           0       -0.161420    3.285685   -0.510816
      4          1           0       -2.197281    2.170018    0.998288
      5          1           0       -0.928919    0.965966    0.791799
      6          1           0       -2.042383    2.747837   -1.430387
      7          1           0       -0.774488    1.544571   -1.635798
      8          1           0        0.687530    2.801522   -0.017387
      9          1           0       -0.587569    4.011625    0.189190
     10          1           0        0.218146    3.833808   -1.378774
     11          6           0       -2.809633    0.427355   -0.113200
     12          6           0       -3.359438   -0.355598    1.079563
     13          6           0       -4.408286   -1.391531    0.673909
     14          1           0       -3.640786    0.928188   -0.628706
     15          1           0       -2.372425   -0.275865   -0.835195
     16          1           0       -3.795218    0.349583    1.798891
     17          1           0       -2.527323   -0.853683    1.593480
     18          1           0       -3.982136   -2.117471   -0.026097
     19          1           0       -5.257235   -0.907369    0.180480
     20          1           0       -4.787851   -1.939654    1.541867
     21          6           0        1.941571   -1.561235   -0.378868
     22          6           0        0.418958   -1.434933   -0.439553
     23          6           0       -0.253462   -2.671466   -1.036740
     24          1           0        2.329116   -1.738057   -1.391531
     25          1           0        2.205666   -2.446620    0.215896
     26          1           0        0.157835   -0.549265   -1.032868
     27          1           0        0.035011   -1.258201    0.573347
     28          1           0       -0.022003   -3.560958   -0.441903
     29          1           0        0.101518   -2.847995   -2.057244
     30          1           0       -1.341683   -2.559739   -1.070641
     31          6           0        2.628134   -0.332918    0.215775
     32          6           0        4.150747   -0.459221    0.276459
     33          6           0        4.823167    0.777312    0.873647
     34          1           0        2.364040    0.552466   -0.378989
     35          1           0        2.240589   -0.156097    1.228438
     36          1           0        4.534696   -0.635954   -0.736440
     37          1           0        4.411871   -1.344889    0.869775
     38          1           0        4.468187    0.953841    1.894150
     39          1           0        4.591709    1.666804    0.278810
     40          1           0        5.911390    0.665585    0.907548
 ---------------------------------------------------------------------

 SCF Done:  E(RHF) =  -470.731087861     A.U. after   11 cycles
 E2 =    -0.1586960758D+01 EUMP2 =    -0.47231804861958D+03

 The electronic state is 1-A.
 Alpha  occ. eigenvalues --  -11.21665 -11.21656 -11.21571 -11.21562 -11.21494
 Alpha  occ. eigenvalues --  -11.21432 -11.21286 -11.21211 -11.21168 -11.21111
 Alpha  occ. eigenvalues --  -11.21067 -11.21035  -1.08588  -1.08316  -1.03618
 Alpha  occ. eigenvalues --   -1.03499  -0.96085  -0.95919  -0.87100  -0.86939
 Alpha  occ. eigenvalues --   -0.79712  -0.79566  -0.78384  -0.78183  -0.65258
 Alpha  occ. eigenvalues --   -0.65011  -0.61169  -0.60792  -0.59402  -0.59296
 Alpha  occ. eigenvalues --   -0.57678  -0.57549  -0.55390  -0.55158  -0.52762
 Alpha  occ. eigenvalues --   -0.52643  -0.52512  -0.52364  -0.50088  -0.49831
 Alpha  occ. eigenvalues --   -0.48046  -0.47843  -0.46931  -0.46539  -0.46175
 Alpha  occ. eigenvalues --   -0.45968  -0.45374  -0.45168  -0.43862  -0.43723
 Alpha virt. eigenvalues --    0.20005   0.21428   0.23547   0.24370   0.24945
 Alpha virt. eigenvalues --    0.25971   0.27012   0.27794   0.28546   0.29670
 Alpha virt. eigenvalues --    0.30116   0.31316   0.31613   0.31849   0.32469

 Mulliken charges:
               1
     1  C   -0.302527
     2  C   -0.302543
     3  C   -0.479108
     4  H    0.149419
     5  H    0.155388
     6  H    0.152235
     7  H    0.152442
     8  H    0.158426
     9  H    0.155446
    10  H    0.159484
    11  C   -0.303202
    12  C   -0.301310
    13  C   -0.477473
    14  H    0.149386
    15  H    0.155394
    16  H    0.152095
    17  H    0.152816
    18  H    0.155916
    19  H    0.155388
    20  H    0.160280
    21  C   -0.297297
    22  C   -0.309872
    23  C   -0.480495
    24  H    0.149741
    25  H    0.149714
    26  H    0.159916
    27  H    0.155097
    28  H    0.155944
    29  H    0.155603
    30  H    0.163749
    31  C   -0.302807
    32  C   -0.299447
    33  C   -0.476027
    34  H    0.152830
    35  H    0.149461
    36  H    0.152246
    37  H    0.152255
    38  H    0.155310
    39  H    0.155554
    40  H    0.160573
 Sum of Mulliken charges =  -0.00000

 Dipole moment (field-independent basis, Debye):
    X=              0.0504    Y=             -0.0277    Z=              0.0032  Tot=              0.0576
 Quadrupole moment (field-independent basis, Debye-Ang):
   XX=            -85.2788   YY=            -85.5370   ZZ=            -84.0820
   XY=             -1.5776   XZ=             -0.5176   YZ=             -0.7149

 Normal termination of Gaussian 16 at Wed May  5 19:48:55 2021.
