 Gaussian 16, Revision A.03,
 Gaussian 16:  EM64L-G16RevA.03 25-Dec-2016

 -------------
 #p 6-31g* mp2
 -------------

 ------------------------------------------------------
 Input file generated by CHIRIPA (05-May-2021 14:51:09)
 ------------------------------------------------------
 Symbolic Z-matrix:
 Charge =  0 Multiplicity = 1

                         Standard orientation:
 ---------------------------------------------------------------------
 Center     Atomic      Atomic             Coordinates (Angstroms)
 Number     Number       Type             X           Y           Z
 ---------------------------------------------------------------------
      1          6           0       -3.846113   -0.322807   -0.583410
      2          6           0       -3.882685   -1.623325    0.219896
      3          6           0       -4.500781   -2.783394   -0.561122
      4          1           0       -4.868065   -0.058476   -0.887860
      5          1           0       -3.277003   -0.487487   -1.508823
      6          1           0       -4.450382   -1.455866    1.144176
      7          1           0       -2.860550   -1.884489    0.522633
      8          1           0       -3.931248   -2.979034   -1.475429
      9          1           0       -5.530113   -2.547976   -0.850354
     10          1           0       -4.516924   -3.703158    0.031865
     11          6           0       -3.230958    0.846150    0.183957
     12          6           0       -3.194387    2.146668   -0.619349
     13          6           0       -2.576290    3.306737    0.161669
     14          1           0       -3.800069    1.010830    1.109370
     15          1           0       -2.209007    0.581819    0.488407
     16          1           0       -4.216522    2.407832   -0.922086
     17          1           0       -2.626689    1.979209   -1.543629
     18          1           0       -1.546959    3.071319    0.450901
     19          1           0       -3.145824    3.502377    1.075976
     20          1           0       -2.560147    4.226501   -0.431318
     21          6           0        4.166773   -0.548021   -0.127005
     22          6           0        5.303948    0.467008   -0.247577
     23          6           0        6.553937   -0.120765   -0.903202
     24          1           0        4.515511   -1.412459    0.454437
     25          1           0        3.914086   -0.925658   -1.127472
     26          1           0        5.553480    0.843646    0.752670
     27          1           0        4.952403    1.329215   -0.828637
     28          1           0        6.327048   -0.479882   -1.912240
     29          1           0        6.931539   -0.968210   -0.321950
     30          1           0        7.354267    0.621885   -0.979374
     31          6           0        2.910298    0.024678    0.526458
     32          6           0        1.773124   -0.990351    0.647030
     33          6           0        0.523135   -0.402578    1.302655
     34          1           0        3.162985    0.402314    1.526925
     35          1           0        2.561561    0.889115   -0.054984
     36          1           0        2.124669   -1.852559    1.228089
     37          1           0        1.523591   -1.366988   -0.353217
     38          1           0        0.145533    0.444867    0.721402
     39          1           0        0.750025   -0.043462    2.311693
     40          1           0       -0.277195   -1.145228    1.378827
 ---------------------------------------------------------------------

 SCF Done:  E(RHF) =  -470.732871674     A.U. after   11 cycles
 E2 =    -0.1583310816D+01 EUMP2 =    -0.47231618248997D+03

 The electronic state is 1-A.
 Alpha  occ. eigenvalues --  -11.21682 -11.21635 -11.21571 -11.21544 -11.21461
 Alpha  occ. eigenvalues --  -11.21399 -11.21321 -11.21202 -11.21177 -11.21098
 Alpha  occ. eigenvalues --  -11.21049 -11.21042  -1.08491  -1.08362  -1.03597
 Alpha  occ. eigenvalues --   -1.03487  -0.96058  -0.95923  -0.87081  -0.86941
 Alpha  occ. eigenvalues --   -0.79681  -0.79541  -0.78315  -0.78150  -0.65167
 Alpha  occ. eigenvalues --   -0.64972  -0.61035  -0.60859  -0.59428  -0.59292
 Alpha  occ. eigenvalues --   -0.57652  -0.57543  -0.55417  -0.55157  -0.52788
 Alpha  occ. eigenvalues --   -0.52616  -0.52495  -0.52332  -0.50080  -0.49818
 Alpha  occ. eigenvalues --   -0.48042  -0.47812  -0.46792  -0.46533  -0.45905
 Alpha  occ. eigenvalues --   -0.45783  -0.45686  -0.45445  -0.43805  -0.43714
 Alpha virt. eigenvalues --    0.20959   0.23081   0.23260   0.24330   0.25812
 Alpha virt. eigenvalues --    0.26606   0.27004   0.27317   0.27925   0.29016
 Alpha virt. eigenvalues --    0.29796   0.31574   0.31702   0.31926   0.32286

 Mulliken charges:
               1
     1  C   -0.297315
     2  C   -0.302704
     3  C   -0.475567
     4  H    0.149288
     5  H    0.148733
     6  H    0.152027
     7  H    0.154042
     8  H    0.155019
     9  H    0.155259
    10  H    0.160019
    11  C   -0.308826
    12  C   -0.299217
    13  C   -0.476546
    14  H    0.148756
    15  H    0.162584
    16  H    0.151695
    17  H    0.150848
    18  H    0.155206
    19  H    0.155466
    20  H    0.159976
    21  C   -0.298320
    22  C   -0.299710
    23  C   -0.475745
    24  H    0.149818
    25  H    0.149567
    26  H    0.152052
    27  H    0.152028
    28  H    0.155218
    29  H    0.155241
    30  H    0.160404
    31  C   -0.298805
    32  C   -0.299572
    33  C   -0.482786
    34  H    0.149845
    35  H    0.149765
    36  H    0.152411
    37  H    0.151928
    38  H    0.157676
    39  H    0.156489
    40  H    0.163750
 Sum of Mulliken charges =  -0.00000

 Dipole moment (field-independent basis, Debye):
    X=              0.0581    Y=             -0.0132    Z=              0.0317  Tot=              0.0675
 Quadrupole moment (field-independent basis, Debye-Ang):
   XX=            -85.0522   YY=            -85.6864   ZZ=            -84.1818
   XY=             -0.4387   XZ=              0.2146   YZ=             -0.7013

 Normal termination of Gaussian 16 at Wed May  5 19:44:21 2021.
