 Gaussian 16, Revision A.03,
 Gaussian 16:  EM64L-G16RevA.03 25-Dec-2016

 -------------
 #p 6-31g* mp2
 -------------

 ------------------------------------------------------
 Input file generated by CHIRIPA (05-May-2021 14:57:25)
 ------------------------------------------------------
 Symbolic Z-matrix:
 Charge =  0 Multiplicity = 1

                         Standard orientation:
 ---------------------------------------------------------------------
 Center     Atomic      Atomic             Coordinates (Angstroms)
 Number     Number       Type             X           Y           Z
 ---------------------------------------------------------------------
      1          6           0       -3.125269    2.622379    0.398662
      2          6           0       -3.295111    1.752654    1.480907
      3          6           0       -3.143129    0.372986    1.313675
      4          6           0       -2.819609   -0.104811    0.044685
      5          6           0       -2.643893    0.736142   -1.053137
      6          6           0       -2.800774    2.112246   -0.862682
      7          1           0       -3.245235    3.692754    0.537592
      8          1           0       -3.547138    2.146012    2.461619
      9          1           0       -3.268881   -0.322893    2.134258
     10          1           0       -2.392872    0.314337   -2.018790
     11          1           0       -2.668271    2.785320   -1.704976
     12          7           0       -2.656119   -1.563517   -0.144648
     13          8           0       -2.370919   -1.959394   -1.272735
     14          8           0       -2.816271   -2.283353    0.838624
     15          6           0        5.057160    0.985385    0.395840
     16          6           0        4.711773   -0.191793    1.067761
     17          6           0        3.489563   -0.821498    0.814338
     18          6           0        2.632841   -0.243975   -0.121495
     19          6           0        2.948413    0.928014   -0.807167
     20          6           0        4.175932    1.540553   -0.537833
     21          1           0        6.008664    1.467888    0.598885
     22          1           0        5.394179   -0.625200    1.793381
     23          1           0        3.196987   -1.733594    1.320204
     24          1           0        2.247430    1.336279   -1.525053
     25          1           0        4.441525    2.454686   -1.061157
     26          7           0        1.336132   -0.901530   -0.398205
     27          8           0        0.598857   -0.372657   -1.227274
     28          8           0        1.081600   -1.933342    0.219220
 ---------------------------------------------------------------------

 SCF Done:  E(RHF) =  -868.336666868     A.U. after   16 cycles
 E2 =    -0.2601970940D+01 EUMP2 =    -0.87093863780817D+03

 The electronic state is 1-A.
 Alpha  occ. eigenvalues --  -20.60654 -20.60601 -20.59086 -20.58988 -15.85668
 Alpha  occ. eigenvalues --  -15.84109 -11.31144 -11.29824 -11.27755 -11.27696
 Alpha  occ. eigenvalues --  -11.27490 -11.26783 -11.26743 -11.26560 -11.26429
 Alpha  occ. eigenvalues --  -11.26420 -11.25668 -11.25605  -1.59689  -1.58076
 Alpha  occ. eigenvalues --   -1.39242  -1.37631  -1.19326  -1.18086  -1.08700
 Alpha  occ. eigenvalues --   -1.07425  -1.04747  -1.03565  -0.95517  -0.94194
 Alpha  occ. eigenvalues --   -0.86139  -0.84945  -0.82351  -0.81048  -0.77385
 Alpha  occ. eigenvalues --   -0.75995  -0.71885  -0.71036  -0.70438  -0.70368
 Alpha  occ. eigenvalues --   -0.69355  -0.69238  -0.64980  -0.64749  -0.63754
 Alpha  occ. eigenvalues --   -0.63606  -0.62094  -0.60905  -0.55243  -0.54118
 Alpha  occ. eigenvalues --   -0.53071  -0.52842  -0.51868  -0.51683  -0.48680
 Alpha  occ. eigenvalues --   -0.48609  -0.47140  -0.47045  -0.44629  -0.42917
 Alpha  occ. eigenvalues --   -0.37318  -0.36357  -0.36103  -0.35155
 Alpha virt. eigenvalues --    0.05143   0.06591   0.11298   0.12493   0.16636
 Alpha virt. eigenvalues --    0.17967   0.21413   0.22407   0.27312   0.28196
 Alpha virt. eigenvalues --    0.28385   0.29373   0.30956   0.31883   0.32549

 Mulliken charges:
               1
     1  C   -0.172889
     2  C   -0.220734
     3  C   -0.172667
     4  C    0.160492
     5  C   -0.153941
     6  C   -0.223267
     7  H    0.218912
     8  H    0.217408
     9  H    0.272714
    10  H    0.279537
    11  H    0.217122
    12  N    0.493230
    13  O   -0.450959
    14  O   -0.467205
    15  C   -0.171171
    16  C   -0.218610
    17  C   -0.170812
    18  C    0.158951
    19  C   -0.170883
    20  C   -0.218591
    21  H    0.225089
    22  H    0.223773
    23  H    0.277961
    24  H    0.272540
    25  H    0.221951
    26  N    0.488282
    27  O   -0.465505
    28  O   -0.450728
 Sum of Mulliken charges =  -0.00000

 Dipole moment (field-independent basis, Debye):
    X=              4.2580    Y=              7.0421    Z=              1.4596  Tot=              8.3577
 Quadrupole moment (field-independent basis, Debye-Ang):
   XX=            -79.6166   YY=           -105.9116   ZZ=            -98.7822
   XY=             -9.6680   XZ=              0.5669   YZ=             -3.9442

 Normal termination of Gaussian 16 at Thu May  6 00:21:57 2021.
