 Gaussian 16, Revision A.03,
 Gaussian 16:  EM64L-G16RevA.03 25-Dec-2016

 -------------
 #p 6-31g* mp2
 -------------

 ------------------------------------------------------
 Input file generated by CHIRIPA (05-May-2021 14:57:21)
 ------------------------------------------------------
 Symbolic Z-matrix:
 Charge =  0 Multiplicity = 1

                         Standard orientation:
 ---------------------------------------------------------------------
 Center     Atomic      Atomic             Coordinates (Angstroms)
 Number     Number       Type             X           Y           Z
 ---------------------------------------------------------------------
      1          6           0       -2.377990    2.476909   -0.409432
      2          6           0       -1.432841    1.659744    0.219421
      3          6           0       -1.695242    0.302735    0.429708
      4          6           0       -2.918568   -0.206245   -0.003539
      5          6           0       -3.880494    0.582231   -0.633058
      6          6           0       -3.596652    1.936497   -0.832918
      7          1           0       -2.165823    3.530001   -0.568738
      8          1           0       -0.485567    2.076711    0.549352
      9          1           0       -0.981409   -0.352552    0.913918
     10          1           0       -4.815873    0.137880   -0.950920
     11          1           0       -4.332540    2.568742   -1.321568
     12          7           0       -3.207710   -1.641398    0.213563
     13          8           0       -4.292985   -2.065582   -0.177440
     14          8           0       -2.343590   -2.314912    0.770621
     15          6           0        2.473447    2.372580    0.698244
     16          6           0        3.145246    2.075081   -0.492008
     17          6           0        3.371041    0.747347   -0.867091
     18          6           0        2.909340   -0.262586   -0.024382
     19          6           0        2.236860    0.001732    1.167757
     20          6           0        2.022193    1.336782    1.522874
     21          1           0        2.302366    3.406837    0.981864
     22          1           0        3.496815    2.877455   -1.134378
     23          1           0        3.888347    0.488720   -1.783020
     24          1           0        1.898196   -0.819612    1.787531
     25          1           0        1.500173    1.564856    2.447819
     26          7           0        3.142488   -1.672070   -0.410898
     27          8           0        2.725768   -2.543673    0.348898
     28          8           0        3.737536   -1.878533   -1.466326
 ---------------------------------------------------------------------

 SCF Done:  E(RHF) =  -868.335716477     A.U. after   16 cycles
 E2 =    -0.2603023206D+01 EUMP2 =    -0.87093873968334D+03

 The electronic state is 1-A.
 Alpha  occ. eigenvalues --  -20.61147 -20.61116 -20.60717 -20.60700 -15.86200
 Alpha  occ. eigenvalues --  -15.85765 -11.31953 -11.31256 -11.28560 -11.28515
 Alpha  occ. eigenvalues --  -11.28396 -11.27822 -11.27818 -11.27701 -11.27622
 Alpha  occ. eigenvalues --  -11.27612 -11.26882 -11.26780  -1.60202  -1.59784
 Alpha  occ. eigenvalues --   -1.39744  -1.39334  -1.20177  -1.19429  -1.09512
 Alpha  occ. eigenvalues --   -1.08811  -1.05635  -1.04839  -0.96267  -0.95628
 Alpha  occ. eigenvalues --   -0.87014  -0.86240  -0.83085  -0.82453  -0.78059
 Alpha  occ. eigenvalues --   -0.77478  -0.72409  -0.71979  -0.71533  -0.71266
 Alpha  occ. eigenvalues --   -0.71110  -0.70569  -0.65823  -0.65638  -0.65081
 Alpha  occ. eigenvalues --   -0.64847  -0.62959  -0.62218  -0.56118  -0.55417
 Alpha  occ. eigenvalues --   -0.53968  -0.53694  -0.53168  -0.52845  -0.49200
 Alpha  occ. eigenvalues --   -0.49141  -0.48750  -0.48732  -0.45062  -0.44711
 Alpha  occ. eigenvalues --   -0.38168  -0.37432  -0.37231  -0.36443
 Alpha virt. eigenvalues --    0.04411   0.05049   0.10262   0.11188   0.15777
 Alpha virt. eigenvalues --    0.16513   0.19894   0.21899   0.25649   0.26674
 Alpha virt. eigenvalues --    0.28199   0.28876   0.30139   0.30842   0.31699

 Mulliken charges:
               1
     1  C   -0.173271
     2  C   -0.221226
     3  C   -0.175874
     4  C    0.159996
     5  C   -0.170963
     6  C   -0.218089
     7  H    0.222129
     8  H    0.225024
     9  H    0.272732
    10  H    0.276232
    11  H    0.223047
    12  N    0.487828
    13  O   -0.460250
    14  O   -0.457478
    15  C   -0.177345
    16  C   -0.216302
    17  C   -0.168953
    18  C    0.161595
    19  C   -0.175665
    20  C   -0.230631
    21  H    0.225990
    22  H    0.226165
    23  H    0.279453
    24  H    0.282545
    25  H    0.226946
    26  N    0.487771
    27  O   -0.453108
    28  O   -0.458299
 Sum of Mulliken charges =  -0.00000

 Dipole moment (field-independent basis, Debye):
    X=              0.5006    Y=              9.7568    Z=              0.4985  Tot=              9.7824
 Quadrupole moment (field-independent basis, Debye-Ang):
   XX=           -110.3976   YY=           -110.2251   ZZ=           -101.3241
   XY=             -0.0688   XZ=              6.1611   YZ=             -2.2882

 Normal termination of Gaussian 16 at Wed May  5 20:56:07 2021.
