 Gaussian 16, Revision A.03,
 Gaussian 16:  EM64L-G16RevA.03 25-Dec-2016

 -------------
 #p 6-31g* mp2
 -------------

 ------------------------------------------------------
 Input file generated by CHIRIPA (05-May-2021 14:57:25)
 ------------------------------------------------------
 Symbolic Z-matrix:
 Charge =  0 Multiplicity = 1

                         Standard orientation:
 ---------------------------------------------------------------------
 Center     Atomic      Atomic             Coordinates (Angstroms)
 Number     Number       Type             X           Y           Z
 ---------------------------------------------------------------------
      1          6           0       -2.846087   -2.052637   -0.854235
      2          6           0       -2.164164   -0.943957   -0.342054
      3          6           0       -2.865653    0.193251    0.069310
      4          6           0       -4.254877    0.187559   -0.046077
      5          6           0       -4.962872   -0.901394   -0.552253
      6          6           0       -4.240805   -2.027861   -0.957518
      7          1           0       -2.293161   -2.931876   -1.171423
      8          1           0       -1.081041   -0.960389   -0.260688
      9          1           0       -2.362948    1.065366    0.469461
     10          1           0       -6.042941   -0.855409   -0.621196
     11          1           0       -4.773039   -2.887429   -1.354903
     12          7           0       -5.008404    1.385785    0.386188
     13          8           0       -6.232008    1.355776    0.274261
     14          8           0       -4.361145    2.332274    0.828738
     15          6           0        5.734938    1.697420   -0.854615
     16          6           0        6.192953    0.428759   -0.484154
     17          6           0        5.313009   -0.514190    0.055379
     18          6           0        3.975593   -0.153218    0.211282
     19          6           0        3.488918    1.102642   -0.148237
     20          6           0        4.386759    2.029726   -0.685772
     21          1           0        6.425450    2.423764   -1.272961
     22          1           0        7.239429    0.167921   -0.614139
     23          1           0        5.640817   -1.503527    0.350633
     24          1           0        2.440080    1.333531   -0.006654
     25          1           0        4.028253    3.014233   -0.972591
     26          7           0        3.034564   -1.143078    0.781403
     27          8           0        1.861076   -0.800471    0.908617
     28          8           0        3.488290   -2.242796    1.090257
 ---------------------------------------------------------------------

 SCF Done:  E(RHF) =  -868.339948514     A.U. after   16 cycles
 E2 =    -0.2598208130D+01 EUMP2 =    -0.87093815664446D+03

 The electronic state is 1-A.
 Alpha  occ. eigenvalues --  -20.61658 -20.61596 -20.60269 -20.60264 -15.86665
 Alpha  occ. eigenvalues --  -15.85313 -11.31785 -11.30517 -11.28337 -11.28310
 Alpha  occ. eigenvalues --  -11.28004 -11.27275 -11.27265 -11.27077 -11.26995
 Alpha  occ. eigenvalues --  -11.26704 -11.26079 -11.25840  -1.60689  -1.59346
 Alpha  occ. eigenvalues --   -1.40253  -1.38905  -1.19931  -1.18648  -1.09367
 Alpha  occ. eigenvalues --   -1.08068  -1.05297  -1.04009  -0.96244  -0.94940
 Alpha  occ. eigenvalues --   -0.86706  -0.85409  -0.83089  -0.81765  -0.78167
 Alpha  occ. eigenvalues --   -0.76841  -0.72896  -0.71993  -0.71537  -0.71034
 Alpha  occ. eigenvalues --   -0.70666  -0.69754  -0.65588  -0.65292  -0.64289
 Alpha  occ. eigenvalues --   -0.63966  -0.62649  -0.61344  -0.55797  -0.54505
 Alpha  occ. eigenvalues --   -0.53638  -0.53383  -0.52370  -0.52065  -0.49659
 Alpha  occ. eigenvalues --   -0.49614  -0.48301  -0.48275  -0.45707  -0.44347
 Alpha  occ. eigenvalues --   -0.37891  -0.36889  -0.36621  -0.35613
 Alpha virt. eigenvalues --    0.04329   0.05657   0.10769   0.12041   0.15856
 Alpha virt. eigenvalues --    0.17209   0.20870   0.22280   0.26786   0.27383
 Alpha virt. eigenvalues --    0.28520   0.29044   0.30528   0.31559   0.32438

 Mulliken charges:
               1
     1  C   -0.172154
     2  C   -0.225207
     3  C   -0.173288
     4  C    0.158322
     5  C   -0.172899
     6  C   -0.218547
     7  H    0.226850
     8  H    0.244009
     9  H    0.273276
    10  H    0.272949
    11  H    0.220955
    12  N    0.488201
    13  O   -0.462414
    14  O   -0.462620
    15  C   -0.169942
    16  C   -0.218428
    17  C   -0.170576
    18  C    0.157743
    19  C   -0.170399
    20  C   -0.218296
    21  H    0.228042
    22  H    0.225357
    23  H    0.276302
    24  H    0.272955
    25  H    0.226184
    26  N    0.491543
    27  O   -0.471691
    28  O   -0.456228
 Sum of Mulliken charges =  -0.00000

 Dipole moment (field-independent basis, Debye):
    X=              6.4774    Y=             -0.7684    Z=             -3.5512  Tot=              7.4268
 Quadrupole moment (field-independent basis, Debye-Ang):
   XX=            -94.9281   YY=           -104.9956   ZZ=           -106.8585
   XY=             31.7773   XZ=              0.3868   YZ=              1.1339

 Normal termination of Gaussian 16 at Fri May  7 03:27:49 2021.
