 Gaussian 16, Revision A.03,
 Gaussian 16:  EM64L-G16RevA.03 25-Dec-2016

 -------------
 #p 6-31g* mp2
 -------------

 ------------------------------------------------------
 Input file generated by CHIRIPA (05-May-2021 14:55:21)
 ------------------------------------------------------
 Symbolic Z-matrix:
 Charge =  0 Multiplicity = 1

                         Standard orientation:
 ---------------------------------------------------------------------
 Center     Atomic      Atomic             Coordinates (Angstroms)
 Number     Number       Type             X           Y           Z
 ---------------------------------------------------------------------
      1          6           0       -5.438027   -1.174897   -0.023906
      2          6           0       -4.300534   -1.988324    0.007230
      3          6           0       -3.022491   -1.421692    0.016247
      4          6           0       -2.918258   -0.031763   -0.006584
      5          6           0       -4.032475    0.805397   -0.037791
      6          6           0       -5.300609    0.216913   -0.046278
      7          1           0       -6.426992   -1.623558   -0.030704
      8          1           0       -4.404232   -3.069521    0.024654
      9          1           0       -2.125034   -2.027840    0.040187
     10          1           0       -3.897255    1.880037   -0.054633
     11          1           0       -6.182234    0.851103   -0.070475
     12          7           0       -1.570497    0.579672    0.002681
     13          8           0       -1.505557    1.806863   -0.017879
     14          8           0       -0.604581   -0.179854    0.030326
     15          6           0        3.511353    0.632949    0.342601
     16          6           0        3.266052    1.923995   -0.439074
     17          6           0        2.246683    2.840502    0.238197
     18          1           0        2.559144    0.098532    0.463598
     19          1           0        3.858866    0.885307    1.354009
     20          1           0        2.920429    1.669255   -1.449156
     21          1           0        4.218988    2.455306   -0.558390
     22          1           0        2.588282    3.123470    1.239116
     23          1           0        1.282344    2.332952    0.343289
     24          1           0        2.086491    3.757471   -0.337449
     25          6           0        4.528035   -0.293662   -0.321836
     26          6           0        4.773336   -1.584706    0.459839
     27          6           0        5.792704   -2.501214   -0.217432
     28          1           0        4.180522   -0.546019   -1.333244
     29          1           0        5.480244    0.240756   -0.442834
     30          1           0        3.820399   -2.116018    0.579155
     31          1           0        5.118959   -1.329967    1.469921
     32          1           0        6.757044   -1.993664   -0.322524
     33          1           0        5.451106   -2.784181   -1.218352
     34          1           0        5.952896   -3.418182    0.358214
 ---------------------------------------------------------------------

 SCF Done:  E(RHF) =  -669.537302833     A.U. after   15 cycles
 E2 =    -0.2091997151D+01 EUMP2 =    -0.67162929998428D+03

 The electronic state is 1-A.
 Alpha  occ. eigenvalues --  -20.61233 -20.61227 -15.86207 -11.31445 -11.27989
 Alpha  occ. eigenvalues --  -11.27984 -11.27709 -11.26973 -11.26963 -11.20655
 Alpha  occ. eigenvalues --  -11.20338 -11.20196 -11.19936 -11.19752 -11.18941
 Alpha  occ. eigenvalues --   -1.60252  -1.39811  -1.19597  -1.09020  -1.07082
 Alpha  occ. eigenvalues --   -1.04977  -1.02156  -0.95875  -0.94592  -0.86382
 Alpha  occ. eigenvalues --   -0.85609  -0.82711  -0.78291  -0.77779  -0.76822
 Alpha  occ. eigenvalues --   -0.72410  -0.71547  -0.70705  -0.65252  -0.64981
 Alpha  occ. eigenvalues --   -0.63711  -0.62324  -0.59550  -0.58060  -0.56203
 Alpha  occ. eigenvalues --   -0.55489  -0.53870  -0.53314  -0.53066  -0.51327
 Alpha  occ. eigenvalues --   -0.51032  -0.49328  -0.49189  -0.48372  -0.46558
 Alpha  occ. eigenvalues --   -0.45302  -0.45240  -0.44385  -0.44148  -0.42409
 Alpha  occ. eigenvalues --   -0.37571  -0.36572
 Alpha virt. eigenvalues --    0.04753   0.11085   0.16273   0.21220   0.24119
 Alpha virt. eigenvalues --    0.25766   0.27156   0.27878   0.28183   0.28833
 Alpha virt. eigenvalues --    0.29443   0.30811   0.32335   0.32751   0.32884

 Mulliken charges:
               1
     1  C   -0.170223
     2  C   -0.218620
     3  C   -0.170571
     4  C    0.158915
     5  C   -0.170365
     6  C   -0.218617
     7  H    0.226568
     8  H    0.224362
     9  H    0.275953
    10  H    0.276383
    11  H    0.224407
    12  N    0.489733
    13  O   -0.456515
    14  O   -0.460983
    15  C   -0.304954
    16  C   -0.295527
    17  C   -0.488278
    18  H    0.169173
    19  H    0.143205
    20  H    0.150234
    21  H    0.142659
    22  H    0.144373
    23  H    0.188004
    24  H    0.151919
    25  C   -0.296904
    26  C   -0.298770
    27  C   -0.474818
    28  H    0.148031
    29  H    0.145245
    30  H    0.152500
    31  H    0.149706
    32  H    0.153568
    33  H    0.153630
    34  H    0.156578
 Sum of Mulliken charges =  -0.00000

 Dipole moment (field-independent basis, Debye):
    X=             -5.3683    Y=             -2.2421    Z=             -0.0305  Tot=              5.8178
 Quadrupole moment (field-independent basis, Debye-Ang):
   XX=            -68.2968   YY=            -91.6957   ZZ=            -95.7334
   XY=              4.9788   XZ=              0.8375   YZ=             -0.1759

 Normal termination of Gaussian 16 at Thu May  6 14:11:12 2021.
