 Gaussian 16, Revision A.03,
 Gaussian 16:  EM64L-G16RevA.03 25-Dec-2016

 -------------
 #p 6-31g* mp2
 -------------

 ------------------------------------------------------
 Input file generated by CHIRIPA (05-May-2021 14:51:07)
 ------------------------------------------------------
 Symbolic Z-matrix:
 Charge =  0 Multiplicity = 1

                         Standard orientation:
 ---------------------------------------------------------------------
 Center     Atomic      Atomic             Coordinates (Angstroms)
 Number     Number       Type             X           Y           Z
 ---------------------------------------------------------------------
      1          6           0        4.209078   -0.374407    0.269737
      2          6           0        4.985105    0.259141   -0.885418
      3          6           0        6.486556    0.347935   -0.610544
      4          1           0        4.382037    0.210326    1.183585
      5          1           0        4.607678   -1.380152    0.462066
      6          1           0        4.584243    1.262856   -1.076420
      7          1           0        4.810126   -0.327057   -1.796665
      8          1           0        6.906805   -0.648725   -0.441253
      9          1           0        6.679639    0.950222    0.283084
     10          1           0        7.021948    0.803907   -1.449177
     11          6           0        2.706735   -0.470126    0.009871
     12          6           0        1.930708   -1.103674    1.165026
     13          6           0        0.429257   -1.192468    0.890152
     14          1           0        2.308135    0.535619   -0.182458
     15          1           0        2.533776   -1.054859   -0.903977
     16          1           0        2.105687   -0.517476    2.076273
     17          1           0        2.331570   -2.107389    1.356028
     18          1           0        0.236174   -1.794755   -0.003476
     19          1           0        0.009008   -0.195808    0.720861
     20          1           0       -0.106135   -1.648440    1.728785
     21          6           0       -2.904708    0.881406    0.118254
     22          6           0       -3.171703    2.362810   -0.150335
     23          6           0       -2.056103    3.268701    0.371768
     24          1           0       -2.781212    0.727698    1.199026
     25          1           0       -1.951559    0.597220   -0.348803
     26          1           0       -4.124742    2.643780    0.315915
     27          1           0       -3.294768    2.512978   -1.230576
     28          1           0       -1.101798    3.016709   -0.101943
     29          1           0       -1.936488    3.148255    1.453334
     30          1           0       -2.267409    4.323292    0.169166
     31          6           0       -4.011106   -0.036873   -0.397862
     32          6           0       -3.744110   -1.518277   -0.129273
     33          6           0       -4.859710   -2.424168   -0.651376
     34          1           0       -4.964253    0.247313    0.069195
     35          1           0       -4.134601    0.116835   -1.478634
     36          1           0       -3.621045   -1.668445    0.950968
     37          1           0       -2.791071   -1.799248   -0.595522
     38          1           0       -4.979325   -2.303721   -1.732942
     39          1           0       -5.814015   -2.172176   -0.177665
     40          1           0       -4.648405   -3.478759   -0.448774
 ---------------------------------------------------------------------

 SCF Done:  E(RHF) =  -470.732953257     A.U. after   11 cycles
 E2 =    -0.1583139479D+01 EUMP2 =    -0.47231609273627D+03

 The electronic state is 1-A.
 Alpha  occ. eigenvalues --  -11.21598 -11.21581 -11.21557 -11.21528 -11.21396
 Alpha  occ. eigenvalues --  -11.21345 -11.21337 -11.21279 -11.21097 -11.21067
 Alpha  occ. eigenvalues --  -11.21026 -11.20971  -1.08423  -1.08380  -1.03507
 Alpha  occ. eigenvalues --   -1.03497  -0.95985  -0.95922  -0.86999  -0.86945
 Alpha  occ. eigenvalues --   -0.79601  -0.79550  -0.78297  -0.78117  -0.65060
 Alpha  occ. eigenvalues --   -0.65009  -0.60952  -0.60854  -0.59355  -0.59287
 Alpha  occ. eigenvalues --   -0.57647  -0.57497  -0.55310  -0.55183  -0.52714
 Alpha  occ. eigenvalues --   -0.52599  -0.52485  -0.52279  -0.49986  -0.49825
 Alpha  occ. eigenvalues --   -0.47986  -0.47835  -0.46702  -0.46517  -0.45939
 Alpha  occ. eigenvalues --   -0.45726  -0.45673  -0.45342  -0.43771  -0.43728
 Alpha virt. eigenvalues --    0.21818   0.23001   0.23737   0.24393   0.25631
 Alpha virt. eigenvalues --    0.26563   0.26612   0.27589   0.28041   0.29772
 Alpha virt. eigenvalues --    0.29860   0.31304   0.31702   0.32000   0.32270

 Mulliken charges:
               1
     1  C   -0.298196
     2  C   -0.299647
     3  C   -0.475699
     4  H    0.149754
     5  H    0.149556
     6  H    0.151885
     7  H    0.151809
     8  H    0.155173
     9  H    0.155230
    10  H    0.160214
    11  C   -0.298188
    12  C   -0.300178
    13  C   -0.479580
    14  H    0.148921
    15  H    0.149259
    16  H    0.151806
    17  H    0.151504
    18  H    0.153850
    19  H    0.161515
    20  H    0.160262
    21  C   -0.302762
    22  C   -0.299164
    23  C   -0.476271
    24  H    0.149920
    25  H    0.155514
    26  H    0.151792
    27  H    0.151738
    28  H    0.154228
    29  H    0.155169
    30  H    0.160598
    31  C   -0.298065
    32  C   -0.300930
    33  C   -0.475784
    34  H    0.149104
    35  H    0.149148
    36  H    0.151928
    37  H    0.154681
    38  H    0.154886
    39  H    0.154950
    40  H    0.160069
 Sum of Mulliken charges =  -0.00000

 Dipole moment (field-independent basis, Debye):
    X=             -0.0105    Y=              0.0025    Z=              0.0050  Tot=              0.0119
 Quadrupole moment (field-independent basis, Debye-Ang):
   XX=            -86.4380   YY=            -84.6272   ZZ=            -83.9017
   XY=             -0.8582   XZ=             -0.8024   YZ=              0.2137

 Normal termination of Gaussian 16 at Wed May  5 16:33:28 2021.
