 Gaussian 16, Revision A.03,
 Gaussian 16:  EM64L-G16RevA.03 25-Dec-2016

 -------------
 #p 6-31g* mp2
 -------------

 ------------------------------------------------------
 Input file generated by CHIRIPA (05-May-2021 14:57:25)
 ------------------------------------------------------
 Symbolic Z-matrix:
 Charge =  0 Multiplicity = 1

                         Standard orientation:
 ---------------------------------------------------------------------
 Center     Atomic      Atomic             Coordinates (Angstroms)
 Number     Number       Type             X           Y           Z
 ---------------------------------------------------------------------
      1          6           0       -2.399317    2.329222   -0.128785
      2          6           0       -3.781181    2.374265   -0.340789
      3          6           0       -4.537479    1.198452   -0.345476
      4          6           0       -3.876453   -0.010508   -0.133929
      5          6           0       -2.501148   -0.088076    0.080105
      6          6           0       -1.764830    1.100361    0.080616
      7          1           0       -1.819567    3.247525   -0.126765
      8          1           0       -4.276602    3.327192   -0.503682
      9          1           0       -5.608578    1.204478   -0.507123
     10          1           0       -2.035425   -1.052994    0.239644
     11          1           0       -0.691794    1.062356    0.245521
     12          7           0       -4.666536   -1.261971   -0.136681
     13          8           0       -4.060416   -2.314407    0.052090
     14          8           0       -5.876963   -1.166736   -0.327557
     15          6           0        1.466874   -0.639129    1.120310
     16          6           0        2.063862    0.616505    1.273647
     17          6           0        3.326471    0.873399    0.731089
     18          6           0        3.966598   -0.152884    0.038073
     19          6           0        3.397967   -1.414293   -0.131622
     20          6           0        2.134655   -1.648741    0.419402
     21          1           0        0.485777   -0.829971    1.545070
     22          1           0        1.547585    1.402468    1.817490
     23          1           0        3.811724    1.836299    0.834867
     24          1           0        3.937177   -2.177918   -0.678933
     25          1           0        1.673447   -2.624842    0.298753
     26          7           0        5.303639    0.107196   -0.540790
     27          8           0        5.846855   -0.813730   -1.146964
     28          8           0        5.783076    1.227048   -0.377368
 ---------------------------------------------------------------------

 SCF Done:  E(RHF) =  -868.336593154     A.U. after   16 cycles
 E2 =    -0.2601526920D+01 EUMP2 =    -0.87093812007406D+03

 The electronic state is 1-A.
 Alpha  occ. eigenvalues --  -20.61388 -20.61370 -20.61370 -20.61359 -15.86437
 Alpha  occ. eigenvalues --  -15.86426 -11.31982 -11.31871 -11.28597 -11.28515
 Alpha  occ. eigenvalues --  -11.28515 -11.28404 -11.28389 -11.28151 -11.27715
 Alpha  occ. eigenvalues --  -11.27566 -11.27429 -11.27404  -1.60454  -1.60438
 Alpha  occ. eigenvalues --   -1.40008  -1.39986  -1.20187  -1.20032  -1.09578
 Alpha  occ. eigenvalues --   -1.09402  -1.05604  -1.05455  -0.96367  -0.96239
 Alpha  occ. eigenvalues --   -0.87044  -0.86809  -0.83219  -0.83042  -0.78208
 Alpha  occ. eigenvalues --   -0.78103  -0.72657  -0.72639  -0.71777  -0.71762
 Alpha  occ. eigenvalues --   -0.71392  -0.71094  -0.65910  -0.65699  -0.65682
 Alpha  occ. eigenvalues --   -0.65327  -0.62961  -0.62767  -0.56174  -0.55902
 Alpha  occ. eigenvalues --   -0.54058  -0.53764  -0.53685  -0.53397  -0.49426
 Alpha  occ. eigenvalues --   -0.49410  -0.49403  -0.49382  -0.45400  -0.45348
 Alpha  occ. eigenvalues --   -0.38194  -0.37995  -0.37191  -0.37058
 Alpha virt. eigenvalues --    0.04311   0.04407   0.10244   0.10582   0.15667
 Alpha virt. eigenvalues --    0.15832   0.19072   0.22056   0.24903   0.26028
 Alpha virt. eigenvalues --    0.27828   0.29557   0.30284   0.30634   0.32271

 Mulliken charges:
               1
     1  C   -0.172515
     2  C   -0.217644
     3  C   -0.170342
     4  C    0.160378
     5  C   -0.176276
     6  C   -0.225546
     7  H    0.227077
     8  H    0.226072
     9  H    0.277748
    10  H    0.268562
    11  H    0.227770
    12  N    0.488409
    13  O   -0.462209
    14  O   -0.457555
    15  C   -0.179689
    16  C   -0.224623
    17  C   -0.170358
    18  C    0.159626
    19  C   -0.169329
    20  C   -0.218384
    21  H    0.227829
    22  H    0.222451
    23  H    0.277450
    24  H    0.279640
    25  H    0.229759
    26  N    0.487942
    27  O   -0.457191
    28  O   -0.459053
 Sum of Mulliken charges =  -0.00000

 Dipole moment (field-independent basis, Debye):
    X=             -1.7695    Y=              3.4571    Z=              1.9422  Tot=              4.3422
 Quadrupole moment (field-independent basis, Debye-Ang):
   XX=           -159.2773   YY=            -98.9468   ZZ=           -105.4843
   XY=            -23.4035   XZ=              8.3891   YZ=              0.3836

 Normal termination of Gaussian 16 at Thu May  6 19:41:41 2021.
