 Gaussian 16, Revision A.03,
 Gaussian 16:  EM64L-G16RevA.03 25-Dec-2016

 -------------
 #p 6-31g* mp2
 -------------

 ------------------------------------------------------
 Input file generated by CHIRIPA (05-May-2021 14:53:17)
 ------------------------------------------------------
 Symbolic Z-matrix:
 Charge =  0 Multiplicity = 1

                         Standard orientation:
 ---------------------------------------------------------------------
 Center     Atomic      Atomic             Coordinates (Angstroms)
 Number     Number       Type             X           Y           Z
 ---------------------------------------------------------------------
      1          6           0       -3.600147    0.115758   -0.094145
      2          6           0       -3.603039   -1.376050    0.241246
      3          6           0       -4.977992   -1.880593    0.680261
      4          1           0       -3.937272    0.683185    0.784102
      5          1           0       -4.333203    0.306943   -0.890055
      6          1           0       -2.869205   -1.564581    1.035324
      7          1           0       -3.265685   -1.939978   -0.637841
      8          1           0       -5.717517   -1.721345   -0.111158
      9          1           0       -5.318785   -1.343816    1.571514
     10          1           0       -4.957250   -2.949360    0.915137
     11          6           0       -2.232654    0.634998   -0.534690
     12          6           0       -2.229762    2.126806   -0.870082
     13          6           0       -0.854809    2.631349   -1.309096
     14          1           0       -1.499598    0.443813    0.261220
     15          1           0       -1.895529    0.067571   -1.412938
     16          1           0       -2.567116    2.690733    0.009005
     17          1           0       -2.963596    2.315337   -1.664160
     18          1           0       -0.514017    2.094572   -2.200349
     19          1           0       -0.115284    2.472101   -0.517678
     20          1           0       -0.875552    3.700116   -1.543973
     21          6           0        1.887213    1.495469    1.981526
     22          6           0        1.674390    0.150632    2.301901
     23          6           0        1.887977   -0.848887    1.348020
     24          6           0        2.316260   -0.466192    0.077819
     25          6           0        2.537075    0.865076   -0.271832
     26          6           0        2.317119    1.847778    0.697944
     27          1           0        1.718820    2.265387    2.728696
     28          1           0        1.340524   -0.125906    3.297946
     29          1           0        1.730958   -1.897626    1.569175
     30          1           0        2.869930    1.109867   -1.273182
     31          1           0        2.483211    2.891398    0.446318
     32          7           0        2.545747   -1.515436   -0.940425
     33          8           0        2.923030   -1.152215   -2.052345
     34          8           0        2.343990   -2.681187   -0.607325
 ---------------------------------------------------------------------

 SCF Done:  E(RHF) =  -669.535044786     A.U. after   15 cycles
 E2 =    -0.2093192148D+01 EUMP2 =    -0.67162823693450D+03

 The electronic state is 1-A.
 Alpha  occ. eigenvalues --  -20.60809 -20.60803 -15.85863 -11.31258 -11.27845
 Alpha  occ. eigenvalues --  -11.27817 -11.27594 -11.26878 -11.26828 -11.21729
 Alpha  occ. eigenvalues --  -11.21614 -11.21447 -11.21383 -11.21157 -11.21092
 Alpha  occ. eigenvalues --   -1.59883  -1.39435  -1.19449  -1.08838  -1.08486
 Alpha  occ. eigenvalues --   -1.04863  -1.03599  -0.96057  -0.95660  -0.87084
 Alpha  occ. eigenvalues --   -0.86247  -0.82493  -0.79672  -0.78294  -0.77529
 Alpha  occ. eigenvalues --   -0.72082  -0.71204  -0.70545  -0.65130  -0.65098
 Alpha  occ. eigenvalues --   -0.64851  -0.62197  -0.61015  -0.59427  -0.57679
 Alpha  occ. eigenvalues --   -0.55392  -0.55345  -0.53301  -0.52942  -0.52756
 Alpha  occ. eigenvalues --   -0.52405  -0.49994  -0.48844  -0.48834  -0.47966
 Alpha  occ. eigenvalues --   -0.46692  -0.45822  -0.45741  -0.44834  -0.43855
 Alpha  occ. eigenvalues --   -0.37417  -0.36365
 Alpha virt. eigenvalues --    0.05004   0.11124   0.16455   0.21227   0.22799
 Alpha virt. eigenvalues --    0.24237   0.26553   0.26828   0.27387   0.28153
 Alpha virt. eigenvalues --    0.28462   0.30700   0.31442   0.31805   0.31937

 Mulliken charges:
               1
     1  C   -0.298221
     2  C   -0.299376
     3  C   -0.475799
     4  H    0.147123
     5  H    0.150357
     6  H    0.149026
     7  H    0.156024
     8  H    0.155923
     9  H    0.153389
    10  H    0.161124
    11  C   -0.300732
    12  C   -0.297923
    13  C   -0.485252
    14  H    0.149378
    15  H    0.153329
    16  H    0.148555
    17  H    0.152935
    18  H    0.157436
    19  H    0.159428
    20  H    0.156274
    21  C   -0.171182
    22  C   -0.218942
    23  C   -0.170819
    24  C    0.159629
    25  C   -0.166381
    26  C   -0.221747
    27  H    0.226300
    28  H    0.223897
    29  H    0.276142
    30  H    0.276641
    31  H    0.225793
    32  N    0.488091
    33  O   -0.460250
    34  O   -0.460170
 Sum of Mulliken charges =  -0.00000

 Dipole moment (field-independent basis, Debye):
    X=             -0.7095    Y=              3.6106    Z=              3.5767  Tot=              5.1315
 Quadrupole moment (field-independent basis, Debye-Ang):
   XX=            -99.7258   YY=            -96.5695   ZZ=            -91.5110
   XY=              9.9551   XZ=              7.9747   YZ=             -3.4836

 Normal termination of Gaussian 16 at Thu May  6 07:35:49 2021.
