 Gaussian 16, Revision A.03,
 Gaussian 16:  EM64L-G16RevA.03 25-Dec-2016

 -------------
 #p 6-31g* mp2
 -------------

 ------------------------------------------------------
 Input file generated by CHIRIPA (05-May-2021 14:57:27)
 ------------------------------------------------------
 Symbolic Z-matrix:
 Charge =  0 Multiplicity = 1

                         Standard orientation:
 ---------------------------------------------------------------------
 Center     Atomic      Atomic             Coordinates (Angstroms)
 Number     Number       Type             X           Y           Z
 ---------------------------------------------------------------------
      1          6           0        3.776796    1.098125   -0.902604
      2          6           0        3.662264   -0.292377   -1.002139
      3          6           0        2.718236   -0.983622   -0.236933
      4          6           0        1.901263   -0.249439    0.621450
      5          6           0        1.991215    1.136366    0.742867
      6          6           0        2.942377    1.806809   -0.031953
      7          1           0        4.512910    1.627020   -1.500768
      8          1           0        4.308955   -0.845350   -1.677459
      9          1           0        2.608254   -2.059737   -0.294359
     10          1           0        1.332548    1.660209    1.424896
     11          1           0        3.029089    2.886730    0.047405
     12          7           0        0.898087   -0.970217    1.436628
     13          8           0        0.190164   -0.300279    2.185403
     14          8           0        0.838716   -2.191454    1.311355
     15          6           0       -2.457389    2.530679    0.185989
     16          6           0       -1.506664    2.224194   -0.793148
     17          6           0       -1.281787    0.897933   -1.173947
     18          6           0       -2.028819   -0.101380   -0.552170
     19          6           0       -2.983089    0.172055    0.426549
     20          6           0       -3.191273    1.505440    0.791645
     21          1           0       -2.625596    3.563717    0.475705
     22          1           0       -0.935255    3.018359   -1.265205
     23          1           0       -0.551978    0.632494   -1.929156
     24          1           0       -3.537256   -0.641203    0.879238
     25          1           0       -3.930271    1.740507    1.552350
     26          7           0       -1.799586   -1.509204   -0.946993
     27          8           0       -2.470760   -2.371367   -0.384110
     28          8           0       -0.953082   -1.723836   -1.811863
 ---------------------------------------------------------------------

 SCF Done:  E(RHF) =  -868.336893467     A.U. after   16 cycles
 E2 =    -0.2604951763D+01 EUMP2 =    -0.87094184523005D+03

 The electronic state is 1-A.
 Alpha  occ. eigenvalues --  -20.60657 -20.60579 -20.60122 -20.60035 -15.85631
 Alpha  occ. eigenvalues --  -15.85137 -11.31046 -11.30564 -11.27725 -11.27587
 Alpha  occ. eigenvalues --  -11.27473 -11.27281 -11.27119 -11.27036 -11.26755
 Alpha  occ. eigenvalues --  -11.26624 -11.26341 -11.26176  -1.59700  -1.59139
 Alpha  occ. eigenvalues --   -1.39235  -1.38699  -1.19272  -1.18792  -1.08662
 Alpha  occ. eigenvalues --   -1.08194  -1.04679  -1.04218  -0.95478  -0.95005
 Alpha  occ. eigenvalues --   -0.86066  -0.85634  -0.82305  -0.81842  -0.77331
 Alpha  occ. eigenvalues --   -0.76858  -0.71861  -0.71448  -0.71367  -0.70376
 Alpha  occ. eigenvalues --   -0.70077  -0.69943  -0.64919  -0.64683  -0.64470
 Alpha  occ. eigenvalues --   -0.64262  -0.62008  -0.61583  -0.55200  -0.54775
 Alpha  occ. eigenvalues --   -0.53095  -0.52775  -0.52469  -0.52330  -0.48650
 Alpha  occ. eigenvalues --   -0.48608  -0.48139  -0.48097  -0.44605  -0.44060
 Alpha  occ. eigenvalues --   -0.37384  -0.36767  -0.36460  -0.35487
 Alpha virt. eigenvalues --    0.05042   0.05783   0.11330   0.11861   0.16601
 Alpha virt. eigenvalues --    0.17188   0.21408   0.21874   0.27258   0.27799
 Alpha virt. eigenvalues --    0.28407   0.28733   0.30798   0.31442   0.32709

 Mulliken charges:
               1
     1  C   -0.171530
     2  C   -0.220282
     3  C   -0.162944
     4  C    0.154893
     5  C   -0.170081
     6  C   -0.223915
     7  H    0.224557
     8  H    0.225214
     9  H    0.282992
    10  H    0.273457
    11  H    0.219182
    12  N    0.481749
    13  O   -0.463614
    14  O   -0.448703
    15  C   -0.171422
    16  C   -0.221602
    17  C   -0.175043
    18  C    0.156617
    19  C   -0.155783
    20  C   -0.215658
    21  H    0.221822
    22  H    0.216505
    23  H    0.272768
    24  H    0.278553
    25  H    0.222911
    26  N    0.489624
    27  O   -0.451381
    28  O   -0.468885
 Sum of Mulliken charges =  -0.00000

 Dipole moment (field-independent basis, Debye):
    X=              2.6063    Y=              7.0317    Z=             -1.2966  Tot=              7.6104
 Quadrupole moment (field-independent basis, Debye-Ang):
   XX=            -85.6951   YY=           -103.7550   ZZ=           -108.4087
   XY=             -6.5066   XZ=             -9.6055   YZ=              0.2997

 Normal termination of Gaussian 16 at Wed May  5 19:40:39 2021.
