 Gaussian 16, Revision A.03,
 Gaussian 16:  EM64L-G16RevA.03 25-Dec-2016

 -------------
 #p 6-31g* mp2
 -------------

 ------------------------------------------------------
 Input file generated by CHIRIPA (05-May-2021 14:55:21)
 ------------------------------------------------------
 Symbolic Z-matrix:
 Charge =  0 Multiplicity = 1

                         Standard orientation:
 ---------------------------------------------------------------------
 Center     Atomic      Atomic             Coordinates (Angstroms)
 Number     Number       Type             X           Y           Z
 ---------------------------------------------------------------------
      1          6           0        1.037884   -1.808535    0.742444
      2          6           0        1.278328   -0.726348    1.595426
      3          6           0        2.226459    0.244871    1.260271
      4          6           0        2.919097    0.102011    0.058966
      5          6           0        2.702063   -0.964706   -0.811839
      6          6           0        1.749265   -1.924057   -0.456352
      7          1           0        0.299541   -2.558392    1.010697
      8          1           0        0.727352   -0.634065    2.527067
      9          1           0        2.432478    1.092806    1.902129
     10          1           0        3.267021   -1.029641   -1.733806
     11          1           0        1.564617   -2.763435   -1.120728
     12          7           0        3.925311    1.123915   -0.306609
     13          8           0        4.522255    0.975211   -1.370649
     14          8           0        4.097984    2.054237    0.477815
     15          6           0       -3.350528    0.826592   -0.094884
     16          6           0       -4.572444    1.742908   -0.167483
     17          6           0       -4.208883    3.223431   -0.050568
     18          1           0       -2.823990    1.002568    0.853132
     19          1           0       -2.649657    1.097420   -0.896648
     20          1           0       -5.271431    1.469523    0.633324
     21          1           0       -5.096242    1.564594   -1.115352
     22          1           0       -3.529960    3.518261   -0.857253
     23          1           0       -3.706144    3.422651    0.901360
     24          1           0       -5.097191    3.860466   -0.104928
     25          6           0       -3.697818   -0.656578   -0.210312
     26          6           0       -2.475903   -1.572896   -0.137714
     27          6           0       -2.839464   -3.053419   -0.254629
     28          1           0       -4.398689   -0.927408    0.591453
     29          1           0       -4.224355   -0.832555   -1.158328
     30          1           0       -1.952104   -1.394580    0.810155
     31          1           0       -1.776915   -1.299510   -0.938522
     32          1           0       -3.342202   -3.252639   -1.206557
     33          1           0       -3.518387   -3.348250    0.552056
     34          1           0       -1.951155   -3.690453   -0.200268
 ---------------------------------------------------------------------

 SCF Done:  E(RHF) =  -669.534875018     A.U. after   15 cycles
 E2 =    -0.2092422957D+01 EUMP2 =    -0.67162729797516D+03

 The electronic state is 1-A.
 Alpha  occ. eigenvalues --  -20.60738 -20.60733 -15.85794 -11.31144 -11.27743
 Alpha  occ. eigenvalues --  -11.27739 -11.27451 -11.26730 -11.26720 -11.22443
 Alpha  occ. eigenvalues --  -11.22094 -11.22020 -11.21974 -11.21850 -11.21338
 Alpha  occ. eigenvalues --   -1.59815  -1.39369  -1.19333  -1.09042  -1.08718
 Alpha  occ. eigenvalues --   -1.04738  -1.04161  -0.96607  -0.95559  -0.87612
 Alpha  occ. eigenvalues --   -0.86136  -0.82402  -0.80237  -0.78809  -0.77442
 Alpha  occ. eigenvalues --   -0.72012  -0.71139  -0.70458  -0.65666  -0.64984
 Alpha  occ. eigenvalues --   -0.64746  -0.62091  -0.61547  -0.60044  -0.58235
 Alpha  occ. eigenvalues --   -0.55879  -0.55181  -0.53330  -0.53105  -0.52973
 Alpha  occ. eigenvalues --   -0.52831  -0.50526  -0.48770  -0.48767  -0.48536
 Alpha  occ. eigenvalues --   -0.47260  -0.46353  -0.46249  -0.44778  -0.44401
 Alpha  occ. eigenvalues --   -0.37235  -0.36346
 Alpha virt. eigenvalues --    0.05091   0.11199   0.16543   0.19713   0.22627
 Alpha virt. eigenvalues --    0.23911   0.25524   0.26197   0.26714   0.27679
 Alpha virt. eigenvalues --    0.29096   0.30404   0.30841   0.31235   0.31900

 Mulliken charges:
               1
     1  C   -0.165409
     2  C   -0.220183
     3  C   -0.170441
     4  C    0.157845
     5  C   -0.170813
     6  C   -0.221827
     7  H    0.229398
     8  H    0.222714
     9  H    0.275471
    10  H    0.275458
    11  H    0.223059
    12  N    0.488149
    13  O   -0.460732
    14  O   -0.460619
    15  C   -0.298041
    16  C   -0.300251
    17  C   -0.476016
    18  H    0.147619
    19  H    0.152507
    20  H    0.151721
    21  H    0.152909
    22  H    0.157241
    23  H    0.155063
    24  H    0.161569
    25  C   -0.298757
    26  C   -0.301457
    27  C   -0.477656
    28  H    0.149791
    29  H    0.151742
    30  H    0.144399
    31  H    0.156547
    32  H    0.160629
    33  H    0.158174
    34  H    0.150196
 Sum of Mulliken charges =  -0.00000

 Dipole moment (field-independent basis, Debye):
    X=             -3.6743    Y=             -3.5271    Z=              1.2258  Tot=              5.2387
 Quadrupole moment (field-independent basis, Debye-Ang):
   XX=           -115.7668   YY=            -96.1250   ZZ=            -90.1845
   XY=            -11.7103   XZ=              2.6993   YZ=              2.2514

 Normal termination of Gaussian 16 at Thu May  6 10:55:48 2021.
