 Gaussian 16, Revision A.03,
 Gaussian 16:  EM64L-G16RevA.03 25-Dec-2016

 -------------
 #p 6-31g* mp2
 -------------

 ------------------------------------------------------
 Input file generated by CHIRIPA (05-May-2021 14:51:10)
 ------------------------------------------------------
 Symbolic Z-matrix:
 Charge =  0 Multiplicity = 1

                         Standard orientation:
 ---------------------------------------------------------------------
 Center     Atomic      Atomic             Coordinates (Angstroms)
 Number     Number       Type             X           Y           Z
 ---------------------------------------------------------------------
      1          6           0        3.745022    0.591197    0.301701
      2          6           0        3.666811    2.004335   -0.277012
      3          6           0        4.467863    3.021421    0.536403
      4          1           0        3.378418    0.605103    1.337246
      5          1           0        4.797502    0.278725    0.346892
      6          1           0        2.614687    2.313514   -0.322385
      7          1           0        4.033464    1.987027   -1.311363
      8          1           0        5.525256    2.739814    0.571333
      9          1           0        4.098417    3.068156    1.565930
     10          1           0        4.398091    4.024876    0.105043
     11          6           0        2.949250   -0.436874   -0.500512
     12          6           0        3.027461   -1.850012    0.078201
     13          6           0        2.226408   -2.867098   -0.735213
     14          1           0        1.896770   -0.124402   -0.545703
     15          1           0        3.315853   -0.450780   -1.536057
     16          1           0        2.660808   -1.832704    1.112552
     17          1           0        4.079585   -2.159191    0.123574
     18          1           0        2.595854   -2.913833   -1.764741
     19          1           0        1.169016   -2.585491   -0.770143
     20          1           0        2.296180   -3.870553   -0.303853
     21          6           0       -3.079956   -0.741527   -0.166426
     22          6           0       -2.463616   -1.625007    0.918735
     23          6           0       -1.933578   -2.950630    0.371400
     24          1           0       -3.895853   -1.289735   -0.657063
     25          1           0       -2.325902   -0.544220   -0.940937
     26          1           0       -3.218197   -1.819448    1.691664
     27          1           0       -1.649217   -1.074561    1.406976
     28          1           0       -1.161826   -2.774154   -0.384813
     29          1           0       -2.739720   -3.523274   -0.098508
     30          1           0       -1.497357   -3.566526    1.164017
     31          6           0       -3.614316    0.587203    0.365236
     32          6           0       -4.230655    1.470684   -0.719925
     33          6           0       -4.760694    2.796307   -0.172590
     34          1           0       -4.368369    0.389896    1.139747
     35          1           0       -2.798418    1.135411    0.855874
     36          1           0       -5.045054    0.920238   -1.208166
     37          1           0       -3.476074    1.665125   -1.492853
     38          1           0       -3.954551    3.368951    0.297319
     39          1           0       -5.532445    2.619831    0.583623
     40          1           0       -5.196915    3.412204   -0.965207
 ---------------------------------------------------------------------

 SCF Done:  E(RHF) =  -470.733241673     A.U. after   11 cycles
 E2 =    -0.1582475711D+01 EUMP2 =    -0.47231571738453D+03

 The electronic state is 1-A.
 Alpha  occ. eigenvalues --  -11.21635 -11.21629 -11.21622 -11.21608 -11.21436
 Alpha  occ. eigenvalues --  -11.21432 -11.21377 -11.21373 -11.21093 -11.21089
 Alpha  occ. eigenvalues --  -11.21072 -11.21044  -1.08462  -1.08449  -1.03568
 Alpha  occ. eigenvalues --   -1.03530  -0.96032  -0.95964  -0.87064  -0.86966
 Alpha  occ. eigenvalues --   -0.79656  -0.79568  -0.78280  -0.78257  -0.65141
 Alpha  occ. eigenvalues --   -0.65040  -0.61098  -0.60817  -0.59378  -0.59348
 Alpha  occ. eigenvalues --   -0.57657  -0.57566  -0.55518  -0.55082  -0.52715
 Alpha  occ. eigenvalues --   -0.52661  -0.52509  -0.52339  -0.50172  -0.49709
 Alpha  occ. eigenvalues --   -0.48007  -0.47849  -0.46773  -0.46495  -0.45851
 Alpha  occ. eigenvalues --   -0.45786  -0.45760  -0.45658  -0.43816  -0.43792
 Alpha virt. eigenvalues --    0.21108   0.23234   0.23542   0.25090   0.26016
 Alpha virt. eigenvalues --    0.26811   0.27083   0.27536   0.27803   0.28943
 Alpha virt. eigenvalues --    0.30197   0.31547   0.31751   0.31833   0.32060

 Mulliken charges:
               1
     1  C   -0.298317
     2  C   -0.299606
     3  C   -0.475723
     4  H    0.149615
     5  H    0.149734
     6  H    0.151572
     7  H    0.152031
     8  H    0.155298
     9  H    0.155186
    10  H    0.160308
    11  C   -0.298183
    12  C   -0.299336
    13  C   -0.481354
    14  H    0.148484
    15  H    0.149787
    16  H    0.151959
    17  H    0.151979
    18  H    0.154952
    19  H    0.160764
    20  H    0.160685
    21  C   -0.298339
    22  C   -0.299768
    23  C   -0.480812
    24  H    0.149992
    25  H    0.149132
    26  H    0.152207
    27  H    0.151208
    28  H    0.160270
    29  H    0.155554
    30  H    0.160605
    31  C   -0.298249
    32  C   -0.299710
    33  C   -0.475714
    34  H    0.149674
    35  H    0.149322
    36  H    0.152072
    37  H    0.151999
    38  H    0.155118
    39  H    0.155226
    40  H    0.160374
 Sum of Mulliken charges =  -0.00000

 Dipole moment (field-independent basis, Debye):
    X=             -0.0070    Y=             -0.0137    Z=             -0.0017  Tot=              0.0155
 Quadrupole moment (field-independent basis, Debye-Ang):
   XX=            -83.6580   YY=            -86.2455   ZZ=            -84.7338
   XY=              0.2386   XZ=             -0.7740   YZ=             -0.6190

 Normal termination of Gaussian 16 at Thu May  6 03:48:17 2021.
