 Gaussian 16, Revision A.03,
 Gaussian 16:  EM64L-G16RevA.03 25-Dec-2016

 -------------
 #p 6-31g* mp2
 -------------

 ------------------------------------------------------
 Input file generated by CHIRIPA (05-May-2021 14:57:26)
 ------------------------------------------------------
 Symbolic Z-matrix:
 Charge =  0 Multiplicity = 1

                         Standard orientation:
 ---------------------------------------------------------------------
 Center     Atomic      Atomic             Coordinates (Angstroms)
 Number     Number       Type             X           Y           Z
 ---------------------------------------------------------------------
      1          6           0       -4.006343   -2.397544   -0.133467
      2          6           0       -2.881974   -1.902308   -0.802090
      3          6           0       -2.625034   -0.528535   -0.837826
      4          6           0       -3.517419    0.325302   -0.191373
      5          6           0       -4.646227   -0.137511    0.483081
      6          6           0       -4.883335   -1.515121    0.505857
      7          1           0       -4.198238   -3.466214   -0.110740
      8          1           0       -2.199169   -2.585266   -1.299474
      9          1           0       -1.762148   -0.118136   -1.348138
     10          1           0       -5.308737    0.567994    0.969661
     11          1           0       -5.757327   -1.896897    1.025885
     12          7           0       -3.255906    1.781685   -0.222345
     13          8           0       -4.057416    2.513063    0.354980
     14          8           0       -2.254373    2.164242   -0.823360
     15          6           0        5.854189    0.047326   -0.856526
     16          6           0        5.713830    0.094190    0.534381
     17          6           0        4.447857    0.021549    1.123094
     18          6           0        3.338777   -0.098091    0.287082
     19          6           0        3.446039   -0.147414   -1.101929
     20          6           0        4.721843   -0.073114   -1.668810
     21          1           0        6.841446    0.104400   -1.305372
     22          1           0        6.591459    0.187692    1.167683
     23          1           0        4.310447    0.055508    2.197051
     24          1           0        2.552557   -0.240970   -1.707201
     25          1           0        4.827834   -0.109753   -2.749305
     26          7           0        1.993344   -0.175871    0.898770
     27          8           0        1.031962   -0.280980    0.140262
     28          8           0        1.925652   -0.130254    2.125135
 ---------------------------------------------------------------------

 SCF Done:  E(RHF) =  -868.338453658     A.U. after   16 cycles
 E2 =    -0.2598946371D+01 EUMP2 =    -0.87093740002881D+03

 The electronic state is 1-A.
 Alpha  occ. eigenvalues --  -20.60912 -20.60892 -20.59753 -20.59726 -15.85959
 Alpha  occ. eigenvalues --  -15.84795 -11.31260 -11.30068 -11.27838 -11.27811
 Alpha  occ. eigenvalues --  -11.27556 -11.26832 -11.26817 -11.26731 -11.26583
 Alpha  occ. eigenvalues --  -11.26490 -11.25746 -11.25655  -1.59963  -1.58814
 Alpha  occ. eigenvalues --   -1.39525  -1.38370  -1.19426  -1.18269  -1.08831
 Alpha  occ. eigenvalues --   -1.07700  -1.04824  -1.03665  -0.95679  -0.94539
 Alpha  occ. eigenvalues --   -0.86226  -0.85082  -0.82521  -0.81377  -0.77574
 Alpha  occ. eigenvalues --   -0.76410  -0.72197  -0.71272  -0.71030  -0.70541
 Alpha  occ. eigenvalues --   -0.70122  -0.69415  -0.65087  -0.64830  -0.63943
 Alpha  occ. eigenvalues --   -0.63703  -0.62177  -0.61013  -0.55329  -0.54236
 Alpha  occ. eigenvalues --   -0.53150  -0.52920  -0.51994  -0.51781  -0.48940
 Alpha  occ. eigenvalues --   -0.48914  -0.47787  -0.47767  -0.44939  -0.43795
 Alpha  occ. eigenvalues --   -0.37400  -0.36423  -0.36282  -0.35237
 Alpha virt. eigenvalues --    0.04972   0.06132   0.11233   0.12402   0.16472
 Alpha virt. eigenvalues --    0.17606   0.21313   0.22389   0.27218   0.27870
 Alpha virt. eigenvalues --    0.28472   0.29321   0.30899   0.31852   0.32416

 Mulliken charges:
               1
     1  C   -0.170714
     2  C   -0.218039
     3  C   -0.158057
     4  C    0.156606
     5  C   -0.171020
     6  C   -0.219448
     7  H    0.221397
     8  H    0.220432
     9  H    0.281482
    10  H    0.272519
    11  H    0.219278
    12  N    0.488859
    13  O   -0.465203
    14  O   -0.459120
    15  C   -0.170547
    16  C   -0.218443
    17  C   -0.170500
    18  C    0.159027
    19  C   -0.169501
    20  C   -0.218321
    21  H    0.225991
    22  H    0.223913
    23  H    0.276125
    24  H    0.272939
    25  H    0.223565
    26  N    0.491942
    27  O   -0.467396
    28  O   -0.457767
 Sum of Mulliken charges =  -0.00000

 Dipole moment (field-independent basis, Debye):
    X=              4.1634    Y=             -4.8110    Z=             -2.0334  Tot=              6.6795
 Quadrupole moment (field-independent basis, Debye-Ang):
   XX=            -64.1236   YY=           -110.0018   ZZ=           -101.1621
   XY=             17.7646   XZ=             -6.5122   YZ=              2.1731

 Normal termination of Gaussian 16 at Thu May  6 13:08:28 2021.
