 Gaussian 16, Revision A.03,
 Gaussian 16:  EM64L-G16RevA.03 25-Dec-2016

 -------------
 #p 6-31g* mp2
 -------------

 ------------------------------------------------------
 Input file generated by CHIRIPA (05-May-2021 14:53:12)
 ------------------------------------------------------
 Symbolic Z-matrix:
 Charge =  0 Multiplicity = 1

                         Standard orientation:
 ---------------------------------------------------------------------
 Center     Atomic      Atomic             Coordinates (Angstroms)
 Number     Number       Type             X           Y           Z
 ---------------------------------------------------------------------
      1          6           0       -4.914297   -0.041266   -0.462711
      2          6           0       -5.935708   -0.314102    0.641945
      3          6           0       -7.368565   -0.397036    0.114844
      4          1           0       -5.174679    0.897591   -0.970346
      5          1           0       -4.982212   -0.835040   -1.219484
      6          1           0       -5.864931    0.479205    1.397107
      7          1           0       -5.672754   -1.252321    1.147135
      8          1           0       -7.461686   -1.200393   -0.623091
      9          1           0       -7.654955    0.540972   -0.371699
     10          1           0       -8.082274   -0.592658    0.921201
     11          6           0       -3.477303    0.044407    0.048598
     12          6           0       -2.455891    0.317243   -1.056057
     13          6           0       -1.023034    0.400177   -0.528956
     14          1           0       -3.409387    0.838180    0.805372
     15          1           0       -3.216921   -0.894450    0.556234
     16          1           0       -2.718845    1.255462   -1.561248
     17          1           0       -2.526668   -0.476064   -1.811219
     18          1           0       -0.736645   -0.537831   -0.042413
     19          1           0       -0.929913    1.203533    0.208979
     20          1           0       -0.309325    0.595799   -1.335313
     21          6           0        2.743724    2.455706    0.371492
     22          6           0        3.766382    2.032232   -0.483706
     23          6           0        4.071063    0.673441   -0.607812
     24          6           0        3.329618   -0.238754    0.141487
     25          6           0        2.304859    0.151974    1.002005
     26          6           0        2.017507    1.515882    1.110315
     27          1           0        2.513772    3.513236    0.461765
     28          1           0        4.332027    2.759877   -1.058707
     29          1           0        4.857600    0.318081   -1.262409
     30          1           0        1.758438   -0.596938    1.562339
     31          1           0        1.222756    1.841873    1.775256
     32          7           0        3.642997   -1.679954    0.018463
     33          8           0        2.975055   -2.463708    0.689448
     34          8           0        4.550632   -1.998524   -0.746619
 ---------------------------------------------------------------------

 SCF Done:  E(RHF) =  -669.534967603     A.U. after   15 cycles
 E2 =    -0.2092114639D+01 EUMP2 =    -0.67162708224183D+03

 The electronic state is 1-A.
 Alpha  occ. eigenvalues --  -20.60739 -20.60734 -15.85792 -11.31138 -11.27704
 Alpha  occ. eigenvalues --  -11.27696 -11.27447 -11.26729 -11.26709 -11.21822
 Alpha  occ. eigenvalues --  -11.21754 -11.21628 -11.21540 -11.21400 -11.21191
 Alpha  occ. eigenvalues --   -1.59814  -1.39369  -1.19316  -1.08716  -1.08636
 Alpha  occ. eigenvalues --   -1.04723  -1.03737  -0.96201  -0.95550  -0.87224
 Alpha  occ. eigenvalues --   -0.86118  -0.82386  -0.79813  -0.78454  -0.77427
 Alpha  occ. eigenvalues --   -0.72012  -0.71136  -0.70426  -0.65274  -0.64969
 Alpha  occ. eigenvalues --   -0.64730  -0.62078  -0.61136  -0.59561  -0.57806
 Alpha  occ. eigenvalues --   -0.55504  -0.55224  -0.53361  -0.52824  -0.52700
 Alpha  occ. eigenvalues --   -0.52491  -0.50141  -0.48769  -0.48767  -0.48129
 Alpha  occ. eigenvalues --   -0.46838  -0.45997  -0.45915  -0.44778  -0.43987
 Alpha  occ. eigenvalues --   -0.37291  -0.36240
 Alpha virt. eigenvalues --    0.05095   0.11290   0.16554   0.20861   0.22734
 Alpha virt. eigenvalues --    0.24064   0.26063   0.26286   0.27442   0.27929
 Alpha virt. eigenvalues --    0.29043   0.29555   0.31488   0.31728   0.32227

 Mulliken charges:
               1
     1  C   -0.298338
     2  C   -0.299809
     3  C   -0.475833
     4  H    0.149141
     5  H    0.151255
     6  H    0.150775
     7  H    0.153004
     8  H    0.156120
     9  H    0.154863
    10  H    0.160663
    11  C   -0.298558
    12  C   -0.301316
    13  C   -0.473771
    14  H    0.145990
    15  H    0.151383
    16  H    0.150760
    17  H    0.155183
    18  H    0.156549
    19  H    0.144902
    20  H    0.164043
    21  C   -0.172230
    22  C   -0.218746
    23  C   -0.171600
    24  C    0.157471
    25  C   -0.167137
    26  C   -0.213524
    27  H    0.225183
    28  H    0.223111
    29  H    0.275293
    30  H    0.275289
    31  H    0.223156
    32  N    0.488213
    33  O   -0.460895
    34  O   -0.460593
 Sum of Mulliken charges =  -0.00000

 Dipole moment (field-independent basis, Debye):
    X=             -1.1308    Y=              5.0447    Z=              0.4024  Tot=              5.1856
 Quadrupole moment (field-independent basis, Debye-Ang):
   XX=           -101.1058   YY=            -96.6294   ZZ=            -92.9849
   XY=             18.1937   XZ=             -1.6362   YZ=             -0.0435

 Normal termination of Gaussian 16 at Thu May  6 10:27:10 2021.
