 Gaussian 16, Revision A.03,
 Gaussian 16:  EM64L-G16RevA.03 25-Dec-2016

 -------------
 #p 6-31g* mp2
 -------------

 ------------------------------------------------------
 Input file generated by CHIRIPA (05-May-2021 14:51:13)
 ------------------------------------------------------
 Symbolic Z-matrix:
 Charge =  0 Multiplicity = 1

                         Standard orientation:
 ---------------------------------------------------------------------
 Center     Atomic      Atomic             Coordinates (Angstroms)
 Number     Number       Type             X           Y           Z
 ---------------------------------------------------------------------
      1          6           0       -3.640661    0.044433    0.097481
      2          6           0       -4.531479   -0.601345   -0.964308
      3          6           0       -5.684246    0.304102   -1.399151
      4          1           0       -4.253147    0.305851    0.971247
      5          1           0       -3.238460    0.988269   -0.295971
      6          1           0       -4.930774   -1.544368   -0.569480
      7          1           0       -3.916766   -0.861431   -1.835571
      8          1           0       -5.301716    1.240539   -1.817908
      9          1           0       -6.321485    0.553722   -0.544623
     10          1           0       -6.308312   -0.177210   -2.158585
     11          6           0       -2.483759   -0.848527    0.542372
     12          6           0       -1.592940   -0.202748    1.604162
     13          6           0       -0.440173   -1.108195    2.039005
     14          1           0       -2.885959   -1.792362    0.935824
     15          1           0       -1.871273   -1.109945   -0.331393
     16          1           0       -2.207653    0.057337    2.475425
     17          1           0       -1.193646    0.740274    1.209334
     18          1           0        0.197065   -1.357816    1.184477
     19          1           0       -0.822704   -2.044633    2.457762
     20          1           0        0.183892   -0.626883    2.798439
     21          6           0        2.901139    1.106773   -0.566602
     22          6           0        2.181975    1.964296    0.475244
     23          6           0        1.866524    3.371389   -0.033061
     24          1           0        3.832257    1.607696   -0.865001
     25          1           0        2.278633    1.040432   -1.469641
     26          1           0        2.805032    2.027857    1.376562
     27          1           0        1.252556    1.461181    0.771340
     28          1           0        1.225216    3.326106   -0.919218
     29          1           0        2.786514    3.896001   -0.310556
     30          1           0        1.352497    3.967191    0.727633
     31          6           0        3.223280   -0.302680   -0.073252
     32          6           0        3.942445   -1.160202   -1.115097
     33          6           0        4.257895   -2.567296   -0.606793
     34          1           0        3.845786   -0.236338    0.829788
     35          1           0        2.292164   -0.803603    0.225148
     36          1           0        4.871863   -0.657087   -1.411193
     37          1           0        3.319387   -1.223763   -2.016416
     38          1           0        3.337906   -3.091907   -0.329298
     39          1           0        4.899203   -2.522013    0.279364
     40          1           0        4.771922   -3.163097   -1.367486
 ---------------------------------------------------------------------

 SCF Done:  E(RHF) =  -470.732920012     A.U. after   11 cycles
 E2 =    -0.1583731684D+01 EUMP2 =    -0.47231665169656D+03

 The electronic state is 1-A.
 Alpha  occ. eigenvalues --  -11.21656 -11.21634 -11.21589 -11.21580 -11.21452
 Alpha  occ. eigenvalues --  -11.21391 -11.21387 -11.21316 -11.21103 -11.21095
 Alpha  occ. eigenvalues --  -11.21081 -11.21058  -1.08485  -1.08413  -1.03581
 Alpha  occ. eigenvalues --   -1.03517  -0.96029  -0.95968  -0.87044  -0.86984
 Alpha  occ. eigenvalues --   -0.79669  -0.79558  -0.78289  -0.78235  -0.65261
 Alpha  occ. eigenvalues --   -0.64937  -0.61061  -0.60847  -0.59416  -0.59307
 Alpha  occ. eigenvalues --   -0.57676  -0.57544  -0.55408  -0.55195  -0.52725
 Alpha  occ. eigenvalues --   -0.52652  -0.52495  -0.52354  -0.50087  -0.49828
 Alpha  occ. eigenvalues --   -0.47978  -0.47916  -0.46853  -0.46459  -0.45939
 Alpha  occ. eigenvalues --   -0.45740  -0.45718  -0.45489  -0.43824  -0.43772
 Alpha virt. eigenvalues --    0.20337   0.23210   0.23673   0.24263   0.26005
 Alpha virt. eigenvalues --    0.26930   0.26998   0.27307   0.28113   0.29439
 Alpha virt. eigenvalues --    0.30370   0.31505   0.31811   0.31916   0.32303

 Mulliken charges:
               1
     1  C   -0.298426
     2  C   -0.299685
     3  C   -0.475744
     4  H    0.149883
     5  H    0.149617
     6  H    0.152028
     7  H    0.151846
     8  H    0.155252
     9  H    0.155277
    10  H    0.160355
    11  C   -0.298050
    12  C   -0.304601
    13  C   -0.480763
    14  H    0.149862
    15  H    0.149044
    16  H    0.152649
    17  H    0.155126
    18  H    0.159120
    19  H    0.155650
    20  H    0.161719
    21  C   -0.297423
    22  C   -0.307957
    23  C   -0.475461
    24  H    0.149703
    25  H    0.148534
    26  H    0.151945
    27  H    0.160457
    28  H    0.154516
    29  H    0.155378
    30  H    0.160208
    31  C   -0.306125
    32  C   -0.299144
    33  C   -0.475630
    34  H    0.149583
    35  H    0.157459
    36  H    0.151913
    37  H    0.151334
    38  H    0.155026
    39  H    0.155360
    40  H    0.160164
 Sum of Mulliken charges =  -0.00000

 Dipole moment (field-independent basis, Debye):
    X=             -0.0214    Y=             -0.0107    Z=              0.0301  Tot=              0.0384
 Quadrupole moment (field-independent basis, Debye-Ang):
   XX=            -84.4735   YY=            -85.9602   ZZ=            -84.3202
   XY=              1.3090   XZ=             -0.5146   YZ=              0.2726

 Normal termination of Gaussian 16 at Thu May  6 05:32:50 2021.
