 Gaussian 16, Revision A.03,
 Gaussian 16:  EM64L-G16RevA.03 25-Dec-2016

 -------------
 #p 6-31g* mp2
 -------------

 ------------------------------------------------------
 Input file generated by CHIRIPA (05-May-2021 14:57:26)
 ------------------------------------------------------
 Symbolic Z-matrix:
 Charge =  0 Multiplicity = 1

                         Standard orientation:
 ---------------------------------------------------------------------
 Center     Atomic      Atomic             Coordinates (Angstroms)
 Number     Number       Type             X           Y           Z
 ---------------------------------------------------------------------
      1          6           0       -5.582201    1.209324   -0.551295
      2          6           0       -5.504605    0.617879    0.713890
      3          6           0       -4.402272   -0.167452    1.064127
      4          6           0       -3.391052   -0.341139    0.120433
      5          6           0       -3.439376    0.234911   -1.148079
      6          6           0       -4.551157    1.016293   -1.476610
      7          1           0       -6.442190    1.817855   -0.814936
      8          1           0       -6.303844    0.766066    1.434516
      9          1           0       -4.316621   -0.636997    2.036551
     10          1           0       -2.627028    0.069029   -1.845209
     11          1           0       -4.608739    1.474395   -2.459906
     12          7           0       -2.219060   -1.170443    0.479723
     13          8           0       -1.341368   -1.308128   -0.369592
     14          8           0       -2.200337   -1.667063    1.603847
     15          6           0        3.536220    2.675392    0.446827
     16          6           0        2.364441    2.017748    0.058290
     17          6           0        2.379289    0.648917   -0.225663
     18          6           0        3.588850   -0.034422   -0.110333
     19          6           0        4.772961    0.592587    0.274415
     20          6           0        4.734626    1.961971    0.553461
     21          1           0        3.515563    3.738948    0.665503
     22          1           0        1.432304    2.569260   -0.025365
     23          1           0        1.486820    0.114892   -0.528539
     24          1           0        5.687000    0.016049    0.348950
     25          1           0        5.646184    2.470096    0.854986
     26          7           0        3.617001   -1.483834   -0.408344
     27          8           0        4.695427   -2.063262   -0.299262
     28          8           0        2.560107   -2.013011   -0.745366
 ---------------------------------------------------------------------

 SCF Done:  E(RHF) =  -868.337289038     A.U. after   16 cycles
 E2 =    -0.2599497405D+01 EUMP2 =    -0.87093678644334D+03

 The electronic state is 1-A.
 Alpha  occ. eigenvalues --  -20.60942 -20.60915 -20.59793 -20.59716 -15.85972
 Alpha  occ. eigenvalues --  -15.84813 -11.31404 -11.30351 -11.27987 -11.27963
 Alpha  occ. eigenvalues --  -11.27721 -11.27020 -11.27006 -11.26987 -11.26848
 Alpha  occ. eigenvalues --  -11.26827 -11.26078 -11.26037  -1.59993  -1.58839
 Alpha  occ. eigenvalues --   -1.39546  -1.38379  -1.19581  -1.18572  -1.08959
 Alpha  occ. eigenvalues --   -1.07952  -1.04990  -1.04001  -0.95779  -0.94742
 Alpha  occ. eigenvalues --   -0.86383  -0.85393  -0.82607  -0.81567  -0.77654
 Alpha  occ. eigenvalues --   -0.76561  -0.72165  -0.71329  -0.71022  -0.70680
 Alpha  occ. eigenvalues --   -0.70172  -0.69684  -0.65227  -0.64986  -0.64225
 Alpha  occ. eigenvalues --   -0.64023  -0.62334  -0.61320  -0.55480  -0.54538
 Alpha  occ. eigenvalues --   -0.53321  -0.53077  -0.52335  -0.52096  -0.48938
 Alpha  occ. eigenvalues --   -0.48917  -0.47827  -0.47755  -0.44932  -0.43746
 Alpha  occ. eigenvalues --   -0.37565  -0.36601  -0.36600  -0.35616
 Alpha virt. eigenvalues --    0.04840   0.05964   0.11052   0.12034   0.16295
 Alpha virt. eigenvalues --    0.17392   0.21176   0.22127   0.27096   0.27759
 Alpha virt. eigenvalues --    0.28191   0.29118   0.30744   0.31612   0.32275

 Mulliken charges:
               1
     1  C   -0.171072
     2  C   -0.218536
     3  C   -0.171067
     4  C    0.157654
     5  C   -0.173106
     6  C   -0.218688
     7  H    0.226069
     8  H    0.224163
     9  H    0.276617
    10  H    0.275144
    11  H    0.223691
    12  N    0.487939
    13  O   -0.459366
    14  O   -0.456269
    15  C   -0.171186
    16  C   -0.220512
    17  C   -0.175294
    18  C    0.156664
    19  C   -0.171070
    20  C   -0.219514
    21  H    0.221599
    22  H    0.218823
    23  H    0.292353
    24  H    0.273831
    25  H    0.220272
    26  N    0.486465
    27  O   -0.466363
    28  O   -0.449241
 Sum of Mulliken charges =  -0.00000

 Dipole moment (field-independent basis, Debye):
    X=             -4.5431    Y=              7.8050    Z=             -0.2262  Tot=              9.0338
 Quadrupole moment (field-independent basis, Debye-Ang):
   XX=            -73.4799   YY=           -108.7262   ZZ=           -101.9755
   XY=              9.7101   XZ=              6.5916   YZ=             -0.7682

 Normal termination of Gaussian 16 at Wed May  5 16:31:42 2021.
