 Gaussian 16, Revision A.03,
 Gaussian 16:  EM64L-G16RevA.03 25-Dec-2016

 -------------
 #p 6-31g* mp2
 -------------

 ------------------------------------------------------
 Input file generated by CHIRIPA (05-May-2021 14:53:12)
 ------------------------------------------------------
 Symbolic Z-matrix:
 Charge =  0 Multiplicity = 1

                         Standard orientation:
 ---------------------------------------------------------------------
 Center     Atomic      Atomic             Coordinates (Angstroms)
 Number     Number       Type             X           Y           Z
 ---------------------------------------------------------------------
      1          6           0        3.219310    0.894758    0.384468
      2          6           0        2.698296    2.036042   -0.489603
      3          6           0        1.625645    2.872827    0.208255
      4          1           0        2.378563    0.249076    0.672882
      5          1           0        3.626743    1.312044    1.315739
      6          1           0        2.293223    1.616839   -1.419550
      7          1           0        3.540410    2.678975   -0.776127
      8          1           0        2.021463    3.318115    1.126758
      9          1           0        0.767189    2.249944    0.479680
     10          1           0        1.267262    3.682986   -0.434447
     11          6           0        4.292208    0.049186   -0.299363
     12          6           0        4.813223   -1.092098    0.574707
     13          6           0        5.885874   -1.928883   -0.123150
     14          1           0        3.884775   -0.368100   -1.230634
     15          1           0        5.132956    0.694869   -0.587777
     16          1           0        3.971108   -1.735031    0.861232
     17          1           0        5.218295   -0.672895    1.504654
     18          1           0        6.744329   -1.306000   -0.394575
     19          1           0        5.490056   -2.374170   -1.041653
     20          1           0        6.244256   -2.739041    0.519551
     21          6           0       -3.571229    2.071728    0.032140
     22          6           0       -2.240898    1.701251   -0.190312
     23          6           0       -1.876491    0.352069   -0.228565
     24          6           0       -2.872600   -0.604663   -0.039565
     25          6           0       -4.206536   -0.267209    0.184109
     26          6           0       -4.548080    1.088050    0.218313
     27          1           0       -3.845429    3.122165    0.060283
     28          1           0       -1.480148    2.463031   -0.335222
     29          1           0       -0.854086    0.037322   -0.398982
     30          1           0       -4.942621   -1.049327    0.325139
     31          1           0       -5.582019    1.372838    0.391261
     32          7           0       -2.498920   -2.036198   -0.077919
     33          8           0       -3.395293   -2.859882    0.091481
     34          8           0       -1.316733   -2.307443   -0.276652
 ---------------------------------------------------------------------

 SCF Done:  E(RHF) =  -669.535473959     A.U. after   15 cycles
 E2 =    -0.2091587178D+01 EUMP2 =    -0.67162706113731D+03

 The electronic state is 1-A.
 Alpha  occ. eigenvalues --  -20.60777 -20.60771 -15.85829 -11.31179 -11.27743
 Alpha  occ. eigenvalues --  -11.27737 -11.27464 -11.26756 -11.26685 -11.22151
 Alpha  occ. eigenvalues --  -11.21963 -11.21661 -11.21511 -11.21431 -11.20926
 Alpha  occ. eigenvalues --   -1.59852  -1.39406  -1.19343  -1.08740  -1.08660
 Alpha  occ. eigenvalues --   -1.04747  -1.03806  -0.96283  -0.95580  -0.87314
 Alpha  occ. eigenvalues --   -0.86136  -0.82417  -0.79891  -0.78402  -0.77465
 Alpha  occ. eigenvalues --   -0.72048  -0.71174  -0.70455  -0.65315  -0.64990
 Alpha  occ. eigenvalues --   -0.64748  -0.62183  -0.61130  -0.59695  -0.57849
 Alpha  occ. eigenvalues --   -0.55609  -0.55211  -0.53107  -0.53063  -0.52783
 Alpha  occ. eigenvalues --   -0.52643  -0.50206  -0.48805  -0.48801  -0.48189
 Alpha  occ. eigenvalues --   -0.46902  -0.45958  -0.45834  -0.44815  -0.44035
 Alpha  occ. eigenvalues --   -0.37320  -0.36338
 Alpha virt. eigenvalues --    0.05046   0.11303   0.16475   0.19510   0.22824
 Alpha virt. eigenvalues --    0.23956   0.25737   0.26435   0.27162   0.28333
 Alpha virt. eigenvalues --    0.29566   0.30379   0.31195   0.31462   0.32209

 Mulliken charges:
               1
     1  C   -0.300434
     2  C   -0.300489
     3  C   -0.483033
     4  H    0.152541
     5  H    0.150511
     6  H    0.151751
     7  H    0.155226
     8  H    0.161242
     9  H    0.150248
    10  H    0.157398
    11  C   -0.298684
    12  C   -0.301087
    13  C   -0.476090
    14  H    0.152047
    15  H    0.148992
    16  H    0.157615
    17  H    0.150895
    18  H    0.153730
    19  H    0.157164
    20  H    0.161455
    21  C   -0.171531
    22  C   -0.222697
    23  C   -0.174206
    24  C    0.158684
    25  C   -0.171084
    26  C   -0.218413
    27  H    0.225889
    28  H    0.231030
    29  H    0.275750
    30  H    0.275502
    31  H    0.223362
    32  N    0.488248
    33  O   -0.460282
    34  O   -0.461249
 Sum of Mulliken charges =  -0.00000

 Dipole moment (field-independent basis, Debye):
    X=             -1.1853    Y=              5.0018    Z=              0.1557  Tot=              5.1426
 Quadrupole moment (field-independent basis, Debye-Ang):
   XX=            -82.2006   YY=           -101.2188   ZZ=            -95.5078
   XY=            -11.6030   XZ=             -0.6851   YZ=             -0.5031

 Normal termination of Gaussian 16 at Thu May  6 07:15:50 2021.
