 Gaussian 16, Revision A.03,
 Gaussian 16:  EM64L-G16RevA.03 25-Dec-2016

 -------------
 #p 6-31g* mp2
 -------------

 ------------------------------------------------------
 Input file generated by CHIRIPA (05-May-2021 14:53:13)
 ------------------------------------------------------
 Symbolic Z-matrix:
 Charge =  0 Multiplicity = 1

                         Standard orientation:
 ---------------------------------------------------------------------
 Center     Atomic      Atomic             Coordinates (Angstroms)
 Number     Number       Type             X           Y           Z
 ---------------------------------------------------------------------
      1          6           0        3.221061   -0.333126   -0.289858
      2          6           0        2.349506   -1.589401   -0.302151
      3          6           0        0.876507   -1.284318   -0.575995
      4          1           0        2.841241    0.361492    0.471843
      5          1           0        3.125583    0.180401   -1.256590
      6          1           0        2.447676   -2.101146    0.663818
      7          1           0        2.731561   -2.281190   -1.063780
      8          1           0        0.758791   -0.794451   -1.547990
      9          1           0        0.473292   -0.613384    0.189424
     10          1           0        0.271667   -2.196465   -0.580324
     11          6           0        4.696226   -0.621853   -0.017363
     12          6           0        5.567781    0.634422   -0.005071
     13          6           0        7.040780    0.329340    0.268773
     14          1           0        4.791704   -1.135380    0.949368
     15          1           0        5.076046   -1.316471   -0.779064
     16          1           0        5.185726    1.326211    0.756558
     17          1           0        5.469612    1.146167   -0.971040
     18          1           0        7.443995   -0.341595   -0.496646
     19          1           0        7.158496   -0.160528    1.240768
     20          1           0        7.645620    1.241486    0.273102
     21          6           0       -1.119658    1.936294    0.291169
     22          6           0       -1.422668    1.073088    1.349272
     23          6           0       -2.513474    0.202656    1.265390
     24          6           0       -3.283436    0.221909    0.103461
     25          6           0       -3.007089    1.070164   -0.967700
     26          6           0       -1.911439    1.932084   -0.861907
     27          1           0       -0.270412    2.609162    0.364842
     28          1           0       -0.809508    1.074189    2.245977
     29          1           0       -2.770598   -0.476002    2.069583
     30          1           0       -3.636746    1.046215   -1.848822
     31          1           0       -1.678481    2.601373   -1.685210
     32          7           0       -4.440787   -0.695074    0.003061
     33          8           0       -5.103566   -0.658819   -1.031371
     34          8           0       -4.663227   -1.432696    0.960699
 ---------------------------------------------------------------------

 SCF Done:  E(RHF) =  -669.534448414     A.U. after   15 cycles
 E2 =    -0.2092773035D+01 EUMP2 =    -0.67162722144900D+03

 The electronic state is 1-A.
 Alpha  occ. eigenvalues --  -20.60772 -20.60767 -15.85826 -11.31205 -11.27785
 Alpha  occ. eigenvalues --  -11.27778 -11.27516 -11.26787 -11.26774 -11.22045
 Alpha  occ. eigenvalues --  -11.21916 -11.21859 -11.21783 -11.21439 -11.21138
 Alpha  occ. eigenvalues --   -1.59847  -1.39400  -1.19387  -1.08846  -1.08773
 Alpha  occ. eigenvalues --   -1.04799  -1.03870  -0.96313  -0.95608  -0.87329
 Alpha  occ. eigenvalues --   -0.86195  -0.82442  -0.79940  -0.78671  -0.77486
 Alpha  occ. eigenvalues --   -0.72046  -0.71169  -0.70490  -0.65479  -0.65041
 Alpha  occ. eigenvalues --   -0.64803  -0.62143  -0.61285  -0.59686  -0.57954
 Alpha  occ. eigenvalues --   -0.55670  -0.55289  -0.53465  -0.52958  -0.52888
 Alpha  occ. eigenvalues --   -0.52435  -0.50231  -0.48805  -0.48798  -0.48224
 Alpha  occ. eigenvalues --   -0.46984  -0.46198  -0.46143  -0.44803  -0.44143
 Alpha  occ. eigenvalues --   -0.37296  -0.36340
 Alpha virt. eigenvalues --    0.05046   0.11168   0.16507   0.21017   0.22585
 Alpha virt. eigenvalues --    0.24061   0.26081   0.26880   0.27324   0.27842
 Alpha virt. eigenvalues --    0.28500   0.30851   0.31230   0.31611   0.31762

 Mulliken charges:
               1
     1  C   -0.296364
     2  C   -0.299939
     3  C   -0.480322
     4  H    0.141612
     5  H    0.148465
     6  H    0.151168
     7  H    0.153321
     8  H    0.152766
     9  H    0.159190
    10  H    0.162466
    11  C   -0.298232
    12  C   -0.299468
    13  C   -0.475830
    14  H    0.150108
    15  H    0.151706
    16  H    0.149359
    17  H    0.151529
    18  H    0.156452
    19  H    0.155770
    20  H    0.160598
    21  C   -0.166587
    22  C   -0.223704
    23  C   -0.167748
    24  C    0.159151
    25  C   -0.170233
    26  C   -0.217569
    27  H    0.226416
    28  H    0.223577
    29  H    0.275789
    30  H    0.275783
    31  H    0.223548
    32  N    0.488040
    33  O   -0.460386
    34  O   -0.460433
 Sum of Mulliken charges =  -0.00000

 Dipole moment (field-independent basis, Debye):
    X=              4.0370    Y=              3.2326    Z=              0.3359  Tot=              5.1826
 Quadrupole moment (field-independent basis, Debye-Ang):
   XX=           -123.1588   YY=            -93.3161   ZZ=            -89.6673
   XY=            -10.2197   XZ=             -0.0678   YZ=             -1.3756

 Normal termination of Gaussian 16 at Thu May  6 10:30:24 2021.
