 Gaussian 16, Revision A.03,
 Gaussian 16:  EM64L-G16RevA.03 25-Dec-2016

 -------------
 #p 6-31g* mp2
 -------------

 ------------------------------------------------------
 Input file generated by CHIRIPA (05-May-2021 14:53:15)
 ------------------------------------------------------
 Symbolic Z-matrix:
 Charge =  0 Multiplicity = 1

                         Standard orientation:
 ---------------------------------------------------------------------
 Center     Atomic      Atomic             Coordinates (Angstroms)
 Number     Number       Type             X           Y           Z
 ---------------------------------------------------------------------
      1          6           0        3.244038    0.286058    0.355475
      2          6           0        3.986707   -0.224962   -0.879550
      3          6           0        5.058888   -1.260234   -0.538325
      4          1           0        3.968360    0.723515    1.056142
      5          1           0        2.781494   -0.564724    0.874722
      6          1           0        4.446554    0.626696   -1.397078
      7          1           0        3.260510   -0.661081   -1.577444
      8          1           0        4.612414   -2.128048   -0.042179
      9          1           0        5.805196   -0.832954    0.139212
     10          1           0        5.577321   -1.612022   -1.435728
     11          6           0        2.169015    1.321664    0.030553
     12          6           0        1.426347    1.832685    1.265578
     13          6           0        0.354166    2.867957    0.924353
     14          1           0        2.631559    2.172446   -0.488694
     15          1           0        1.444693    0.884208   -0.670114
     16          1           0        2.152543    2.268803    1.963472
     17          1           0        0.966500    0.981026    1.783106
     18          1           0       -0.392143    2.440677    0.246816
     19          1           0        0.800640    3.735771    0.428207
     20          1           0       -0.164268    3.219744    1.821756
     21          6           0       -0.465949   -2.414504    0.525043
     22          6           0       -1.734767   -2.374507    1.112428
     23          6           0       -2.656231   -1.389157    0.745637
     24          6           0       -2.273848   -0.455305   -0.216129
     25          6           0       -1.017243   -0.468838   -0.819497
     26          6           0       -0.111861   -1.463218   -0.437349
     27          1           0        0.243619   -3.183456    0.815940
     28          1           0       -2.012494   -3.112000    1.860104
     29          1           0       -3.645170   -1.334971    1.184364
     30          1           0       -0.769235    0.279916   -1.561980
     31          1           0        0.872821   -1.491846   -0.895198
     32          7           0       -3.240847    0.592621   -0.612564
     33          8           0       -2.879614    1.403877   -1.462278
     34          8           0       -4.341704    0.582889   -0.066070
 ---------------------------------------------------------------------

 SCF Done:  E(RHF) =  -669.533691227     A.U. after   15 cycles
 E2 =    -0.2096343754D+01 EUMP2 =    -0.67163003498040D+03

 The electronic state is 1-A.
 Alpha  occ. eigenvalues --  -20.60903 -20.60894 -15.85929 -11.31291 -11.27845
 Alpha  occ. eigenvalues --  -11.27838 -11.27590 -11.26862 -11.26839 -11.22450
 Alpha  occ. eigenvalues --  -11.22063 -11.21849 -11.21830 -11.21748 -11.20941
 Alpha  occ. eigenvalues --   -1.59957  -1.39513  -1.19470  -1.09026  -1.08840
 Alpha  occ. eigenvalues --   -1.04884  -1.03976  -0.96416  -0.95697  -0.87427
 Alpha  occ. eigenvalues --   -0.86269  -0.82548  -0.80080  -0.78816  -0.77566
 Alpha  occ. eigenvalues --   -0.72150  -0.71274  -0.70584  -0.65912  -0.65117
 Alpha  occ. eigenvalues --   -0.64763  -0.62160  -0.61394  -0.59814  -0.58014
 Alpha  occ. eigenvalues --   -0.55724  -0.55356  -0.53176  -0.53084  -0.52934
 Alpha  occ. eigenvalues --   -0.52816  -0.50392  -0.48910  -0.48902  -0.48362
 Alpha  occ. eigenvalues --   -0.47160  -0.46311  -0.46221  -0.44871  -0.44245
 Alpha  occ. eigenvalues --   -0.37429  -0.36376
 Alpha virt. eigenvalues --    0.04925   0.11009   0.16332   0.19233   0.23094
 Alpha virt. eigenvalues --    0.23728   0.24980   0.26212   0.27153   0.28416
 Alpha virt. eigenvalues --    0.29281   0.30525   0.31274   0.31667   0.31941

 Mulliken charges:
               1
     1  C   -0.301620
     2  C   -0.302638
     3  C   -0.474901
     4  H    0.154806
     5  H    0.144204
     6  H    0.157889
     7  H    0.143199
     8  H    0.150701
     9  H    0.159037
    10  H    0.162724
    11  C   -0.297447
    12  C   -0.301204
    13  C   -0.480857
    14  H    0.153147
    15  H    0.140372
    16  H    0.152020
    17  H    0.153074
    18  H    0.161608
    19  H    0.156196
    20  H    0.162225
    21  C   -0.174489
    22  C   -0.218201
    23  C   -0.171320
    24  C    0.159032
    25  C   -0.173303
    26  C   -0.219215
    27  H    0.226365
    28  H    0.223946
    29  H    0.275924
    30  H    0.276946
    31  H    0.232111
    32  N    0.488776
    33  O   -0.460249
    34  O   -0.458857
 Sum of Mulliken charges =  -0.00000

 Dipole moment (field-independent basis, Debye):
    X=              3.3746    Y=             -3.6225    Z=              1.4424  Tot=              5.1566
 Quadrupole moment (field-independent basis, Debye-Ang):
   XX=           -107.9716   YY=            -91.1065   ZZ=            -93.8475
   XY=              9.6148   XZ=             -6.3896   YZ=             -1.1466

 Normal termination of Gaussian 16 at Thu May  6 01:05:08 2021.
