 Gaussian 16, Revision A.03,
 Gaussian 16:  EM64L-G16RevA.03 25-Dec-2016

 -------------
 #p 6-31g* mp2
 -------------

 ------------------------------------------------------
 Input file generated by CHIRIPA (05-May-2021 14:55:23)
 ------------------------------------------------------
 Symbolic Z-matrix:
 Charge =  0 Multiplicity = 1

                         Standard orientation:
 ---------------------------------------------------------------------
 Center     Atomic      Atomic             Coordinates (Angstroms)
 Number     Number       Type             X           Y           Z
 ---------------------------------------------------------------------
      1          6           0       -4.370023    1.294307    0.158937
      2          6           0       -3.162907    1.468976    0.843687
      3          6           0       -2.185500    0.469522    0.825961
      4          6           0       -2.449631   -0.697176    0.110181
      5          6           0       -3.642379   -0.900880   -0.582023
      6          6           0       -4.605492    0.112021   -0.550482
      7          1           0       -5.123745    2.075930    0.178073
      8          1           0       -2.977309    2.386115    1.395461
      9          1           0       -1.242229    0.578559    1.347274
     10          1           0       -3.798616   -1.826087   -1.123318
     11          1           0       -5.542035   -0.026375   -1.083190
     12          7           0       -1.422460   -1.762371    0.084102
     13          8           0       -1.679455   -2.780983   -0.553880
     14          8           0       -0.379819   -1.558490    0.702138
     15          6           0        4.094885    0.518437   -0.048516
     16          6           0        4.408871   -0.976370    0.021816
     17          6           0        5.898651   -1.258899    0.218097
     18          1           0        4.666456    0.968341   -0.871826
     19          1           0        4.442398    1.002825    0.874522
     20          1           0        4.059624   -1.458027   -0.900490
     21          1           0        3.836341   -1.422804    0.844933
     22          1           0        6.257745   -0.804684    1.147259
     23          1           0        6.482297   -0.840106   -0.608082
     24          1           0        6.100625   -2.333519    0.265621
     25          6           0        2.609553    0.816907   -0.244551
     26          6           0        2.295567    2.311716   -0.314882
     27          6           0        0.805786    2.594243   -0.511163
     28          1           0        2.262040    0.332520   -1.167588
     29          1           0        2.037982    0.367004    0.578760
     30          1           0        2.868098    2.758149   -1.137999
     31          1           0        2.644814    2.793372    0.607425
     32          1           0        0.222141    2.175451    0.315016
     33          1           0        0.446693    2.140029   -1.440325
     34          1           0        0.603813    3.668864   -0.558686
 ---------------------------------------------------------------------

 SCF Done:  E(RHF) =  -669.535190162     A.U. after   15 cycles
 E2 =    -0.2092458199D+01 EUMP2 =    -0.67162764836079D+03

 The electronic state is 1-A.
 Alpha  occ. eigenvalues --  -20.60833 -20.60819 -15.85868 -11.31197 -11.27772
 Alpha  occ. eigenvalues --  -11.27766 -11.27508 -11.26778 -11.26766 -11.21344
 Alpha  occ. eigenvalues --  -11.21142 -11.20812 -11.20752 -11.20663 -11.20438
 Alpha  occ. eigenvalues --   -1.59892  -1.39447  -1.19375  -1.08773  -1.07871
 Alpha  occ. eigenvalues --   -1.04779  -1.03084  -0.95624  -0.95547  -0.86595
 Alpha  occ. eigenvalues --   -0.86170  -0.82450  -0.79144  -0.77671  -0.77437
 Alpha  occ. eigenvalues --   -0.72091  -0.71207  -0.70500  -0.65031  -0.64804
 Alpha  occ. eigenvalues --   -0.64499  -0.62167  -0.60481  -0.58938  -0.57140
 Alpha  occ. eigenvalues --   -0.55301  -0.54852  -0.53132  -0.52885  -0.52284
 Alpha  occ. eigenvalues --   -0.51932  -0.49528  -0.48848  -0.48839  -0.47449
 Alpha  occ. eigenvalues --   -0.46150  -0.45274  -0.45084  -0.44703  -0.43290
 Alpha  occ. eigenvalues --   -0.37350  -0.36340
 Alpha virt. eigenvalues --    0.04999   0.11254   0.16464   0.20594   0.23282
 Alpha virt. eigenvalues --    0.24403   0.26106   0.27410   0.27750   0.28470
 Alpha virt. eigenvalues --    0.29324   0.30840   0.31594   0.32004   0.32394

 Mulliken charges:
               1
     1  C   -0.170670
     2  C   -0.218178
     3  C   -0.167890
     4  C    0.157427
     5  C   -0.171183
     6  C   -0.218560
     7  H    0.225718
     8  H    0.223972
     9  H    0.275760
    10  H    0.275494
    11  H    0.223428
    12  N    0.489445
    13  O   -0.460077
    14  O   -0.461772
    15  C   -0.298612
    16  C   -0.299829
    17  C   -0.475712
    18  H    0.146330
    19  H    0.146262
    20  H    0.154405
    21  H    0.159560
    22  H    0.152827
    23  H    0.152545
    24  H    0.160492
    25  C   -0.302295
    26  C   -0.299731
    27  C   -0.473788
    28  H    0.151528
    29  H    0.163718
    30  H    0.151165
    31  H    0.149262
    32  H    0.144661
    33  H    0.157689
    34  H    0.156609
 Sum of Mulliken charges =  -0.00000

 Dipole moment (field-independent basis, Debye):
    X=             -3.7098    Y=              3.5929    Z=              0.0863  Tot=              5.1652
 Quadrupole moment (field-independent basis, Debye-Ang):
   XX=            -77.2272   YY=            -99.4333   ZZ=            -92.6690
   XY=             -4.9001   XZ=              1.1567   YZ=              2.3128

 Normal termination of Gaussian 16 at Wed May  5 19:06:23 2021.
