 Gaussian 16, Revision A.03,
 Gaussian 16:  EM64L-G16RevA.03 25-Dec-2016

 -------------
 #p 6-31g* mp2
 -------------

 ------------------------------------------------------
 Input file generated by CHIRIPA (05-May-2021 14:51:08)
 ------------------------------------------------------
 Symbolic Z-matrix:
 Charge =  0 Multiplicity = 1

                         Standard orientation:
 ---------------------------------------------------------------------
 Center     Atomic      Atomic             Coordinates (Angstroms)
 Number     Number       Type             X           Y           Z
 ---------------------------------------------------------------------
      1          6           0        3.970195   -0.263662    0.114610
      2          6           0        4.391131   -1.494802   -0.688566
      3          6           0        5.317672   -2.424111    0.096100
      4          1           0        4.867945    0.288123    0.425290
      5          1           0        3.469037   -0.589692    1.036532
      6          1           0        4.890117   -1.166533   -1.609363
      7          1           0        3.492267   -2.043617   -0.997533
      8          1           0        4.825251   -2.779843    1.006912
      9          1           0        6.231044   -1.897775    0.391605
     10          1           0        5.606220   -3.297613   -0.496854
     11          6           0        3.043781    0.674980   -0.656386
     12          6           0        2.622845    1.906121    0.146790
     13          6           0        1.696304    2.835430   -0.637877
     14          1           0        3.544940    1.001010   -1.578308
     15          1           0        2.146031    0.123195   -0.967066
     16          1           0        3.521709    2.454935    0.455757
     17          1           0        2.123859    1.577851    1.067587
     18          1           0        0.782932    2.309094   -0.933382
     19          1           0        2.188725    3.191161   -1.548688
     20          1           0        1.407756    3.708931   -0.044923
     21          6           0       -4.223007   -0.460533    0.346971
     22          6           0       -5.044233   -0.354376   -0.938447
     23          6           0       -6.474461   -0.868164   -0.770331
     24          1           0       -4.201377   -1.508739    0.675209
     25          1           0       -4.725913    0.105943    1.142952
     26          1           0       -4.539210   -0.919740   -1.732129
     27          1           0       -5.063750    0.693671   -1.263768
     28          1           0       -7.000292   -0.298013    0.002347
     29          1           0       -6.472771   -1.920591   -0.468676
     30          1           0       -7.043672   -0.782984   -1.701246
     31          6           0       -2.790969    0.049215    0.194804
     32          6           0       -1.969743   -0.056942    1.480224
     33          6           0       -0.539515    0.456846    1.312108
     34          1           0       -2.288063   -0.517261   -0.601176
     35          1           0       -2.812599    1.097421   -0.133433
     36          1           0       -1.950226   -1.104989    1.805544
     37          1           0       -2.474766    0.508422    2.273906
     38          1           0       -0.541205    1.509273    1.010452
     39          1           0       -0.013685   -0.113306    0.539429
     40          1           0        0.029696    0.371666    2.243022
 ---------------------------------------------------------------------

 SCF Done:  E(RHF) =  -470.732143568     A.U. after   11 cycles
 E2 =    -0.1584086059D+01 EUMP2 =    -0.47231622962668D+03

 The electronic state is 1-A.
 Alpha  occ. eigenvalues --  -11.21641 -11.21626 -11.21568 -11.21450 -11.21418
 Alpha  occ. eigenvalues --  -11.21388 -11.21332 -11.21266 -11.21120 -11.21090
 Alpha  occ. eigenvalues --  -11.21047 -11.20942  -1.08481  -1.08345  -1.03616
 Alpha  occ. eigenvalues --   -1.03414  -0.96064  -0.95881  -0.87063  -0.86926
 Alpha  occ. eigenvalues --   -0.79670  -0.79502  -0.78290  -0.78167  -0.65108
 Alpha  occ. eigenvalues --   -0.64994  -0.61013  -0.60869  -0.59431  -0.59255
 Alpha  occ. eigenvalues --   -0.57628  -0.57514  -0.55536  -0.55019  -0.52748
 Alpha  occ. eigenvalues --   -0.52596  -0.52424  -0.52315  -0.50129  -0.49681
 Alpha  occ. eigenvalues --   -0.48032  -0.47740  -0.46660  -0.46543  -0.45889
 Alpha  occ. eigenvalues --   -0.45759  -0.45632  -0.45589  -0.43793  -0.43700
 Alpha virt. eigenvalues --    0.21031   0.22986   0.23814   0.24877   0.25809
 Alpha virt. eigenvalues --    0.26427   0.26717   0.27633   0.27997   0.29553
 Alpha virt. eigenvalues --    0.30677   0.31223   0.31684   0.31813   0.32545

 Mulliken charges:
               1
     1  C   -0.298606
     2  C   -0.299433
     3  C   -0.475648
     4  H    0.149564
     5  H    0.149698
     6  H    0.151883
     7  H    0.151289
     8  H    0.155073
     9  H    0.155175
    10  H    0.160045
    11  C   -0.300049
    12  C   -0.303803
    13  C   -0.478213
    14  H    0.149204
    15  H    0.150384
    16  H    0.151194
    17  H    0.160408
    18  H    0.157477
    19  H    0.154601
    20  H    0.158581
    21  C   -0.298246
    22  C   -0.299691
    23  C   -0.475740
    24  H    0.149733
    25  H    0.149700
    26  H    0.151947
    27  H    0.152101
    28  H    0.155241
    29  H    0.155193
    30  H    0.160380
    31  C   -0.298758
    32  C   -0.300674
    33  C   -0.481816
    34  H    0.149091
    35  H    0.149818
    36  H    0.151731
    37  H    0.152139
    38  H    0.161896
    39  H    0.157585
    40  H    0.159548
 Sum of Mulliken charges =  -0.00000

 Dipole moment (field-independent basis, Debye):
    X=             -0.0467    Y=              0.0027    Z=              0.0272  Tot=              0.0541
 Quadrupole moment (field-independent basis, Debye-Ang):
   XX=            -85.7500   YY=            -84.4591   ZZ=            -84.8110
   XY=              0.2229   XZ=             -0.6458   YZ=              0.4645

 Normal termination of Gaussian 16 at Thu May  6 14:51:11 2021.
