 Gaussian 16, Revision A.03,
 Gaussian 16:  EM64L-G16RevA.03 25-Dec-2016

 -------------
 #p 6-31g* mp2
 -------------

 ------------------------------------------------------
 Input file generated by CHIRIPA (05-May-2021 14:51:11)
 ------------------------------------------------------
 Symbolic Z-matrix:
 Charge =  0 Multiplicity = 1

                         Standard orientation:
 ---------------------------------------------------------------------
 Center     Atomic      Atomic             Coordinates (Angstroms)
 Number     Number       Type             X           Y           Z
 ---------------------------------------------------------------------
      1          6           0       -2.352924    0.402731   -0.732079
      2          6           0       -3.322754   -0.692576   -0.287426
      3          6           0       -3.625064   -1.700478   -1.396722
      4          1           0       -2.774860    0.926770   -1.600583
      5          1           0       -1.416863   -0.061818   -1.071754
      6          1           0       -4.256198   -0.226021    0.052608
      7          1           0       -2.898547   -1.213943    0.580238
      8          1           0       -2.706022   -2.192650   -1.730983
      9          1           0       -4.071387   -1.199114   -2.261610
     10          1           0       -4.320300   -2.474598   -1.057246
     11          6           0       -2.040919    1.417949    0.365971
     12          6           0       -1.071089    2.513256   -0.078682
     13          6           0       -0.768779    3.521158    1.030614
     14          1           0       -2.976980    1.882498    0.705646
     15          1           0       -1.618983    0.893910    1.234474
     16          1           0       -1.495296    3.034623   -0.946347
     17          1           0       -0.137645    2.046701   -0.418717
     18          1           0       -0.322456    3.019794    1.895502
     19          1           0       -1.687821    4.013330    1.364874
     20          1           0       -0.073543    4.295278    0.691138
     21          6           0        1.667749   -1.458601    0.129966
     22          6           0        0.830859   -1.618564    1.399616
     23          6           0       -0.223446   -2.719213    1.277927
     24          1           0        1.001534   -1.238316   -0.715361
     25          1           0        2.158885   -2.414284   -0.099925
     26          1           0        0.342547   -0.662482    1.627816
     27          1           0        1.499159   -1.838305    2.242055
     28          1           0        0.249789   -3.685098    1.073679
     29          1           0       -0.913394   -2.502594    0.455949
     30          1           0       -0.810209   -2.816438    2.196686
     31          6           0        2.726095   -0.362079    0.236143
     32          6           0        3.562984   -0.202116   -1.033508
     33          6           0        4.617289    0.898533   -0.911818
     34          1           0        2.234958    0.593604    0.466033
     35          1           0        3.392309   -0.582364    1.081471
     36          1           0        2.894683    0.017625   -1.875947
     37          1           0        4.051295   -1.158197   -1.261707
     38          1           0        5.307238    0.681914   -0.089841
     39          1           0        4.144053    1.864418   -0.707570
     40          1           0        5.204051    0.995759   -1.830577
 ---------------------------------------------------------------------

 SCF Done:  E(RHF) =  -470.732511407     A.U. after   11 cycles
 E2 =    -0.1585694852D+01 EUMP2 =    -0.47231820625924D+03

 The electronic state is 1-A.
 Alpha  occ. eigenvalues --  -11.21673 -11.21670 -11.21644 -11.21573 -11.21476
 Alpha  occ. eigenvalues --  -11.21451 -11.21415 -11.21392 -11.21128 -11.21113
 Alpha  occ. eigenvalues --  -11.21097 -11.21097  -1.08556  -1.08426  -1.03626
 Alpha  occ. eigenvalues --   -1.03540  -0.96049  -0.96017  -0.87074  -0.87024
 Alpha  occ. eigenvalues --   -0.79713  -0.79576  -0.78361  -0.78251  -0.65655
 Alpha  occ. eigenvalues --   -0.64677  -0.61252  -0.60720  -0.59424  -0.59372
 Alpha  occ. eigenvalues --   -0.57652  -0.57632  -0.55411  -0.55237  -0.52732
 Alpha  occ. eigenvalues --   -0.52708  -0.52478  -0.52430  -0.50086  -0.49897
 Alpha  occ. eigenvalues --   -0.48028  -0.47924  -0.46892  -0.46430  -0.46072
 Alpha  occ. eigenvalues --   -0.45930  -0.45585  -0.45495  -0.43844  -0.43823
 Alpha virt. eigenvalues --    0.18109   0.21724   0.23422   0.24851   0.25226
 Alpha virt. eigenvalues --    0.26131   0.27507   0.27972   0.28790   0.29746
 Alpha virt. eigenvalues --    0.31376   0.31474   0.31602   0.31759   0.32294

 Mulliken charges:
               1
     1  C   -0.302783
     2  C   -0.305496
     3  C   -0.477051
     4  H    0.150208
     5  H    0.152327
     6  H    0.152693
     7  H    0.157651
     8  H    0.155135
     9  H    0.155465
    10  H    0.160935
    11  C   -0.302042
    12  C   -0.302635
    13  C   -0.475873
    14  H    0.150251
    15  H    0.153428
    16  H    0.152476
    17  H    0.153260
    18  H    0.155143
    19  H    0.155677
    20  H    0.160388
    21  C   -0.301562
    22  C   -0.304602
    23  C   -0.482238
    24  H    0.151831
    25  H    0.150198
    26  H    0.155761
    27  H    0.152722
    28  H    0.155755
    29  H    0.162607
    30  H    0.159932
    31  C   -0.301071
    32  C   -0.299764
    33  C   -0.475775
    34  H    0.151664
    35  H    0.150125
    36  H    0.152004
    37  H    0.152150
    38  H    0.155268
    39  H    0.155375
    40  H    0.160463
 Sum of Mulliken charges =  -0.00000

 Dipole moment (field-independent basis, Debye):
    X=             -0.0043    Y=             -0.0077    Z=              0.0100  Tot=              0.0134
 Quadrupole moment (field-independent basis, Debye-Ang):
   XX=            -84.3564   YY=            -85.1648   ZZ=            -85.0556
   XY=             -1.7858   XZ=              0.2920   YZ=             -0.9415

 Normal termination of Gaussian 16 at Thu May  6 02:16:03 2021.
