 Gaussian 16, Revision A.03,
 Gaussian 16:  EM64L-G16RevA.03 25-Dec-2016

 -------------
 #p 6-31g* mp2
 -------------

 ------------------------------------------------------
 Input file generated by CHIRIPA (05-May-2021 14:57:25)
 ------------------------------------------------------
 Symbolic Z-matrix:
 Charge =  0 Multiplicity = 1

                         Standard orientation:
 ---------------------------------------------------------------------
 Center     Atomic      Atomic             Coordinates (Angstroms)
 Number     Number       Type             X           Y           Z
 ---------------------------------------------------------------------
      1          6           0       -5.218000    0.921949   -0.390365
      2          6           0       -4.081944    1.358923   -1.079531
      3          6           0       -2.870884    0.670630   -0.960643
      4          6           0       -2.831442   -0.455766   -0.140298
      5          6           0       -3.946035   -0.915959    0.559127
      6          6           0       -5.146545   -0.212098    0.425327
      7          1           0       -6.154683    1.462678   -0.488512
      8          1           0       -4.134499    2.239317   -1.713716
      9          1           0       -1.976133    0.987016   -1.482887
     10          1           0       -3.862702   -1.796974    1.183856
     11          1           0       -6.027223   -0.553754    0.961726
     12          7           0       -1.554931   -1.192671   -0.006543
     13          8           0       -1.546306   -2.182161    0.722479
     14          8           0       -0.587197   -0.766814   -0.633261
     15          6           0        1.810779    2.338706    1.074954
     16          6           0        1.582883    1.070152    1.618420
     17          6           0        2.259345   -0.047511    1.120650
     18          6           0        3.160839    0.140538    0.074114
     19          6           0        3.409503    1.391524   -0.488459
     20          6           0        2.721756    2.495068    0.025100
     21          1           0        1.280904    3.201450    1.467767
     22          1           0        0.875973    0.945736    2.433800
     23          1           0        2.101980   -1.040970    1.522761
     24          1           0        4.120164    1.484107   -1.300744
     25          1           0        2.900741    3.479050   -0.398915
     26          7           0        3.882953   -1.035209   -0.461210
     27          8           0        4.672123   -0.842993   -1.383653
     28          8           0        3.646103   -2.126711    0.051782
 ---------------------------------------------------------------------

 SCF Done:  E(RHF) =  -868.337535753     A.U. after   16 cycles
 E2 =    -0.2600515597D+01 EUMP2 =    -0.87093805135002D+03

 The electronic state is 1-A.
 Alpha  occ. eigenvalues --  -20.61215 -20.61160 -20.59666 -20.59621 -15.86211
 Alpha  occ. eigenvalues --  -15.84702 -11.31581 -11.30032 -11.28145 -11.28140
 Alpha  occ. eigenvalues --  -11.27881 -11.27158 -11.27143 -11.26753 -11.26598
 Alpha  occ. eigenvalues --  -11.26566 -11.25797 -11.25690  -1.60260  -1.58716
 Alpha  occ. eigenvalues --   -1.39809  -1.38271  -1.19753  -1.18264  -1.09148
 Alpha  occ. eigenvalues --   -1.07698  -1.05150  -1.03691  -0.95982  -0.94522
 Alpha  occ. eigenvalues --   -0.86546  -0.85114  -0.82811  -0.81368  -0.77861
 Alpha  occ. eigenvalues --   -0.76378  -0.72438  -0.71594  -0.70940  -0.70850
 Alpha  occ. eigenvalues --   -0.70017  -0.69465  -0.65401  -0.65147  -0.63961
 Alpha  occ. eigenvalues --   -0.63762  -0.62492  -0.61054  -0.55646  -0.54301
 Alpha  occ. eigenvalues --   -0.53491  -0.53237  -0.52011  -0.51833  -0.49200
 Alpha  occ. eigenvalues --   -0.49184  -0.47704  -0.47671  -0.45208  -0.43684
 Alpha  occ. eigenvalues --   -0.37740  -0.36759  -0.36297  -0.35190
 Alpha virt. eigenvalues --    0.04633   0.06212   0.10895   0.12392   0.16148
 Alpha virt. eigenvalues --    0.17627   0.21067   0.22261   0.26974   0.27956
 Alpha virt. eigenvalues --    0.28165   0.29199   0.30637   0.31747   0.32184

 Mulliken charges:
               1
     1  C   -0.170794
     2  C   -0.218980
     3  C   -0.171955
     4  C    0.157103
     5  C   -0.171557
     6  C   -0.218652
     7  H    0.226548
     8  H    0.223749
     9  H    0.276536
    10  H    0.276384
    11  H    0.224588
    12  N    0.486279
    13  O   -0.460754
    14  O   -0.457008
    15  C   -0.172429
    16  C   -0.219997
    17  C   -0.148728
    18  C    0.159106
    19  C   -0.170957
    20  C   -0.220810
    21  H    0.218295
    22  H    0.218274
    23  H    0.281475
    24  H    0.271907
    25  H    0.216994
    26  N    0.488699
    27  O   -0.466527
    28  O   -0.456789
 Sum of Mulliken charges =  -0.00000

 Dipole moment (field-independent basis, Debye):
    X=             -7.2548    Y=              6.4327    Z=              1.4035  Tot=              9.7970
 Quadrupole moment (field-independent basis, Debye-Ang):
   XX=            -94.9132   YY=           -103.6292   ZZ=           -101.4563
   XY=              9.9096   XZ=              4.6080   YZ=             -4.4138

 Normal termination of Gaussian 16 at Fri May  7 08:04:15 2021.
