 Gaussian 16, Revision A.03,
 Gaussian 16:  EM64L-G16RevA.03 25-Dec-2016

 -------------
 #p 6-31g* mp2
 -------------

 ------------------------------------------------------
 Input file generated by CHIRIPA (05-May-2021 14:55:20)
 ------------------------------------------------------
 Symbolic Z-matrix:
 Charge =  0 Multiplicity = 1

                         Standard orientation:
 ---------------------------------------------------------------------
 Center     Atomic      Atomic             Coordinates (Angstroms)
 Number     Number       Type             X           Y           Z
 ---------------------------------------------------------------------
      1          6           0        2.345379    1.798476    1.059780
      2          6           0        2.880057    1.425017   -0.177624
      3          6           0        2.641314    0.149776   -0.698499
      4          6           0        1.859951   -0.730777    0.048084
      5          6           0        1.313318   -0.388294    1.283879
      6          6           0        1.565091    0.892226    1.785303
      7          1           0        2.535901    2.791164    1.456853
      8          1           0        3.486403    2.126754   -0.743270
      9          1           0        3.042963   -0.165464   -1.653863
     10          1           0        0.712727   -1.109618    1.824619
     11          1           0        1.148566    1.179521    2.746559
     12          7           0        1.600307   -2.083612   -0.493047
     13          8           0        0.908679   -2.840978    0.184215
     14          8           0        2.093343   -2.360982   -1.584202
     15          6           0       -2.942321    0.104529   -0.346104
     16          6           0       -2.978234   -1.030915    0.677352
     17          6           0       -3.996985   -2.114487    0.322650
     18          1           0       -3.942947    0.551348   -0.423839
     19          1           0       -2.707674   -0.310734   -1.336000
     20          1           0       -3.211379   -0.613451    1.665271
     21          1           0       -1.977360   -1.474958    0.752800
     22          1           0       -3.764318   -2.558171   -0.650803
     23          1           0       -5.005349   -1.691769    0.266851
     24          1           0       -4.006000   -2.916330    1.067516
     25          6           0       -1.928702    1.195474   -0.005304
     26          6           0       -1.892787    2.330917   -1.028760
     27          6           0       -0.874037    3.414488   -0.674058
     28          1           0       -2.163347    1.610738    0.984591
     29          1           0       -0.928074    0.748655    0.072431
     30          1           0       -2.893662    2.774960   -1.104208
     31          1           0       -1.659643    1.913454   -2.016679
     32          1           0        0.134327    2.991772   -0.618260
     33          1           0       -1.106704    3.858173    0.299395
     34          1           0       -0.865021    4.216333   -1.418924
 ---------------------------------------------------------------------

 SCF Done:  E(RHF) =  -669.534623626     A.U. after   15 cycles
 E2 =    -0.2095761676D+01 EUMP2 =    -0.67163038530189D+03

 The electronic state is 1-A.
 Alpha  occ. eigenvalues --  -20.60968 -20.60962 -15.86000 -11.31346 -11.27931
 Alpha  occ. eigenvalues --  -11.27882 -11.27639 -11.26933 -11.26871 -11.21652
 Alpha  occ. eigenvalues --  -11.21331 -11.21270 -11.21243 -11.21173 -11.20680
 Alpha  occ. eigenvalues --   -1.60029  -1.39583  -1.19543  -1.08927  -1.08325
 Alpha  occ. eigenvalues --   -1.04930  -1.03419  -0.95898  -0.95741  -0.86902
 Alpha  occ. eigenvalues --   -0.86319  -0.82583  -0.79515  -0.78171  -0.77623
 Alpha  occ. eigenvalues --   -0.72217  -0.71350  -0.70621  -0.65176  -0.65006
 Alpha  occ. eigenvalues --   -0.64878  -0.62266  -0.60824  -0.59267  -0.57500
 Alpha  occ. eigenvalues --   -0.55411  -0.55188  -0.53393  -0.53003  -0.52567
 Alpha  occ. eigenvalues --   -0.52331  -0.49849  -0.48982  -0.48976  -0.47795
 Alpha  occ. eigenvalues --   -0.46501  -0.45673  -0.45592  -0.44896  -0.43667
 Alpha  occ. eigenvalues --   -0.37459  -0.36422
 Alpha virt. eigenvalues --    0.04851   0.10984   0.16322   0.21035   0.23057
 Alpha virt. eigenvalues --    0.24160   0.26273   0.26658   0.27795   0.27942
 Alpha virt. eigenvalues --    0.28720   0.30494   0.31540   0.31569   0.32200

 Mulliken charges:
               1
     1  C   -0.169848
     2  C   -0.219079
     3  C   -0.171557
     4  C    0.161385
     5  C   -0.178312
     6  C   -0.212136
     7  H    0.227711
     8  H    0.224984
     9  H    0.276316
    10  H    0.277952
    11  H    0.225118
    12  N    0.488338
    13  O   -0.460721
    14  O   -0.459098
    15  C   -0.297954
    16  C   -0.306034
    17  C   -0.474648
    18  H    0.148245
    19  H    0.152424
    20  H    0.145815
    21  H    0.160219
    22  H    0.159888
    23  H    0.152241
    24  H    0.161347
    25  C   -0.305956
    26  C   -0.297662
    27  C   -0.481609
    28  H    0.142539
    29  H    0.159265
    30  H    0.151689
    31  H    0.153065
    32  H    0.157682
    33  H    0.149923
    34  H    0.158468
 Sum of Mulliken charges =  -0.00000

 Dipole moment (field-independent basis, Debye):
    X=              1.1096    Y=              4.6033    Z=              1.9031  Tot=              5.1032
 Quadrupole moment (field-independent basis, Debye-Ang):
   XX=            -90.5080   YY=           -102.9460   ZZ=            -91.2163
   XY=              8.4969   XZ=              0.8568   YZ=             -1.8465

 Normal termination of Gaussian 16 at Thu May  6 19:05:22 2021.
