 Gaussian 16, Revision A.03,
 Gaussian 16:  EM64L-G16RevA.03 25-Dec-2016

 -------------
 #p 6-31g* mp2
 -------------

 ------------------------------------------------------
 Input file generated by CHIRIPA (05-May-2021 14:51:13)
 ------------------------------------------------------
 Symbolic Z-matrix:
 Charge =  0 Multiplicity = 1

                         Standard orientation:
 ---------------------------------------------------------------------
 Center     Atomic      Atomic             Coordinates (Angstroms)
 Number     Number       Type             X           Y           Z
 ---------------------------------------------------------------------
      1          6           0        1.862992   -1.319066    0.192753
      2          6           0        1.193249   -1.492233    1.556367
      3          6           0        0.167528   -2.626015    1.571471
      4          1           0        1.091688   -1.127774   -0.565827
      5          1           0        2.352461   -2.261371   -0.089872
      6          1           0        0.706363   -0.549459    1.836965
      7          1           0        1.966254   -1.682945    2.311820
      8          1           0        0.642701   -3.578814    1.316550
      9          1           0       -0.624348   -2.438888    0.838997
     10          1           0       -0.299022   -2.732223    2.555804
     11          6           0        2.890956   -0.189438    0.161783
     12          6           0        3.560698   -0.016271   -1.201831
     13          6           0        4.586420    1.117510   -1.216935
     14          1           0        2.401487    0.752866    0.444408
     15          1           0        3.662260   -0.380730    0.920363
     16          1           0        2.787694    0.174440   -1.957284
     17          1           0        4.047584   -0.959045   -1.482429
     18          1           0        5.378295    0.930384   -0.484461
     19          1           0        4.111246    2.070310   -0.962014
     20          1           0        5.052969    1.223719   -2.201268
     21          6           0       -2.335865    0.017278   -0.373763
     22          6           0       -3.643067   -0.531348   -0.946666
     23          6           0       -3.545027   -2.006922   -1.335074
     24          1           0       -1.534311   -0.116267   -1.113101
     25          1           0       -2.051583   -0.576337    0.506123
     26          1           0       -3.925523    0.063996   -1.824391
     27          1           0       -4.441644   -0.396307   -0.205954
     28          1           0       -3.286990   -2.618186   -0.464227
     29          1           0       -2.767937   -2.155267   -2.091860
     30          1           0       -4.490508   -2.378551   -1.742284
     31          6           0       -2.418083    1.491227    0.019227
     32          6           0       -1.110880    2.039851    0.592131
     33          6           0       -1.208920    3.515427    0.980538
     34          1           0       -2.702365    2.084842   -0.860659
     35          1           0       -3.219638    1.624771    0.758565
     36          1           0       -0.312304    1.904812   -0.148581
     37          1           0       -0.828424    1.444507    1.469855
     38          1           0       -1.986010    3.663770    1.737324
     39          1           0       -1.466958    4.126690    0.109691
     40          1           0       -0.263440    3.887056    1.387749
 ---------------------------------------------------------------------

 SCF Done:  E(RHF) =  -470.732692870     A.U. after   11 cycles
 E2 =    -0.1585141758D+01 EUMP2 =    -0.47231783462757D+03

 The electronic state is 1-A.
 Alpha  occ. eigenvalues --  -11.21707 -11.21663 -11.21581 -11.21513 -11.21484
 Alpha  occ. eigenvalues --  -11.21421 -11.21338 -11.21275 -11.21150 -11.21123
 Alpha  occ. eigenvalues --  -11.21058 -11.20975  -1.08538  -1.08356  -1.03613
 Alpha  occ. eigenvalues --   -1.03482  -0.96058  -0.95930  -0.87077  -0.86947
 Alpha  occ. eigenvalues --   -0.79723  -0.79513  -0.78363  -0.78179  -0.65190
 Alpha  occ. eigenvalues --   -0.64985  -0.61013  -0.60892  -0.59454  -0.59283
 Alpha  occ. eigenvalues --   -0.57671  -0.57540  -0.55400  -0.55182  -0.52747
 Alpha  occ. eigenvalues --   -0.52634  -0.52480  -0.52362  -0.50096  -0.49818
 Alpha  occ. eigenvalues --   -0.48054  -0.47911  -0.46873  -0.46396  -0.46108
 Alpha  occ. eigenvalues --   -0.45817  -0.45515  -0.45368  -0.43862  -0.43731
 Alpha virt. eigenvalues --    0.19998   0.22341   0.23582   0.23777   0.25139
 Alpha virt. eigenvalues --    0.25791   0.27308   0.27559   0.28753   0.29792
 Alpha virt. eigenvalues --    0.30422   0.31353   0.31701   0.31815   0.32286

 Mulliken charges:
               1
     1  C   -0.300172
     2  C   -0.304488
     3  C   -0.482320
     4  H    0.152448
     5  H    0.149093
     6  H    0.156922
     7  H    0.151517
     8  H    0.155106
     9  H    0.161782
    10  H    0.158574
    11  C   -0.300622
    12  C   -0.299470
    13  C   -0.475620
    14  H    0.151889
    15  H    0.149378
    16  H    0.151011
    17  H    0.151953
    18  H    0.155240
    19  H    0.154988
    20  H    0.160084
    21  C   -0.306666
    22  C   -0.299368
    23  C   -0.478002
    24  H    0.150584
    25  H    0.157222
    26  H    0.152081
    27  H    0.152197
    28  H    0.157125
    29  H    0.155283
    30  H    0.160857
    31  C   -0.297730
    32  C   -0.305970
    33  C   -0.475522
    34  H    0.149794
    35  H    0.150013
    36  H    0.153059
    37  H    0.156210
    38  H    0.155596
    39  H    0.155506
    40  H    0.160438
 Sum of Mulliken charges =  -0.00000

 Dipole moment (field-independent basis, Debye):
    X=             -0.0641    Y=              0.0273    Z=             -0.0043  Tot=              0.0698
 Quadrupole moment (field-independent basis, Debye-Ang):
   XX=            -84.7019   YY=            -86.0643   ZZ=            -84.0090
   XY=             -1.0659   XZ=              0.0064   YZ=             -0.5588

 Normal termination of Gaussian 16 at Thu May  6 07:08:19 2021.
