 Gaussian 16, Revision A.03,
 Gaussian 16:  EM64L-G16RevA.03 25-Dec-2016

 -------------
 #p 6-31g* mp2
 -------------

 ------------------------------------------------------
 Input file generated by CHIRIPA (05-May-2021 14:55:19)
 ------------------------------------------------------
 Symbolic Z-matrix:
 Charge =  0 Multiplicity = 1

                         Standard orientation:
 ---------------------------------------------------------------------
 Center     Atomic      Atomic             Coordinates (Angstroms)
 Number     Number       Type             X           Y           Z
 ---------------------------------------------------------------------
      1          6           0        0.443137   -0.769248    0.391635
      2          6           0        1.442472   -1.454403    1.090499
      3          6           0        2.790488   -1.143271    0.889009
      4          6           0        3.104812   -0.136863   -0.022929
      5          6           0        2.132066    0.563752   -0.734403
      6          6           0        0.790511    0.235871   -0.516984
      7          1           0       -0.601525   -1.017448    0.554344
      8          1           0        1.175635   -2.235453    1.796760
      9          1           0        3.584361   -1.657833    1.416655
     10          1           0        2.429028    1.337484   -1.431949
     11          1           0        0.016533    0.769635   -1.061135
     12          7           0        4.528476    0.201385   -0.244669
     13          8           0        4.779253    1.092133   -1.053567
     14          8           0        5.366610   -0.430650    0.394628
     15          6           0       -3.186322    0.795444    0.193471
     16          6           0       -3.800155    2.195568    0.164405
     17          6           0       -2.812590    3.282927    0.588859
     18          1           0       -2.819199    0.583931    1.207093
     19          1           0       -2.308928    0.773535   -0.467659
     20          1           0       -4.676947    2.214449    0.824326
     21          1           0       -4.166032    2.403698   -0.849219
     22          1           0       -1.942034    3.293081   -0.074940
     23          1           0       -2.455852    3.102757    1.608112
     24          1           0       -3.272200    4.275818    0.560824
     25          6           0       -4.161325   -0.302363   -0.228329
     26          6           0       -3.547492   -1.702487   -0.199263
     27          6           0       -4.535057   -2.789846   -0.623716
     28          1           0       -5.038720   -0.280453    0.432802
     29          1           0       -4.528448   -0.090850   -1.241950
     30          1           0       -3.181616   -1.910617    0.814361
     31          1           0       -2.670700   -1.721369   -0.859183
     32          1           0       -4.891795   -2.609676   -1.642970
     33          1           0       -5.405613   -2.800000    0.040083
     34          1           0       -4.075447   -3.782736   -0.595681
 ---------------------------------------------------------------------

 SCF Done:  E(RHF) =  -669.534880740     A.U. after   15 cycles
 E2 =    -0.2093054500D+01 EUMP2 =    -0.67162793523952D+03

 The electronic state is 1-A.
 Alpha  occ. eigenvalues --  -20.60673 -20.60668 -15.85727 -11.31060 -11.27638
 Alpha  occ. eigenvalues --  -11.27635 -11.27264 -11.26621 -11.26607 -11.22910
 Alpha  occ. eigenvalues --  -11.22730 -11.22584 -11.22527 -11.22056 -11.21922
 Alpha  occ. eigenvalues --   -1.59750  -1.39304  -1.19228  -1.09634  -1.08614
 Alpha  occ. eigenvalues --   -1.04641  -1.04602  -0.97031  -0.95460  -0.88044
 Alpha  occ. eigenvalues --   -0.86036  -0.82309  -0.80700  -0.79524  -0.77360
 Alpha  occ. eigenvalues --   -0.71945  -0.71074  -0.70303  -0.66285  -0.64873
 Alpha  occ. eigenvalues --   -0.64640  -0.62072  -0.61922  -0.60412  -0.58658
 Alpha  occ. eigenvalues --   -0.56307  -0.55135  -0.53664  -0.53463  -0.52954
 Alpha  occ. eigenvalues --   -0.52738  -0.50964  -0.49001  -0.48702  -0.48693
 Alpha  occ. eigenvalues --   -0.47726  -0.46925  -0.46916  -0.44887  -0.44717
 Alpha  occ. eigenvalues --   -0.37181  -0.36246
 Alpha virt. eigenvalues --    0.05168   0.11377   0.16614   0.19456   0.22439
 Alpha virt. eigenvalues --    0.22675   0.24426   0.25327   0.26789   0.28136
 Alpha virt. eigenvalues --    0.29681   0.30085   0.31012   0.31493   0.31797

 Mulliken charges:
               1
     1  C   -0.177633
     2  C   -0.221371
     3  C   -0.170652
     4  C    0.158045
     5  C   -0.170801
     6  C   -0.225420
     7  H    0.239858
     8  H    0.222977
     9  H    0.274990
    10  H    0.275082
    11  H    0.225709
    12  N    0.487997
    13  O   -0.460865
    14  O   -0.460825
    15  C   -0.306525
    16  C   -0.300374
    17  C   -0.476048
    18  H    0.150038
    19  H    0.143465
    20  H    0.156013
    21  H    0.154524
    22  H    0.151984
    23  H    0.157856
    24  H    0.164925
    25  C   -0.296770
    26  C   -0.307307
    27  C   -0.475304
    28  H    0.154440
    29  H    0.153654
    30  H    0.148246
    31  H    0.149975
    32  H    0.158858
    33  H    0.158534
    34  H    0.162725
 Sum of Mulliken charges =  -0.00000

 Dipole moment (field-independent basis, Debye):
    X=             -5.3830    Y=             -1.1518    Z=              0.7969  Tot=              5.5623
 Quadrupole moment (field-independent basis, Debye-Ang):
   XX=           -125.1854   YY=            -92.6713   ZZ=            -92.1624
   XY=             -4.6417   XZ=              3.1780   YZ=             -2.9889

 Normal termination of Gaussian 16 at Thu May  6 15:42:58 2021.
