 Gaussian 16, Revision A.03,
 Gaussian 16:  EM64L-G16RevA.03 25-Dec-2016

 -------------
 #p 6-31g* mp2
 -------------

 ------------------------------------------------------
 Input file generated by CHIRIPA (05-May-2021 14:51:09)
 ------------------------------------------------------
 Symbolic Z-matrix:
 Charge =  0 Multiplicity = 1

                         Standard orientation:
 ---------------------------------------------------------------------
 Center     Atomic      Atomic             Coordinates (Angstroms)
 Number     Number       Type             X           Y           Z
 ---------------------------------------------------------------------
      1          6           0        1.957210   -1.329983   -0.279792
      2          6           0        1.554991   -2.445196    0.685872
      3          6           0        0.545117   -3.418558    0.077174
      4          1           0        1.057938   -0.780784   -0.590656
      5          1           0        2.380405   -1.777389   -1.189807
      6          1           0        1.133954   -1.995779    1.594370
      7          1           0        2.455347   -2.991683    0.994622
      8          1           0        0.959431   -3.893855   -0.817833
      9          1           0       -0.369470   -2.892293   -0.214678
     10          1           0        0.271467   -4.207624    0.784529
     11          6           0        2.966284   -0.348883    0.314295
     12          6           0        3.368503    0.766330   -0.651368
     13          6           0        4.378377    1.739693   -0.042670
     14          1           0        2.543089    0.098524    1.224311
     15          1           0        3.865555   -0.898082    0.625159
     16          1           0        2.468146    1.312817   -0.960119
     17          1           0        3.789539    0.316914   -1.559867
     18          1           0        5.292963    1.213428    0.249181
     19          1           0        3.964062    2.214989    0.852337
     20          1           0        4.652026    2.528759   -0.750025
     21          6           0       -2.338517    1.476131    0.386310
     22          6           0       -1.559357    2.541792   -0.385222
     23          6           0       -1.320711    3.809634    0.435397
     24          1           0       -3.302720    1.895052    0.705313
     25          1           0       -1.789179    1.222377    1.303497
     26          1           0       -2.109315    2.792457   -1.301371
     27          1           0       -0.596978    2.120224   -0.702590
     28          1           0       -0.751801    3.580194    1.342205
     29          1           0       -2.272730    4.256248    0.740022
     30          1           0       -0.762089    4.558033   -0.135305
     31          6           0       -2.584977    0.202735   -0.420814
     32          6           0       -3.364136   -0.862925    0.350719
     33          6           0       -3.602783   -2.130768   -0.469901
     34          1           0       -3.134314    0.456489   -1.338001
     35          1           0       -1.620774   -0.216187   -0.739817
     36          1           0       -4.326515   -0.441357    0.668086
     37          1           0       -2.814178   -1.113591    1.266868
     38          1           0       -2.650763   -2.577382   -0.774525
     39          1           0       -4.171693   -1.901329   -1.376709
     40          1           0       -4.161405   -2.879166    0.100801
 ---------------------------------------------------------------------

 SCF Done:  E(RHF) =  -470.733222929     A.U. after   11 cycles
 E2 =    -0.1584068071D+01 EUMP2 =    -0.47231729099974D+03

 The electronic state is 1-A.
 Alpha  occ. eigenvalues --  -11.21669 -11.21663 -11.21650 -11.21636 -11.21469
 Alpha  occ. eigenvalues --  -11.21465 -11.21408 -11.21406 -11.21120 -11.21114
 Alpha  occ. eigenvalues --  -11.21099 -11.21063  -1.08509  -1.08466  -1.03605
 Alpha  occ. eigenvalues --   -1.03551  -0.96060  -0.95992  -0.87082  -0.87003
 Alpha  occ. eigenvalues --   -0.79692  -0.79590  -0.78373  -0.78232  -0.65332
 Alpha  occ. eigenvalues --   -0.64923  -0.61203  -0.60772  -0.59419  -0.59362
 Alpha  occ. eigenvalues --   -0.57706  -0.57577  -0.55553  -0.55097  -0.52726
 Alpha  occ. eigenvalues --   -0.52703  -0.52546  -0.52351  -0.50163  -0.49754
 Alpha  occ. eigenvalues --   -0.48097  -0.47844  -0.46868  -0.46478  -0.46209
 Alpha  occ. eigenvalues --   -0.45817  -0.45785  -0.45335  -0.43838  -0.43827
 Alpha virt. eigenvalues --    0.18758   0.21759   0.24141   0.24685   0.25124
 Alpha virt. eigenvalues --    0.26583   0.26722   0.27657   0.28538   0.29306
 Alpha virt. eigenvalues --    0.31167   0.31459   0.31616   0.31689   0.31822

 Mulliken charges:
               1
     1  C   -0.303778
     2  C   -0.298932
     3  C   -0.483528
     4  H    0.153361
     5  H    0.150090
     6  H    0.151509
     7  H    0.152420
     8  H    0.155642
     9  H    0.161816
    10  H    0.160909
    11  C   -0.297902
    12  C   -0.301449
    13  C   -0.475668
    14  H    0.149277
    15  H    0.150069
    16  H    0.153066
    17  H    0.152255
    18  H    0.155289
    19  H    0.155332
    20  H    0.160510
    21  C   -0.297842
    22  C   -0.301861
    23  C   -0.475617
    24  H    0.150173
    25  H    0.149160
    26  H    0.152469
    27  H    0.152663
    28  H    0.154988
    29  H    0.155489
    30  H    0.160580
    31  C   -0.304433
    32  C   -0.299646
    33  C   -0.481110
    34  H    0.150177
    35  H    0.153667
    36  H    0.152357
    37  H    0.152025
    38  H    0.160450
    39  H    0.155339
    40  H    0.160684
 Sum of Mulliken charges =  -0.00000

 Dipole moment (field-independent basis, Debye):
    X=             -0.0001    Y=             -0.0054    Z=             -0.0061  Tot=              0.0082
 Quadrupole moment (field-independent basis, Debye-Ang):
   XX=            -83.8783   YY=            -85.7824   ZZ=            -84.8524
   XY=             -1.6420   XZ=             -0.2982   YZ=             -0.6212

 Normal termination of Gaussian 16 at Thu May  6 03:45:39 2021.
