 Gaussian 16, Revision A.03,
 Gaussian 16:  EM64L-G16RevA.03 25-Dec-2016

 -------------
 #p 6-31g* mp2
 -------------

 ------------------------------------------------------
 Input file generated by CHIRIPA (05-May-2021 14:55:19)
 ------------------------------------------------------
 Symbolic Z-matrix:
 Charge =  0 Multiplicity = 1

                         Standard orientation:
 ---------------------------------------------------------------------
 Center     Atomic      Atomic             Coordinates (Angstroms)
 Number     Number       Type             X           Y           Z
 ---------------------------------------------------------------------
      1          6           0       -1.258903    2.673072   -0.866890
      2          6           0       -2.146396    1.787708   -1.487378
      3          6           0       -2.531148    0.604637   -0.849523
      4          6           0       -2.006728    0.337248    0.414114
      5          6           0       -1.120693    1.199361    1.058313
      6          6           0       -0.749781    2.376596    0.401739
      7          1           0       -0.965394    3.589843   -1.369662
      8          1           0       -2.543375    2.015366   -2.472581
      9          1           0       -3.216625   -0.098428   -1.306949
     10          1           0       -0.741697    0.945135    2.040733
     11          1           0       -0.060375    3.062332    0.886021
     12          7           0       -2.406722   -0.912127    1.099291
     13          8           0       -1.930581   -1.124661    2.212285
     14          8           0       -3.188803   -1.655196    0.510365
     15          6           0        1.945731   -0.765121   -0.922707
     16          6           0        1.052000   -1.990652   -0.729570
     17          6           0       -0.020390   -2.116758   -1.812100
     18          1           0        1.321316    0.138764   -0.929331
     19          1           0        2.424838   -0.821290   -1.909973
     20          1           0        0.575796   -1.932883    0.257602
     21          1           0        1.678636   -2.891710   -0.723212
     22          1           0        0.439514   -2.199487   -2.802173
     23          1           0       -0.669591   -1.235211   -1.815787
     24          1           0       -0.647894   -2.999547   -1.654673
     25          6           0        3.022729   -0.625370    0.151665
     26          6           0        3.916459    0.600163   -0.041471
     27          6           0        4.988849    0.726268    1.041058
     28          1           0        2.543622   -0.569199    1.138932
     29          1           0        3.647144   -1.529254    0.158290
     30          1           0        3.289824    1.501220   -0.047830
     31          1           0        4.392663    0.542393   -1.028644
     32          1           0        5.638051   -0.155279    1.044745
     33          1           0        4.528946    0.808997    2.031131
     34          1           0        5.616353    1.609058    0.883632
 ---------------------------------------------------------------------

 SCF Done:  E(RHF) =  -669.535101612     A.U. after   15 cycles
 E2 =    -0.2095621334D+01 EUMP2 =    -0.67163072294637D+03

 The electronic state is 1-A.
 Alpha  occ. eigenvalues --  -20.60921 -20.60903 -15.85948 -11.31317 -11.27925
 Alpha  occ. eigenvalues --  -11.27882 -11.27663 -11.26942 -11.26916 -11.21789
 Alpha  occ. eigenvalues --  -11.21387 -11.21315 -11.21252 -11.21219 -11.20688
 Alpha  occ. eigenvalues --   -1.59975  -1.39529  -1.19532  -1.08909  -1.08383
 Alpha  occ. eigenvalues --   -1.04936  -1.03475  -0.95922  -0.95737  -0.86948
 Alpha  occ. eigenvalues --   -0.86314  -0.82568  -0.79551  -0.78175  -0.77612
 Alpha  occ. eigenvalues --   -0.72170  -0.71321  -0.70622  -0.65174  -0.65040
 Alpha  occ. eigenvalues --   -0.64916  -0.62273  -0.60915  -0.59287  -0.57518
 Alpha  occ. eigenvalues --   -0.55436  -0.55254  -0.53272  -0.53009  -0.52591
 Alpha  occ. eigenvalues --   -0.52329  -0.49915  -0.48932  -0.48928  -0.47847
 Alpha  occ. eigenvalues --   -0.46629  -0.45711  -0.45621  -0.44839  -0.43701
 Alpha  occ. eigenvalues --   -0.37465  -0.36466
 Alpha virt. eigenvalues --    0.04889   0.11037   0.16373   0.21011   0.22782
 Alpha virt. eigenvalues --    0.24137   0.26277   0.27080   0.27325   0.28298
 Alpha virt. eigenvalues --    0.28375   0.30565   0.31660   0.31712   0.32128

 Mulliken charges:
               1
     1  C   -0.170529
     2  C   -0.216834
     3  C   -0.176195
     4  C    0.163650
     5  C   -0.171413
     6  C   -0.218847
     7  H    0.226818
     8  H    0.224800
     9  H    0.277442
    10  H    0.276189
    11  H    0.224599
    12  N    0.489709
    13  O   -0.460599
    14  O   -0.458573
    15  C   -0.302168
    16  C   -0.303737
    17  C   -0.483870
    18  H    0.151006
    19  H    0.147231
    20  H    0.156887
    21  H    0.153314
    22  H    0.151356
    23  H    0.153989
    24  H    0.169416
    25  C   -0.298079
    26  C   -0.298356
    27  C   -0.475485
    28  H    0.149115
    29  H    0.151468
    30  H    0.144940
    31  H    0.152218
    32  H    0.157357
    33  H    0.154319
    34  H    0.158861
 Sum of Mulliken charges =  -0.00000

 Dipole moment (field-independent basis, Debye):
    X=              1.2441    Y=              4.3875    Z=             -2.3670  Tot=              5.1382
 Quadrupole moment (field-independent basis, Debye-Ang):
   XX=            -99.5344   YY=            -91.5706   ZZ=            -94.3476
   XY=             -8.3185   XZ=              7.2584   YZ=              2.0872

 Normal termination of Gaussian 16 at Thu May  6 12:24:54 2021.
