 Gaussian 16, Revision A.03,
 Gaussian 16:  EM64L-G16RevA.03 25-Dec-2016

 -------------
 #p 6-31g* mp2
 -------------

 ------------------------------------------------------
 Input file generated by CHIRIPA (05-May-2021 14:51:09)
 ------------------------------------------------------
 Symbolic Z-matrix:
 Charge =  0 Multiplicity = 1

                         Standard orientation:
 ---------------------------------------------------------------------
 Center     Atomic      Atomic             Coordinates (Angstroms)
 Number     Number       Type             X           Y           Z
 ---------------------------------------------------------------------
      1          6           0       -2.752291   -0.302033    0.112574
      2          6           0       -2.807208    0.362862   -1.263247
      3          6           0       -4.121870    1.103587   -1.509788
      4          1           0       -3.593063   -1.002708    0.207977
      5          1           0       -2.893879    0.463529    0.887986
      6          1           0       -2.664177   -0.403519   -2.035786
      7          1           0       -1.966097    1.061895   -1.355457
      8          1           0       -4.268212    1.888402   -0.760621
      9          1           0       -4.970258    0.414662   -1.444816
     10          1           0       -4.139694    1.571369   -2.499092
     11          6           0       -1.444151   -1.046497    0.373863
     12          6           0       -1.389235   -1.711392    1.749684
     13          6           0       -0.074572   -2.452117    1.996226
     14          1           0       -1.302563   -1.812059   -0.401548
     15          1           0       -0.603379   -0.345821    0.278461
     16          1           0       -2.230345   -2.410425    1.841895
     17          1           0       -1.532266   -0.945011    2.522224
     18          1           0        0.773815   -1.763191    1.931253
     19          1           0        0.071770   -3.236931    1.247059
     20          1           0       -0.056749   -2.919899    2.985530
     21          6           0        2.035464    1.073623    0.404860
     22          6           0        1.395422    2.448567    0.210279
     23          6           0        1.276747    3.235492    1.515828
     24          1           0        1.441396    0.498768    1.128441
     25          1           0        3.032260    1.200519    0.849484
     26          1           0        0.400689    2.319194   -0.235125
     27          1           0        1.990977    3.020145   -0.513067
     28          1           0        2.264213    3.393920    1.961263
     29          1           0        0.664889    2.688986    2.240784
     30          1           0        0.816582    4.215189    1.353654
     31          6           0        2.160978    0.274906   -0.891298
     32          6           0        2.801020   -1.100037   -0.696716
     33          6           0        2.919695   -1.886962   -2.002266
     34          1           0        1.164182    0.148011   -1.335921
     35          1           0        2.755047    0.849762   -1.614878
     36          1           0        2.205465   -1.671615    0.026630
     37          1           0        3.795754   -0.970664   -0.251313
     38          1           0        3.531553   -1.340456   -2.727222
     39          1           0        1.932229   -2.045390   -2.447700
     40          1           0        3.379861   -2.866660   -1.840092
 ---------------------------------------------------------------------

 SCF Done:  E(RHF) =  -470.731472044     A.U. after   11 cycles
 E2 =    -0.1586691792D+01 EUMP2 =    -0.47231816383575D+03

 The electronic state is 1-A.
 Alpha  occ. eigenvalues --  -11.21682 -11.21680 -11.21678 -11.21486 -11.21458
 Alpha  occ. eigenvalues --  -11.21422 -11.21391 -11.21313 -11.21138 -11.21134
 Alpha  occ. eigenvalues --  -11.21120 -11.21013  -1.08585  -1.08379  -1.03618
 Alpha  occ. eigenvalues --   -1.03523  -0.96068  -0.95980  -0.87081  -0.86998
 Alpha  occ. eigenvalues --   -0.79697  -0.79596  -0.78357  -0.78256  -0.65658
 Alpha  occ. eigenvalues --   -0.64648  -0.61020  -0.60938  -0.59423  -0.59343
 Alpha  occ. eigenvalues --   -0.57690  -0.57594  -0.55432  -0.55229  -0.52743
 Alpha  occ. eigenvalues --   -0.52697  -0.52530  -0.52369  -0.50023  -0.49942
 Alpha  occ. eigenvalues --   -0.48154  -0.47825  -0.46863  -0.46562  -0.46337
 Alpha  occ. eigenvalues --   -0.45792  -0.45558  -0.45109  -0.43852  -0.43774
 Alpha virt. eigenvalues --    0.19574   0.22100   0.23541   0.24164   0.25130
 Alpha virt. eigenvalues --    0.26266   0.27125   0.27717   0.28817   0.30486
 Alpha virt. eigenvalues --    0.30971   0.31433   0.31739   0.31897   0.32344

 Mulliken charges:
               1
     1  C   -0.297141
     2  C   -0.303744
     3  C   -0.475622
     4  H    0.149994
     5  H    0.149382
     6  H    0.152102
     7  H    0.154344
     8  H    0.155421
     9  H    0.155503
    10  H    0.160590
    11  C   -0.310294
    12  C   -0.298998
    13  C   -0.483992
    14  H    0.149014
    15  H    0.162998
    16  H    0.152499
    17  H    0.151379
    18  H    0.162300
    19  H    0.155774
    20  H    0.161228
    21  C   -0.306860
    22  C   -0.303280
    23  C   -0.475466
    24  H    0.153581
    25  H    0.151346
    26  H    0.153787
    27  H    0.153029
    28  H    0.155736
    29  H    0.154566
    30  H    0.160495
    31  C   -0.301944
    32  C   -0.307077
    33  C   -0.475480
    34  H    0.152714
    35  H    0.150155
    36  H    0.161082
    37  H    0.151103
    38  H    0.154772
    39  H    0.155092
    40  H    0.159913
 Sum of Mulliken charges =  -0.00000

 Dipole moment (field-independent basis, Debye):
    X=             -0.0177    Y=             -0.0076    Z=              0.0170  Tot=              0.0257
 Quadrupole moment (field-independent basis, Debye-Ang):
   XX=            -84.6279   YY=            -84.6598   ZZ=            -85.4710
   XY=              1.3619   XZ=             -0.0688   YZ=             -0.1715

 Normal termination of Gaussian 16 at Thu May  6 06:55:21 2021.
