 Gaussian 16, Revision A.03,
 Gaussian 16:  EM64L-G16RevA.03 25-Dec-2016

 -------------
 #p 6-31g* mp2
 -------------

 ------------------------------------------------------
 Input file generated by CHIRIPA (05-May-2021 14:55:21)
 ------------------------------------------------------
 Symbolic Z-matrix:
 Charge =  0 Multiplicity = 1

                         Standard orientation:
 ---------------------------------------------------------------------
 Center     Atomic      Atomic             Coordinates (Angstroms)
 Number     Number       Type             X           Y           Z
 ---------------------------------------------------------------------
      1          6           0       -1.801271    2.485535    0.097271
      2          6           0       -1.821673    1.714877    1.264400
      3          6           0       -2.463526    0.473030    1.284105
      4          6           0       -3.077595    0.030535    0.113461
      5          6           0       -3.074490    0.775171   -1.065012
      6          6           0       -2.426642    2.014053   -1.061667
      7          1           0       -1.300336    3.449080    0.090917
      8          1           0       -1.336835    2.078515    2.165924
      9          1           0       -2.494517   -0.144050    2.173864
     10          1           0       -3.566576    0.386117   -1.948135
     11          1           0       -2.412391    2.610411   -1.969521
     12          7           0       -3.760270   -1.282584    0.122120
     13          8           0       -4.293857   -1.649998   -0.922355
     14          8           0       -3.748835   -1.919528    1.173219
     15          6           0        4.509642   -0.353615   -0.411262
     16          6           0        5.567778    0.011577    0.630355
     17          6           0        6.991836   -0.068159    0.079452
     18          1           0        4.704523   -1.369212   -0.782110
     19          1           0        4.607886    0.318689   -1.274831
     20          1           0        5.466672   -0.660322    1.492297
     21          1           0        5.370243    1.026351    0.998906
     22          1           0        7.116183    0.614772   -0.767155
     23          1           0        7.213160   -1.081484   -0.270960
     24          1           0        7.732207    0.196848    0.840689
     25          6           0        3.080970   -0.278584    0.124456
     26          6           0        2.022833   -0.643776   -0.917162
     27          6           0        0.598775   -0.564039   -0.366258
     28          1           0        2.982726   -0.950888    0.988025
     29          1           0        2.886089    0.737014    0.495304
     30          1           0        2.220368   -1.658550   -1.285713
     31          1           0        2.123939    0.028124   -1.779104
     32          1           0        0.377452    0.449286   -0.015846
     33          1           0        0.474428   -1.246971    0.480348
     34          1           0       -0.141597   -0.829047   -1.127495
 ---------------------------------------------------------------------

 SCF Done:  E(RHF) =  -669.533873220     A.U. after   15 cycles
 E2 =    -0.2093929550D+01 EUMP2 =    -0.67162780277042D+03

 The electronic state is 1-A.
 Alpha  occ. eigenvalues --  -20.60778 -20.60773 -15.85830 -11.31202 -11.27774
 Alpha  occ. eigenvalues --  -11.27748 -11.27508 -11.26801 -11.26762 -11.21784
 Alpha  occ. eigenvalues --  -11.21643 -11.21568 -11.21511 -11.21230 -11.20915
 Alpha  occ. eigenvalues --   -1.59852  -1.39406  -1.19386  -1.08784  -1.08566
 Alpha  occ. eigenvalues --   -1.04789  -1.03625  -0.96075  -0.95611  -0.87098
 Alpha  occ. eigenvalues --   -0.86189  -0.82441  -0.79707  -0.78395  -0.77485
 Alpha  occ. eigenvalues --   -0.72050  -0.71172  -0.70497  -0.65206  -0.65036
 Alpha  occ. eigenvalues --   -0.64794  -0.62133  -0.61045  -0.59460  -0.57707
 Alpha  occ. eigenvalues --   -0.55479  -0.55294  -0.53606  -0.52882  -0.52630
 Alpha  occ. eigenvalues --   -0.52127  -0.49940  -0.48810  -0.48804  -0.48005
 Alpha  occ. eigenvalues --   -0.46721  -0.45920  -0.45863  -0.44807  -0.43884
 Alpha  occ. eigenvalues --   -0.37310  -0.36318
 Alpha virt. eigenvalues --    0.05038   0.11173   0.16523   0.21359   0.22733
 Alpha virt. eigenvalues --    0.24229   0.26498   0.27145   0.27450   0.27895
 Alpha virt. eigenvalues --    0.28290   0.30873   0.31350   0.31669   0.31853

 Mulliken charges:
               1
     1  C   -0.172038
     2  C   -0.219569
     3  C   -0.166417
     4  C    0.163070
     5  C   -0.172432
     6  C   -0.215303
     7  H    0.225485
     8  H    0.223667
     9  H    0.275555
    10  H    0.275597
    11  H    0.223500
    12  N    0.487604
    13  O   -0.460639
    14  O   -0.460346
    15  C   -0.298082
    16  C   -0.299476
    17  C   -0.475709
    18  H    0.151281
    19  H    0.148541
    20  H    0.152475
    21  H    0.149962
    22  H    0.154789
    23  H    0.156176
    24  H    0.160302
    25  C   -0.297422
    26  C   -0.300212
    27  C   -0.479502
    28  H    0.150234
    29  H    0.144553
    30  H    0.153489
    31  H    0.148648
    32  H    0.157668
    33  H    0.154065
    34  H    0.160486
 Sum of Mulliken charges =  -0.00000

 Dipole moment (field-independent basis, Debye):
    X=              2.3048    Y=              4.6315    Z=             -0.0079  Tot=              5.1732
 Quadrupole moment (field-independent basis, Debye-Ang):
   XX=           -111.3260   YY=            -94.0823   ZZ=            -90.2104
   XY=            -14.5981   XZ=              2.0411   YZ=             -0.4660

 Normal termination of Gaussian 16 at Thu May  6 10:55:18 2021.
