 Gaussian 16, Revision A.03,
 Gaussian 16:  EM64L-G16RevA.03 25-Dec-2016

 -------------
 #p 6-31g* mp2
 -------------

 ------------------------------------------------------
 Input file generated by CHIRIPA (05-May-2021 14:51:13)
 ------------------------------------------------------
 Symbolic Z-matrix:
 Charge =  0 Multiplicity = 1

                         Standard orientation:
 ---------------------------------------------------------------------
 Center     Atomic      Atomic             Coordinates (Angstroms)
 Number     Number       Type             X           Y           Z
 ---------------------------------------------------------------------
      1          6           0       -3.835392    0.097662    0.519261
      2          6           0       -4.358142   -1.142398   -0.206665
      3          6           0       -5.228693   -2.027049    0.686266
      4          1           0       -3.258974   -0.216668    1.400103
      5          1           0       -4.687708    0.680470    0.895143
      6          1           0       -3.505129   -1.721976   -0.582266
      7          1           0       -4.933221   -0.825084   -1.085990
      8          1           0       -6.097928   -1.469906    1.050442
      9          1           0       -4.661722   -2.371894    1.557028
     10          1           0       -5.591684   -2.907734    0.147292
     11          6           0       -2.963472    0.991995   -0.360314
     12          6           0       -2.440722    2.232055    0.365612
     13          6           0       -1.570171    3.116706   -0.527320
     14          1           0       -2.111156    0.409186   -0.736197
     15          1           0       -3.539890    1.306325   -1.241157
     16          1           0       -1.865643    1.914741    1.244936
     17          1           0       -3.293735    2.811633    0.741212
     18          1           0       -2.137142    3.461551   -1.398081
     19          1           0       -0.700936    2.559563   -0.891495
     20          1           0       -1.207180    3.997390    0.011654
     21          6           0        4.155975   -0.646368   -0.107112
     22          6           0        4.944366    0.487915    0.548502
     23          6           0        6.456474    0.270386    0.485212
     24          1           0        4.412348   -1.594636    0.384829
     25          1           0        4.469827   -0.743362   -1.155675
     26          1           0        4.628128    0.583649    1.595136
     27          1           0        4.685944    1.433620    0.055070
     28          1           0        6.791877    0.196548   -0.554334
     29          1           0        6.733733   -0.658253    0.994484
     30          1           0        7.000616    1.092994    0.959641
     31          6           0        2.642888   -0.443290   -0.051835
     32          6           0        1.854498   -1.577571   -0.707448
     33          6           0        0.342390   -1.360043   -0.644158
     34          1           0        2.329037   -0.346295    0.996729
     35          1           0        2.386516    0.504979   -0.543774
     36          1           0        2.112920   -2.523277   -0.214016
     37          1           0        2.170735   -1.673306   -1.754082
     38          1           0        0.065131   -0.431404   -1.153430
     39          1           0        0.006987   -1.286204    0.395386
     40          1           0       -0.201752   -2.182652   -1.118588
 ---------------------------------------------------------------------

 SCF Done:  E(RHF) =  -470.733102510     A.U. after   11 cycles
 E2 =    -0.1583241810D+01 EUMP2 =    -0.47231634432011D+03

 The electronic state is 1-A.
 Alpha  occ. eigenvalues --  -11.21689 -11.21634 -11.21524 -11.21520 -11.21468
 Alpha  occ. eigenvalues --  -11.21404 -11.21295 -11.21206 -11.21195 -11.21095
 Alpha  occ. eigenvalues --  -11.21043 -11.21015  -1.08495  -1.08334  -1.03602
 Alpha  occ. eigenvalues --   -1.03458  -0.96064  -0.95902  -0.87088  -0.86919
 Alpha  occ. eigenvalues --   -0.79688  -0.79511  -0.78321  -0.78126  -0.65131
 Alpha  occ. eigenvalues --   -0.64970  -0.61028  -0.60837  -0.59422  -0.59273
 Alpha  occ. eigenvalues --   -0.57676  -0.57511  -0.55359  -0.55198  -0.52762
 Alpha  occ. eigenvalues --   -0.52609  -0.52532  -0.52295  -0.50045  -0.49821
 Alpha  occ. eigenvalues --   -0.48070  -0.47800  -0.46760  -0.46506  -0.45961
 Alpha  occ. eigenvalues --   -0.45773  -0.45673  -0.45359  -0.43844  -0.43699
 Alpha virt. eigenvalues --    0.20761   0.22798   0.23525   0.24769   0.25593
 Alpha virt. eigenvalues --    0.26109   0.27051   0.27449   0.28106   0.29489
 Alpha virt. eigenvalues --    0.29919   0.31420   0.31771   0.31996   0.32108

 Mulliken charges:
               1
     1  C   -0.297299
     2  C   -0.300688
     3  C   -0.475601
     4  H    0.148993
     5  H    0.148924
     6  H    0.153277
     7  H    0.151581
     8  H    0.154985
     9  H    0.154944
    10  H    0.159899
    11  C   -0.307908
    12  C   -0.298912
    13  C   -0.476613
    14  H    0.161896
    15  H    0.148452
    16  H    0.151686
    17  H    0.151539
    18  H    0.155049
    19  H    0.154715
    20  H    0.160178
    21  C   -0.298346
    22  C   -0.299738
    23  C   -0.475757
    24  H    0.149799
    25  H    0.149727
    26  H    0.151983
    27  H    0.152209
    28  H    0.155266
    29  H    0.155199
    30  H    0.160423
    31  C   -0.298580
    32  C   -0.300230
    33  C   -0.479800
    34  H    0.149568
    35  H    0.149718
    36  H    0.152335
    37  H    0.152467
    38  H    0.157941
    39  H    0.155577
    40  H    0.161145
 Sum of Mulliken charges =  -0.00000

 Dipole moment (field-independent basis, Debye):
    X=              0.0610    Y=             -0.0290    Z=             -0.0142  Tot=              0.0691
 Quadrupole moment (field-independent basis, Debye-Ang):
   XX=            -85.9058   YY=            -84.8889   ZZ=            -84.1654
   XY=             -0.8618   XZ=              0.5393   YZ=             -0.1987

 Normal termination of Gaussian 16 at Wed May  5 23:13:28 2021.
