 Gaussian 16, Revision A.03,
 Gaussian 16:  EM64L-G16RevA.03 25-Dec-2016

 -------------
 #p 6-31g* mp2
 -------------

 ------------------------------------------------------
 Input file generated by CHIRIPA (05-May-2021 14:55:23)
 ------------------------------------------------------
 Symbolic Z-matrix:
 Charge =  0 Multiplicity = 1

                         Standard orientation:
 ---------------------------------------------------------------------
 Center     Atomic      Atomic             Coordinates (Angstroms)
 Number     Number       Type             X           Y           Z
 ---------------------------------------------------------------------
      1          6           0       -2.000119    2.688831    0.155612
      2          6           0       -3.100903    2.410712   -0.661361
      3          6           0       -3.644967    1.123633   -0.705762
      4          6           0       -3.060632    0.134152    0.083395
      5          6           0       -1.963480    0.380001    0.907473
      6          6           0       -1.435915    1.674376    0.936045
      7          1           0       -1.583885    3.691498    0.183956
      8          1           0       -3.541125    3.196586   -1.268528
      9          1           0       -4.496792    0.880751   -1.329316
     10          1           0       -1.546284   -0.424102    1.501430
     11          1           0       -0.580993    1.887476    1.571452
     12          7           0       -3.627874   -1.232283    0.044768
     13          8           0       -3.094805   -2.086538    0.749554
     14          8           0       -4.594807   -1.423166   -0.689563
     15          6           0        3.040537   -0.434027   -0.019530
     16          6           0        2.345982   -1.763248   -0.317440
     17          6           0        0.831036   -1.695435   -0.122163
     18          1           0        2.815578   -0.133377    1.012917
     19          1           0        2.620503    0.345162   -0.670552
     20          1           0        2.768170   -2.539987    0.332984
     21          1           0        2.572779   -2.060864   -1.349236
     22          1           0        0.390954   -0.940778   -0.782029
     23          1           0        0.587456   -1.422623    0.909750
     24          1           0        0.354694   -2.656311   -0.340508
     25          6           0        4.555350   -0.485926   -0.210258
     26          6           0        5.249905    0.843295    0.087652
     27          6           0        6.764852    0.775482   -0.107625
     28          1           0        4.975385   -1.265115    0.440764
     29          1           0        4.780310   -0.786576   -1.242705
     30          1           0        5.023109    1.140912    1.119447
     31          1           0        4.827717    1.620034   -0.562772
     32          1           0        7.008432    0.502670   -1.139538
     33          1           0        7.204933    0.020826    0.552240
     34          1           0        7.241192    1.736358    0.110720
 ---------------------------------------------------------------------

 SCF Done:  E(RHF) =  -669.534961265     A.U. after   15 cycles
 E2 =    -0.2092095427D+01 EUMP2 =    -0.67162705669225D+03

 The electronic state is 1-A.
 Alpha  occ. eigenvalues --  -20.60719 -20.60710 -15.85765 -11.31109 -11.27706
 Alpha  occ. eigenvalues --  -11.27665 -11.27453 -11.26707 -11.26687 -11.21901
 Alpha  occ. eigenvalues --  -11.21736 -11.21678 -11.21611 -11.21314 -11.21128
 Alpha  occ. eigenvalues --   -1.59788  -1.39342  -1.19301  -1.08696  -1.08674
 Alpha  occ. eigenvalues --   -1.04708  -1.03731  -0.96188  -0.95529  -0.87211
 Alpha  occ. eigenvalues --   -0.86093  -0.82366  -0.79814  -0.78511  -0.77400
 Alpha  occ. eigenvalues --   -0.71986  -0.71107  -0.70420  -0.65308  -0.64953
 Alpha  occ. eigenvalues --   -0.64711  -0.62086  -0.61120  -0.59532  -0.57798
 Alpha  occ. eigenvalues --   -0.55503  -0.55200  -0.53193  -0.52887  -0.52792
 Alpha  occ. eigenvalues --   -0.52399  -0.50130  -0.48745  -0.48739  -0.48105
 Alpha  occ. eigenvalues --   -0.46842  -0.46045  -0.45968  -0.44753  -0.43968
 Alpha  occ. eigenvalues --   -0.37287  -0.36258
 Alpha virt. eigenvalues --    0.05113   0.11323   0.16592   0.20877   0.22686
 Alpha virt. eigenvalues --    0.24051   0.25684   0.26733   0.27216   0.27990
 Alpha virt. eigenvalues --    0.28856   0.30508   0.31363   0.31657   0.31966

 Mulliken charges:
               1
     1  C   -0.170871
     2  C   -0.219154
     3  C   -0.171022
     4  C    0.156574
     5  C   -0.166817
     6  C   -0.220195
     7  H    0.225342
     8  H    0.223008
     9  H    0.275309
    10  H    0.278764
    11  H    0.223504
    12  N    0.488407
    13  O   -0.460529
    14  O   -0.460874
    15  C   -0.297725
    16  C   -0.300819
    17  C   -0.476677
    18  H    0.144298
    19  H    0.147862
    20  H    0.153649
    21  H    0.153708
    22  H    0.155548
    23  H    0.144235
    24  H    0.172985
    25  C   -0.298205
    26  C   -0.299487
    27  C   -0.475761
    28  H    0.150905
    29  H    0.151094
    30  H    0.150233
    31  H    0.150482
    32  H    0.156058
    33  H    0.156136
    34  H    0.160036
 Sum of Mulliken charges =  -0.00000

 Dipole moment (field-independent basis, Debye):
    X=              2.0273    Y=              4.7065    Z=              0.0836  Tot=              5.1253
 Quadrupole moment (field-independent basis, Debye-Ang):
   XX=           -106.3432   YY=            -93.2962   ZZ=            -92.1467
   XY=            -16.0313   XZ=              2.4848   YZ=             -0.9354

 Normal termination of Gaussian 16 at Thu May  6 20:51:53 2021.
