 Gaussian 16, Revision A.03,
 Gaussian 16:  EM64L-G16RevA.03 25-Dec-2016

 -------------
 #p 6-31g* mp2
 -------------

 ------------------------------------------------------
 Input file generated by CHIRIPA (05-May-2021 14:53:17)
 ------------------------------------------------------
 Symbolic Z-matrix:
 Charge =  0 Multiplicity = 1

                         Standard orientation:
 ---------------------------------------------------------------------
 Center     Atomic      Atomic             Coordinates (Angstroms)
 Number     Number       Type             X           Y           Z
 ---------------------------------------------------------------------
      1          6           0        2.798466   -1.155134   -0.521357
      2          6           0        1.286643   -1.030235   -0.329585
      3          6           0        0.512702   -2.185716   -0.964940
      4          1           0        3.022765   -1.201635   -1.595820
      5          1           0        3.138442   -2.106663   -0.089611
      6          1           0        0.949828   -0.078591   -0.760335
      7          1           0        1.065932   -0.983833    0.744543
      8          1           0        0.820389   -3.141501   -0.528585
      9          1           0        0.703625   -2.231115   -2.042014
     10          1           0       -0.566043   -2.076348   -0.815923
     11          6           0        3.585869   -0.007412    0.108293
     12          6           0        5.097692   -0.132311   -0.083479
     13          6           0        5.871632    1.023169    0.551876
     14          1           0        3.245892    0.944117   -0.323452
     15          1           0        3.361570    0.039089    1.182757
     16          1           0        5.318402   -0.178713   -1.157607
     17          1           0        5.434507   -1.083955    0.347271
     18          1           0        5.680709    1.068569    1.628950
     19          1           0        5.563945    1.978954    0.115521
     20          1           0        6.950378    0.913801    0.402859
     21          6           0       -1.576395    2.751642   -0.334161
     22          6           0       -1.247353    2.110022    0.864412
     23          6           0       -1.749936    0.836958    1.149484
     24          6           0       -2.582580    0.232004    0.209257
     25          6           0       -2.928677    0.845437   -0.993742
     26          6           0       -2.414529    2.118417   -1.257784
     27          1           0       -1.181484    3.740556   -0.547444
     28          1           0       -0.596670    2.599393    1.583559
     29          1           0       -1.511319    0.317447    2.069585
     30          1           0       -3.579658    0.332324   -1.691134
     31          1           0       -2.671756    2.614319   -2.189429
     32          7           0       -3.120764   -1.115688    0.499919
     33          8           0       -3.852341   -1.627308   -0.344874
     34          8           0       -2.800823   -1.634871    1.567029
 ---------------------------------------------------------------------

 SCF Done:  E(RHF) =  -669.535371639     A.U. after   15 cycles
 E2 =    -0.2093161789D+01 EUMP2 =    -0.67162853342806D+03

 The electronic state is 1-A.
 Alpha  occ. eigenvalues --  -20.60817 -20.60812 -15.85862 -11.31207 -11.27784
 Alpha  occ. eigenvalues --  -11.27781 -11.27535 -11.26800 -11.26785 -11.21769
 Alpha  occ. eigenvalues --  -11.21570 -11.21525 -11.21393 -11.21293 -11.20832
 Alpha  occ. eigenvalues --   -1.59898  -1.39447  -1.19392  -1.08794  -1.08510
 Alpha  occ. eigenvalues --   -1.04789  -1.03565  -0.96014  -0.95628  -0.87024
 Alpha  occ. eigenvalues --   -0.86189  -0.82456  -0.79638  -0.78332  -0.77505
 Alpha  occ. eigenvalues --   -0.72082  -0.71251  -0.70502  -0.65143  -0.65044
 Alpha  occ. eigenvalues --   -0.64791  -0.62139  -0.60955  -0.59400  -0.57650
 Alpha  occ. eigenvalues --   -0.55306  -0.55288  -0.53130  -0.52883  -0.52653
 Alpha  occ. eigenvalues --   -0.52437  -0.49948  -0.48842  -0.48839  -0.47953
 Alpha  occ. eigenvalues --   -0.46674  -0.45868  -0.45785  -0.44848  -0.43831
 Alpha  occ. eigenvalues --   -0.37362  -0.36350
 Alpha virt. eigenvalues --    0.05016   0.11224   0.16501   0.21263   0.22756
 Alpha virt. eigenvalues --    0.24046   0.26269   0.26942   0.27474   0.27891
 Alpha virt. eigenvalues --    0.28369   0.30631   0.31212   0.31606   0.31727

 Mulliken charges:
               1
     1  C   -0.298598
     2  C   -0.301766
     3  C   -0.474625
     4  H    0.149340
     5  H    0.151362
     6  H    0.151673
     7  H    0.149574
     8  H    0.159201
     9  H    0.153431
    10  H    0.161169
    11  C   -0.297326
    12  C   -0.299562
    13  C   -0.475562
    14  H    0.145782
    15  H    0.147656
    16  H    0.152285
    17  H    0.153534
    18  H    0.154634
    19  H    0.153147
    20  H    0.161159
    21  C   -0.171437
    22  C   -0.217868
    23  C   -0.167626
    24  C    0.155738
    25  C   -0.171526
    26  C   -0.218648
    27  H    0.225725
    28  H    0.223923
    29  H    0.275447
    30  H    0.275905
    31  H    0.223517
    32  N    0.490015
    33  O   -0.460025
    34  O   -0.459647
 Sum of Mulliken charges =  -0.00000

 Dipole moment (field-independent basis, Debye):
    X=              1.8526    Y=              4.7083    Z=             -1.0168  Tot=              5.1609
 Quadrupole moment (field-independent basis, Debye-Ang):
   XX=           -104.6579   YY=            -93.3256   ZZ=            -90.9451
   XY=            -12.6415   XZ=              5.2859   YZ=             -0.0661

 Normal termination of Gaussian 16 at Thu May  6 12:16:10 2021.
