 Gaussian 16, Revision A.03,
 Gaussian 16:  EM64L-G16RevA.03 25-Dec-2016

 -------------
 #p 6-31g* mp2
 -------------

 ------------------------------------------------------
 Input file generated by CHIRIPA (05-May-2021 14:57:25)
 ------------------------------------------------------
 Symbolic Z-matrix:
 Charge =  0 Multiplicity = 1

                         Standard orientation:
 ---------------------------------------------------------------------
 Center     Atomic      Atomic             Coordinates (Angstroms)
 Number     Number       Type             X           Y           Z
 ---------------------------------------------------------------------
      1          6           0        5.134339    2.304797   -0.096439
      2          6           0        5.716604    1.245932    0.608043
      3          6           0        5.113049   -0.015057    0.621306
      4          6           0        3.922315   -0.182597   -0.083942
      5          6           0        3.317664    0.852657   -0.795233
      6          6           0        3.938835    2.105132   -0.794597
      7          1           0        5.610038    3.281057   -0.101343
      8          1           0        6.645013    1.398091    1.151135
      9          1           0        5.542176   -0.852194    1.158399
     10          1           0        2.391812    0.670385   -1.327204
     11          1           0        3.484373    2.925637   -1.342576
     12          7           0        3.274034   -1.513043   -0.077258
     13          8           0        2.225306   -1.634819   -0.706526
     14          8           0        3.826913   -2.408879    0.557124
     15          6           0       -1.780834   -1.178983    0.163068
     16          6           0       -2.533600   -1.194992   -1.015748
     17          6           0       -3.780643   -0.565356   -1.070447
     18          6           0       -4.246520    0.073758    0.077501
     19          6           0       -3.520099    0.107101    1.266824
     20          6           0       -2.275614   -0.529134    1.298590
     21          1           0       -0.813095   -1.670663    0.196653
     22          1           0       -2.151853   -1.698902   -1.899144
     23          1           0       -4.384215   -0.562402   -1.969952
     24          1           0       -3.927040    0.617558    2.131261
     25          1           0       -1.693187   -0.515093    2.215447
     26          7           0       -5.565354    0.743818    0.031732
     27          8           0       -5.953508    1.300010    1.056732
     28          8           0       -6.185931    0.700132   -1.028275
 ---------------------------------------------------------------------

 SCF Done:  E(RHF) =  -868.340204393     A.U. after   16 cycles
 E2 =    -0.2598101962D+01 EUMP2 =    -0.87093830635536D+03

 The electronic state is 1-A.
 Alpha  occ. eigenvalues --  -20.61834 -20.61767 -20.60372 -20.60367 -15.86830
 Alpha  occ. eigenvalues --  -15.85422 -11.31922 -11.30633 -11.28463 -11.28444
 Alpha  occ. eigenvalues --  -11.28132 -11.27400 -11.27390 -11.27219 -11.27196
 Alpha  occ. eigenvalues --  -11.26695 -11.26127 -11.26076  -1.60865  -1.59453
 Alpha  occ. eigenvalues --   -1.40427  -1.39010  -1.20066  -1.18781  -1.09508
 Alpha  occ. eigenvalues --   -1.08161  -1.05425  -1.04173  -0.96389  -0.95025
 Alpha  occ. eigenvalues --   -0.86835  -0.85551  -0.83233  -0.81877  -0.78313
 Alpha  occ. eigenvalues --   -0.76985  -0.73065  -0.72172  -0.71640  -0.71164
 Alpha  occ. eigenvalues --   -0.70778  -0.69753  -0.65719  -0.65417  -0.64410
 Alpha  occ. eigenvalues --   -0.64151  -0.62774  -0.61532  -0.55925  -0.54497
 Alpha  occ. eigenvalues --   -0.53770  -0.53508  -0.52508  -0.52243  -0.49827
 Alpha  occ. eigenvalues --   -0.49783  -0.48406  -0.48383  -0.45885  -0.44452
 Alpha  occ. eigenvalues --   -0.38026  -0.37017  -0.36697  -0.35808
 Alpha virt. eigenvalues --    0.04168   0.05561   0.10642   0.11864   0.15699
 Alpha virt. eigenvalues --    0.17109   0.20810   0.22247   0.26756   0.27605
 Alpha virt. eigenvalues --    0.27937   0.29240   0.30457   0.31629   0.32302

 Mulliken charges:
               1
     1  C   -0.169816
     2  C   -0.218521
     3  C   -0.170673
     4  C    0.157144
     5  C   -0.171133
     6  C   -0.218417
     7  H    0.228421
     8  H    0.225761
     9  H    0.276486
    10  H    0.274394
    11  H    0.226234
    12  N    0.489428
    13  O   -0.470752
    14  O   -0.455845
    15  C   -0.178305
    16  C   -0.221804
    17  C   -0.172251
    18  C    0.156939
    19  C   -0.172001
    20  C   -0.221313
    21  H    0.247743
    22  H    0.226212
    23  H    0.273386
    24  H    0.272940
    25  H    0.222229
    26  N    0.488234
    27  O   -0.462557
    28  O   -0.462162
 Sum of Mulliken charges =  -0.00000

 Dipole moment (field-independent basis, Debye):
    X=              7.4296    Y=              2.3196    Z=              0.1376  Tot=              7.7845
 Quadrupole moment (field-independent basis, Debye-Ang):
   XX=           -124.7037   YY=           -106.7587   ZZ=            -99.2558
   XY=             27.8522   XZ=              2.6943   YZ=             -0.3474

 Normal termination of Gaussian 16 at Thu May  6 01:58:21 2021.
