 Gaussian 16, Revision A.03,
 Gaussian 16:  EM64L-G16RevA.03 25-Dec-2016

 -------------
 #p 6-31g* mp2
 -------------

 ------------------------------------------------------
 Input file generated by CHIRIPA (05-May-2021 14:57:21)
 ------------------------------------------------------
 Symbolic Z-matrix:
 Charge =  0 Multiplicity = 1

                         Standard orientation:
 ---------------------------------------------------------------------
 Center     Atomic      Atomic             Coordinates (Angstroms)
 Number     Number       Type             X           Y           Z
 ---------------------------------------------------------------------
      1          6           0        3.699630    2.594345   -0.192422
      2          6           0        4.434028    1.827427    0.718082
      3          6           0        4.187239    0.458109    0.854511
      4          6           0        3.194260   -0.114283    0.061006
      5          6           0        2.445656    0.623099   -0.855045
      6          6           0        2.709533    1.990797   -0.974700
      7          1           0        3.897979    3.657435   -0.291888
      8          1           0        5.203554    2.293473    1.326914
      9          1           0        4.740869   -0.159188    1.551544
     10          1           0        1.684910    0.130319   -1.448216
     11          1           0        2.137626    2.583925   -1.682631
     12          7           0        2.923950   -1.563061    0.196559
     13          8           0        2.043768   -2.043530   -0.514122
     14          8           0        3.597381   -2.190712    1.010919
     15          6           0       -5.155594    1.121950    1.028218
     16          6           0       -4.963691    1.184817   -0.355885
     17          6           0       -3.904997    0.498231   -0.957812
     18          6           0       -3.053503   -0.244995   -0.141808
     19          6           0       -3.218487   -0.327225    1.239969
     20          6           0       -4.283917    0.367460    1.820331
     21          1           0       -5.980630    1.658452    1.487432
     22          1           0       -5.639077    1.769978   -0.973531
     23          1           0       -3.733302    0.529609   -2.026903
     24          1           0       -2.528682   -0.918820    1.829548
     25          1           0       -4.430527    0.316825    2.895499
     26          7           0       -1.929145   -0.976140   -0.767626
     27          8           0       -1.192948   -1.623936   -0.026673
     28          8           0       -1.805363   -0.887572   -1.987245
 ---------------------------------------------------------------------

 SCF Done:  E(RHF) =  -868.336114185     A.U. after   16 cycles
 E2 =    -0.2600519202D+01 EUMP2 =    -0.87093663338650D+03

 The electronic state is 1-A.
 Alpha  occ. eigenvalues --  -20.60535 -20.60448 -20.59635 -20.59460 -15.85543
 Alpha  occ. eigenvalues --  -15.84590 -11.31085 -11.30299 -11.27693 -11.27648
 Alpha  occ. eigenvalues --  -11.27446 -11.26968 -11.26822 -11.26780 -11.26735
 Alpha  occ. eigenvalues --  -11.26705 -11.26060 -11.26001  -1.59570  -1.58625
 Alpha  occ. eigenvalues --   -1.39116  -1.38158  -1.19275  -1.18522  -1.08636
 Alpha  occ. eigenvalues --   -1.07867  -1.04700  -1.03970  -0.95436  -0.94633
 Alpha  occ. eigenvalues --   -0.86089  -0.85352  -0.82263  -0.81453  -0.77289
 Alpha  occ. eigenvalues --   -0.76430  -0.71743  -0.70950  -0.70772  -0.70377
 Alpha  occ. eigenvalues --   -0.69949  -0.69627  -0.64918  -0.64699  -0.64162
 Alpha  occ. eigenvalues --   -0.63983  -0.62041  -0.61292  -0.55192  -0.54491
 Alpha  occ. eigenvalues --   -0.53027  -0.52790  -0.52299  -0.52061  -0.48526
 Alpha  occ. eigenvalues --   -0.48478  -0.47623  -0.47527  -0.44510  -0.43426
 Alpha  occ. eigenvalues --   -0.37270  -0.36547  -0.36314  -0.35598
 Alpha virt. eigenvalues --    0.05218   0.06105   0.11336   0.12050   0.16683
 Alpha virt. eigenvalues --    0.17513   0.21472   0.22138   0.27375   0.28012
 Alpha virt. eigenvalues --    0.28381   0.29092   0.31002   0.31655   0.32631

 Mulliken charges:
               1
     1  C   -0.172252
     2  C   -0.219325
     3  C   -0.172281
     4  C    0.158288
     5  C   -0.174402
     6  C   -0.220320
     7  H    0.221531
     8  H    0.219744
     9  H    0.273460
    10  H    0.288174
    11  H    0.221106
    12  N    0.485799
    13  O   -0.441000
    14  O   -0.469700
    15  C   -0.171428
    16  C   -0.218674
    17  C   -0.172365
    18  C    0.157846
    19  C   -0.171567
    20  C   -0.218660
    21  H    0.224928
    22  H    0.222390
    23  H    0.274223
    24  H    0.278114
    25  H    0.223575
    26  N    0.485005
    27  O   -0.446000
    28  O   -0.466209
 Sum of Mulliken charges =  -0.00000

 Dipole moment (field-independent basis, Debye):
    X=             -3.2160    Y=              7.3695    Z=              1.6771  Tot=              8.2137
 Quadrupole moment (field-independent basis, Debye-Ang):
   XX=            -74.3834   YY=           -108.1886   ZZ=            -99.7411
   XY=              8.2193   XZ=             -3.9604   YZ=             -2.4374

 Normal termination of Gaussian 16 at Thu May  6 21:05:14 2021.
