 Gaussian 16, Revision A.03,
 Gaussian 16:  EM64L-G16RevA.03 25-Dec-2016

 -------------
 #p 6-31g* mp2
 -------------

 ------------------------------------------------------
 Input file generated by CHIRIPA (05-May-2021 14:57:26)
 ------------------------------------------------------
 Symbolic Z-matrix:
 Charge =  0 Multiplicity = 1

                         Standard orientation:
 ---------------------------------------------------------------------
 Center     Atomic      Atomic             Coordinates (Angstroms)
 Number     Number       Type             X           Y           Z
 ---------------------------------------------------------------------
      1          6           0        2.226350   -2.384447   -0.082152
      2          6           0        1.503063   -1.524706   -0.915353
      3          6           0        1.819482   -0.164390   -0.978332
      4          6           0        2.870004    0.304447   -0.191003
      5          6           0        3.609282   -0.526948    0.648962
      6          6           0        3.275302   -1.883707    0.695974
      7          1           0        1.973727   -3.439792   -0.039430
      8          1           0        0.687932   -1.910807   -1.520771
      9          1           0        1.275994    0.523417   -1.614697
     10          1           0        4.416559   -0.112764    1.240717
     11          1           0        3.838741   -2.549063    1.343957
     12          7           0        3.214278    1.742670   -0.249224
     13          8           0        4.144252    2.130980    0.454339
     14          8           0        2.547627    2.454406   -0.997318
     15          6           0       -3.764419    2.268867    0.236461
     16          6           0       -2.790847    1.887371    1.165512
     17          6           0       -2.256792    0.595516    1.144365
     18          6           0       -2.721309   -0.293274    0.176084
     19          6           0       -3.690228    0.056877   -0.763001
     20          6           0       -4.210217    1.354016   -0.723140
     21          1           0       -4.173822    3.274463    0.260157
     22          1           0       -2.442752    2.595757    1.911879
     23          1           0       -1.502135    0.273751    1.851740
     24          1           0       -4.017386   -0.671402   -1.495119
     25          1           0       -4.966207    1.647521   -1.445897
     26          7           0       -2.163375   -1.663698    0.143791
     27          8           0       -2.589364   -2.428046   -0.719310
     28          8           0       -1.310641   -1.947542    0.982192
 ---------------------------------------------------------------------

 SCF Done:  E(RHF) =  -868.339836959     A.U. after   16 cycles
 E2 =    -0.2600080840D+01 EUMP2 =    -0.87093991779929D+03

 The electronic state is 1-A.
 Alpha  occ. eigenvalues --  -20.61516 -20.61468 -20.60431 -20.60423 -15.86487
 Alpha  occ. eigenvalues --  -15.85473 -11.31558 -11.30558 -11.28104 -11.28057
 Alpha  occ. eigenvalues --  -11.27744 -11.27103 -11.27066 -11.27033 -11.26979
 Alpha  occ. eigenvalues --  -11.26634 -11.26023 -11.25921  -1.60570  -1.59515
 Alpha  occ. eigenvalues --   -1.40122  -1.39075  -1.19697  -1.18677  -1.09147
 Alpha  occ. eigenvalues --   -1.08088  -1.05043  -1.04050  -0.96034  -0.94984
 Alpha  occ. eigenvalues --   -0.86455  -0.85436  -0.82871  -0.81847  -0.77960
 Alpha  occ. eigenvalues --   -0.76961  -0.72731  -0.71904  -0.71693  -0.70840
 Alpha  occ. eigenvalues --   -0.70785  -0.69723  -0.65343  -0.65034  -0.64316
 Alpha  occ. eigenvalues --   -0.64018  -0.62392  -0.61413  -0.55544  -0.54455
 Alpha  occ. eigenvalues --   -0.53400  -0.53123  -0.52379  -0.52124  -0.49510
 Alpha  occ. eigenvalues --   -0.49475  -0.48469  -0.48424  -0.45592  -0.44545
 Alpha  occ. eigenvalues --   -0.37661  -0.36647  -0.36510  -0.35622
 Alpha virt. eigenvalues --    0.04513   0.05570   0.11016   0.12050   0.16110
 Alpha virt. eigenvalues --    0.17167   0.21227   0.22215   0.27160   0.27881
 Alpha virt. eigenvalues --    0.28166   0.29138   0.30818   0.31797   0.32285

 Mulliken charges:
               1
     1  C   -0.161357
     2  C   -0.212796
     3  C   -0.178087
     4  C    0.156504
     5  C   -0.173239
     6  C   -0.219954
     7  H    0.231774
     8  H    0.230127
     9  H    0.270678
    10  H    0.272140
    11  H    0.221604
    12  N    0.487834
    13  O   -0.462864
    14  O   -0.464701
    15  C   -0.168972
    16  C   -0.216994
    17  C   -0.170187
    18  C    0.155051
    19  C   -0.172284
    20  C   -0.218392
    21  H    0.228709
    22  H    0.227758
    23  H    0.276970
    24  H    0.274505
    25  H    0.224848
    26  N    0.485455
    27  O   -0.465108
    28  O   -0.459022
 Sum of Mulliken charges =  -0.00000

 Dipole moment (field-independent basis, Debye):
    X=             -3.4424    Y=             -0.3596    Z=              0.4218  Tot=              3.4867
 Quadrupole moment (field-independent basis, Debye-Ang):
   XX=            -98.0020   YY=           -111.0275   ZZ=           -100.4163
   XY=            -28.7952   XZ=              5.5476   YZ=              2.4247

 Normal termination of Gaussian 16 at Thu May  6 21:23:01 2021.
