 Gaussian 16, Revision A.03,
 Gaussian 16:  EM64L-G16RevA.03 25-Dec-2016

 -------------
 #p 6-31g* mp2
 -------------

 ------------------------------------------------------
 Input file generated by CHIRIPA (05-May-2021 14:53:16)
 ------------------------------------------------------
 Symbolic Z-matrix:
 Charge =  0 Multiplicity = 1

                         Standard orientation:
 ---------------------------------------------------------------------
 Center     Atomic      Atomic             Coordinates (Angstroms)
 Number     Number       Type             X           Y           Z
 ---------------------------------------------------------------------
      1          6           0        3.906687    0.158950    0.129632
      2          6           0        3.986170   -1.253597   -0.450350
      3          6           0        5.133832   -2.072090    0.141878
      4          1           0        4.858951    0.676431   -0.050230
      5          1           0        3.787368    0.093924    1.220013
      6          1           0        4.103914   -1.185940   -1.539467
      7          1           0        3.033538   -1.767710   -0.269255
      8          1           0        5.018230   -2.169237    1.226221
      9          1           0        6.094688   -1.584161   -0.051208
     10          1           0        5.172166   -3.078415   -0.286726
     11          6           0        2.764350    0.989503   -0.452585
     12          6           0        2.684867    2.402050    0.127397
     13          6           0        1.537205    3.220543   -0.464831
     14          1           0        2.883669    1.054529   -1.542966
     15          1           0        1.812086    0.472022   -0.272723
     16          1           0        3.637499    2.916163   -0.053698
     17          1           0        2.567123    2.334392    1.216513
     18          1           0        0.576349    2.732614   -0.271745
     19          1           0        1.652807    3.317690   -1.549174
     20          1           0        1.498871    4.226868   -0.036227
     21          6           0       -0.345881   -1.512422    0.482059
     22          6           0       -1.350862   -2.213054   -0.192957
     23          6           0       -2.606836   -1.633482   -0.395870
     24          6           0       -2.824361   -0.345770    0.091746
     25          6           0       -1.843403    0.377801    0.768100
     26          6           0       -0.594919   -0.221506    0.959592
     27          1           0        0.626880   -1.970313    0.635251
     28          1           0       -1.160286   -3.215740   -0.564909
     29          1           0       -3.402796   -2.153376   -0.915075
     30          1           0       -2.063198    1.375825    1.127344
     31          1           0        0.183682    0.324974    1.484172
     32          7           0       -4.150040    0.278244   -0.117023
     33          8           0       -4.316505    1.413989    0.322307
     34          8           0       -4.997540   -0.380214   -0.716033
 ---------------------------------------------------------------------

 SCF Done:  E(RHF) =  -669.534258642     A.U. after   15 cycles
 E2 =    -0.2094177632D+01 EUMP2 =    -0.67162843627403D+03

 The electronic state is 1-A.
 Alpha  occ. eigenvalues --  -20.60807 -20.60801 -15.85861 -11.31264 -11.27832
 Alpha  occ. eigenvalues --  -11.27828 -11.27566 -11.26850 -11.26839 -11.22617
 Alpha  occ. eigenvalues --  -11.22354 -11.22276 -11.22093 -11.21911 -11.21650
 Alpha  occ. eigenvalues --   -1.59881  -1.39433  -1.19444  -1.09305  -1.08824
 Alpha  occ. eigenvalues --   -1.04856  -1.04346  -0.96762  -0.95658  -0.87776
 Alpha  occ. eigenvalues --   -0.86254  -0.82490  -0.80416  -0.79103  -0.77528
 Alpha  occ. eigenvalues --   -0.72080  -0.71204  -0.70563  -0.66108  -0.65091
 Alpha  occ. eigenvalues --   -0.64747  -0.62276  -0.61680  -0.60128  -0.58368
 Alpha  occ. eigenvalues --   -0.56066  -0.55356  -0.53445  -0.53247  -0.53122
 Alpha  occ. eigenvalues --   -0.52928  -0.50710  -0.48851  -0.48832  -0.48699
 Alpha  occ. eigenvalues --   -0.47482  -0.46607  -0.46568  -0.44831  -0.44587
 Alpha  occ. eigenvalues --   -0.37362  -0.36404
 Alpha virt. eigenvalues --    0.04948   0.11054   0.16278   0.18585   0.22217
 Alpha virt. eigenvalues --    0.23326   0.25530   0.25972   0.26641   0.27836
 Alpha virt. eigenvalues --    0.29992   0.30518   0.30975   0.31247   0.32330

 Mulliken charges:
               1
     1  C   -0.298989
     2  C   -0.301372
     3  C   -0.476005
     4  H    0.154284
     5  H    0.145489
     6  H    0.156852
     7  H    0.141953
     8  H    0.154717
     9  H    0.159146
    10  H    0.161579
    11  C   -0.308138
    12  C   -0.301592
    13  C   -0.477051
    14  H    0.153883
    15  H    0.151944
    16  H    0.155944
    17  H    0.146305
    18  H    0.152617
    19  H    0.159419
    20  H    0.163306
    21  C   -0.173243
    22  C   -0.219649
    23  C   -0.170398
    24  C    0.158459
    25  C   -0.173286
    26  C   -0.220657
    27  H    0.232043
    28  H    0.224212
    29  H    0.276036
    30  H    0.276493
    31  H    0.227755
    32  N    0.488066
    33  O   -0.459951
    34  O   -0.460170
 Sum of Mulliken charges =  -0.00000

 Dipole moment (field-independent basis, Debye):
    X=              4.7321    Y=             -2.1652    Z=              0.6344  Tot=              5.2425
 Quadrupole moment (field-independent basis, Debye-Ang):
   XX=           -120.8198   YY=            -90.1989   ZZ=            -93.6838
   XY=              7.0079   XZ=             -1.8321   YZ=              1.6888

 Normal termination of Gaussian 16 at Thu May  6 17:11:59 2021.
