 Gaussian 16, Revision A.03,
 Gaussian 16:  EM64L-G16RevA.03 25-Dec-2016

 -------------
 #p 6-31g* mp2
 -------------

 ------------------------------------------------------
 Input file generated by CHIRIPA (05-May-2021 14:53:14)
 ------------------------------------------------------
 Symbolic Z-matrix:
 Charge =  0 Multiplicity = 1

                         Standard orientation:
 ---------------------------------------------------------------------
 Center     Atomic      Atomic             Coordinates (Angstroms)
 Number     Number       Type             X           Y           Z
 ---------------------------------------------------------------------
      1          6           0       -2.595393    0.962531   -0.298106
      2          6           0       -2.447294    2.322286    0.385354
      3          6           0       -1.141239    3.028390    0.020074
      4          1           0       -1.743341    0.326079   -0.022638
      5          1           0       -2.543826    1.099770   -1.387097
      6          1           0       -2.500511    2.182694    1.472689
      7          1           0       -3.299897    2.955509    0.108380
      8          1           0       -1.083368    3.196705   -1.060167
      9          1           0       -0.279441    2.419500    0.311894
     10          1           0       -1.055992    3.998463    0.519625
     11          6           0       -3.896062    0.244372    0.057189
     12          6           0       -4.044161   -1.115383   -0.626271
     13          6           0       -5.350216   -1.821487   -0.260991
     14          1           0       -3.947629    0.107133    1.146180
     15          1           0       -4.748114    0.880824   -0.218278
     16          1           0       -3.191558   -1.748605   -0.349297
     17          1           0       -3.990944   -0.975791   -1.713606
     18          1           0       -6.212014   -1.212596   -0.552811
     19          1           0       -5.408087   -1.989802    0.819250
     20          1           0       -5.435463   -2.791560   -0.760542
     21          6           0        3.549623    1.800497   -0.325663
     22          6           0        4.094379    0.666908   -0.937822
     23          6           0        3.540779   -0.596929   -0.712453
     24          6           0        2.437705   -0.691090    0.134690
     25          6           0        1.872305    0.419571    0.759226
     26          6           0        2.442277    1.673434    0.519417
     27          1           0        3.986031    2.778401   -0.506344
     28          1           0        4.954339    0.762586   -1.594601
     29          1           0        3.942529   -1.491069   -1.173459
     30          1           0        1.014857    0.292585    1.408899
     31          1           0        2.017118    2.552059    0.996181
     32          7           0        1.842967   -2.023778    0.380922
     33          8           0        0.871324   -2.080047    1.131508
     34          8           0        2.359716   -2.986834   -0.181330
 ---------------------------------------------------------------------

 SCF Done:  E(RHF) =  -669.534805517     A.U. after   15 cycles
 E2 =    -0.2092835608D+01 EUMP2 =    -0.67162764112481D+03

 The electronic state is 1-A.
 Alpha  occ. eigenvalues --  -20.60851 -20.60842 -15.85896 -11.31246 -11.27806
 Alpha  occ. eigenvalues --  -11.27798 -11.27524 -11.26818 -11.26781 -11.21821
 Alpha  occ. eigenvalues --  -11.21542 -11.21342 -11.21212 -11.21150 -11.20693
 Alpha  occ. eigenvalues --   -1.59918  -1.39473  -1.19415  -1.08807  -1.08353
 Alpha  occ. eigenvalues --   -1.04828  -1.03493  -0.95974  -0.95646  -0.87011
 Alpha  occ. eigenvalues --   -0.86205  -0.82492  -0.79583  -0.78115  -0.77529
 Alpha  occ. eigenvalues --   -0.72115  -0.71237  -0.70519  -0.65099  -0.64972
 Alpha  occ. eigenvalues --   -0.64823  -0.62234  -0.60851  -0.59371  -0.57552
 Alpha  occ. eigenvalues --   -0.55372  -0.55228  -0.53192  -0.52960  -0.52645
 Alpha  occ. eigenvalues --   -0.52322  -0.49912  -0.48872  -0.48869  -0.47878
 Alpha  occ. eigenvalues --   -0.46595  -0.45668  -0.45549  -0.44865  -0.43729
 Alpha  occ. eigenvalues --   -0.37382  -0.36349
 Alpha virt. eigenvalues --    0.04950   0.11169   0.16342   0.20503   0.22950
 Alpha virt. eigenvalues --    0.24304   0.26147   0.26851   0.27395   0.28327
 Alpha virt. eigenvalues --    0.29392   0.30530   0.31521   0.31568   0.32299

 Mulliken charges:
               1
     1  C   -0.301347
     2  C   -0.299625
     3  C   -0.481474
     4  H    0.154606
     5  H    0.149280
     6  H    0.151244
     7  H    0.153328
     8  H    0.158006
     9  H    0.150612
    10  H    0.156937
    11  C   -0.297878
    12  C   -0.302359
    13  C   -0.475760
    14  H    0.150679
    15  H    0.147816
    16  H    0.162115
    17  H    0.150099
    18  H    0.152667
    19  H    0.156091
    20  H    0.161434
    21  C   -0.172240
    22  C   -0.218351
    23  C   -0.171198
    24  C    0.157477
    25  C   -0.170644
    26  C   -0.216952
    27  H    0.226162
    28  H    0.223715
    29  H    0.275725
    30  H    0.275921
    31  H    0.226786
    32  N    0.488515
    33  O   -0.461770
    34  O   -0.459615
 Sum of Mulliken charges =  -0.00000

 Dipole moment (field-independent basis, Debye):
    X=              2.1371    Y=              4.5824    Z=             -0.9045  Tot=              5.1365
 Quadrupole moment (field-independent basis, Debye-Ang):
   XX=            -83.0216   YY=           -101.3049   ZZ=            -93.1831
   XY=              8.0418   XZ=             -3.8393   YZ=              2.3337

 Normal termination of Gaussian 16 at Wed May  5 23:27:53 2021.
