 Gaussian 16, Revision A.03,
 Gaussian 16:  EM64L-G16RevA.03 25-Dec-2016

 -------------
 #p 6-31g* mp2
 -------------

 ------------------------------------------------------
 Input file generated by CHIRIPA (05-May-2021 14:57:21)
 ------------------------------------------------------
 Symbolic Z-matrix:
 Charge =  0 Multiplicity = 1

                         Standard orientation:
 ---------------------------------------------------------------------
 Center     Atomic      Atomic             Coordinates (Angstroms)
 Number     Number       Type             X           Y           Z
 ---------------------------------------------------------------------
      1          6           0        2.844375   -0.391151   -2.318721
      2          6           0        3.322620    0.784160   -1.730123
      3          6           0        3.182017    0.998055   -0.355704
      4          6           0        2.555272    0.011148    0.403569
      5          6           0        2.068325   -1.170293   -0.153539
      6          6           0        2.219855   -1.362913   -1.529941
      7          1           0        2.957844   -0.549046   -3.387173
      8          1           0        3.808049    1.540574   -2.340238
      9          1           0        3.543028    1.898720    0.125848
     10          1           0        1.588830   -1.906084    0.480587
     11          1           0        1.847477   -2.276641   -1.984342
     12          7           0        2.400637    0.226328    1.859655
     13          8           0        1.844755   -0.658538    2.506682
     14          8           0        2.838245    1.275777    2.326337
     15          6           0       -2.823308    2.519864   -0.445249
     16          6           0       -1.714055    1.859213   -0.983413
     17          6           0       -1.569337    0.476782   -0.833457
     18          6           0       -2.557309   -0.216944   -0.136359
     19          6           0       -3.673906    0.412730    0.411374
     20          6           0       -3.797974    1.795791    0.249203
     21          1           0       -2.927707    3.594015   -0.566483
     22          1           0       -0.955555    2.418978   -1.523216
     23          1           0       -0.720669   -0.059861   -1.239899
     24          1           0       -4.413559   -0.172253    0.944409
     25          1           0       -4.660490    2.306220    0.668217
     26          7           0       -2.415032   -1.680796    0.028859
     27          8           0       -3.299331   -2.269189    0.647281
     28          8           0       -1.421911   -2.212050   -0.463194
 ---------------------------------------------------------------------

 SCF Done:  E(RHF) =  -868.339624630     A.U. after   16 cycles
 E2 =    -0.2600977620D+01 EUMP2 =    -0.87094060224903D+03

 The electronic state is 1-A.
 Alpha  occ. eigenvalues --  -20.61023 -20.60947 -20.60714 -20.60684 -15.86030
 Alpha  occ. eigenvalues --  -15.85756 -11.31192 -11.31159 -11.27820 -11.27743
 Alpha  occ. eigenvalues --  -11.27720 -11.27584 -11.27537 -11.27483 -11.26846
 Alpha  occ. eigenvalues --  -11.26748 -11.26725 -11.26641  -1.60043  -1.59780
 Alpha  occ. eigenvalues --   -1.39611  -1.39329  -1.19379  -1.19349  -1.08792
 Alpha  occ. eigenvalues --   -1.08758  -1.04762  -1.04711  -0.95666  -0.95562
 Alpha  occ. eigenvalues --   -0.86151  -0.86124  -0.82525  -0.82354  -0.77601
 Alpha  occ. eigenvalues --   -0.77374  -0.72279  -0.71965  -0.71345  -0.71113
 Alpha  occ. eigenvalues --   -0.70482  -0.70423  -0.65033  -0.64979  -0.64757
 Alpha  occ. eigenvalues --   -0.64687  -0.62112  -0.62011  -0.55272  -0.55252
 Alpha  occ. eigenvalues --   -0.53271  -0.53051  -0.52769  -0.52696  -0.49024
 Alpha  occ. eigenvalues --   -0.48986  -0.48740  -0.48711  -0.45060  -0.44722
 Alpha  occ. eigenvalues --   -0.37435  -0.37320  -0.36400  -0.36254
 Alpha virt. eigenvalues --    0.04879   0.05143   0.11034   0.11552   0.16396
 Alpha virt. eigenvalues --    0.16575   0.21343   0.21663   0.27256   0.27457
 Alpha virt. eigenvalues --    0.28286   0.28572   0.30983   0.31154   0.32449

 Mulliken charges:
               1
     1  C   -0.175050
     2  C   -0.222273
     3  C   -0.174110
     4  C    0.155834
     5  C   -0.170965
     6  C   -0.225576
     7  H    0.225908
     8  H    0.221662
     9  H    0.274159
    10  H    0.290135
    11  H    0.235013
    12  N    0.488058
    13  O   -0.455756
    14  O   -0.463334
    15  C   -0.169099
    16  C   -0.219964
    17  C   -0.174240
    18  C    0.158607
    19  C   -0.168889
    20  C   -0.218380
    21  H    0.225811
    22  H    0.222090
    23  H    0.277315
    24  H    0.276131
    25  H    0.224174
    26  N    0.490659
    27  O   -0.455747
    28  O   -0.472173
 Sum of Mulliken charges =  -0.00000

 Dipole moment (field-independent basis, Debye):
    X=             -0.0844    Y=              4.2017    Z=             -5.5732  Tot=              6.9801
 Quadrupole moment (field-independent basis, Debye-Ang):
   XX=            -95.4115   YY=           -103.6173   ZZ=           -108.8663
   XY=            -13.3216   XZ=            -14.3432   YZ=             -1.4208

 Normal termination of Gaussian 16 at Wed May  5 17:44:33 2021.
