 Gaussian 16, Revision A.03,
 Gaussian 16:  EM64L-G16RevA.03 25-Dec-2016

 -------------
 #p 6-31g* mp2
 -------------

 ------------------------------------------------------
 Input file generated by CHIRIPA (05-May-2021 14:51:09)
 ------------------------------------------------------
 Symbolic Z-matrix:
 Charge =  0 Multiplicity = 1

                         Standard orientation:
 ---------------------------------------------------------------------
 Center     Atomic      Atomic             Coordinates (Angstroms)
 Number     Number       Type             X           Y           Z
 ---------------------------------------------------------------------
      1          6           0       -5.395822    0.059154    0.149993
      2          6           0       -6.415191   -0.986072   -0.304290
      3          6           0       -7.860276   -0.532149   -0.095779
      4          1           0       -5.560888    0.285562    1.212272
      5          1           0       -5.570281    0.994449   -0.399718
      6          1           0       -6.237980   -1.919542    0.245115
      7          1           0       -6.247557   -1.210159   -1.365563
      8          1           0       -8.060408    0.386217   -0.657164
      9          1           0       -8.050777   -0.327197    0.962666
     10          1           0       -8.572307   -1.294381   -0.427252
     11          6           0       -3.946691   -0.380071   -0.052069
     12          6           0       -2.927322    0.665155    0.402214
     13          6           0       -1.482237    0.211232    0.193703
     14          1           0       -3.772232   -1.315367    0.497641
     15          1           0       -3.781626   -0.606479   -1.114349
     16          1           0       -3.094957    0.889242    1.463487
     17          1           0       -3.104533    1.598625   -0.147191
     18          1           0       -1.291736    0.006280   -0.864742
     19          1           0       -1.282106   -0.707134    0.755088
     20          1           0       -0.770206    0.973464    0.525175
     21          6           0        4.362005    0.855679   -0.115770
     22          6           0        2.834664    0.849395   -0.043826
     23          6           0        2.230731    2.247531   -0.179022
     24          1           0        4.757395    1.505647    0.676791
     25          1           0        4.675336    1.300715   -1.070318
     26          1           0        2.524286    0.403239    0.909707
     27          1           0        2.442870    0.199215   -0.836531
     28          1           0        2.511702    2.697585   -1.136679
     29          1           0        2.593580    2.902768    0.619480
     30          1           0        1.137958    2.219778   -0.124831
     31          6           0        4.980509   -0.534762    0.017847
     32          6           0        6.507849   -0.528478   -0.054097
     33          6           0        7.111783   -1.926613    0.081098
     34          1           0        4.667178   -0.979798    0.972395
     35          1           0        4.585119   -1.184730   -0.774714
     36          1           0        6.899643    0.121701    0.738607
     37          1           0        6.818228   -0.082322   -1.007630
     38          1           0        6.748934   -2.581851   -0.717404
     39          1           0        6.830812   -2.376668    1.038755
     40          1           0        8.204555   -1.898861    0.026907
 ---------------------------------------------------------------------

 SCF Done:  E(RHF) =  -470.733257648     A.U. after   11 cycles
 E2 =    -0.1582278904D+01 EUMP2 =    -0.47231553655184D+03

 The electronic state is 1-A.
 Alpha  occ. eigenvalues --  -11.21608 -11.21603 -11.21577 -11.21539 -11.21408
 Alpha  occ. eigenvalues --  -11.21368 -11.21349 -11.21309 -11.21072 -11.21069
 Alpha  occ. eigenvalues --  -11.21052 -11.21006  -1.08435  -1.08390  -1.03544
 Alpha  occ. eigenvalues --   -1.03481  -0.96015  -0.95915  -0.87036  -0.86928
 Alpha  occ. eigenvalues --   -0.79597  -0.79550  -0.78247  -0.78199  -0.65064
 Alpha  occ. eigenvalues --   -0.65021  -0.60935  -0.60882  -0.59647  -0.59111
 Alpha  occ. eigenvalues --   -0.57725  -0.57408  -0.55273  -0.55224  -0.52952
 Alpha  occ. eigenvalues --   -0.52516  -0.52433  -0.52163  -0.49922  -0.49883
 Alpha  occ. eigenvalues --   -0.47975  -0.47804  -0.46633  -0.46579  -0.45794
 Alpha  occ. eigenvalues --   -0.45738  -0.45713  -0.45668  -0.43887  -0.43628
 Alpha virt. eigenvalues --    0.21899   0.23004   0.23413   0.24970   0.26564
 Alpha virt. eigenvalues --    0.26726   0.26825   0.27361   0.27726   0.28859
 Alpha virt. eigenvalues --    0.30230   0.31216   0.31571   0.31658   0.32110

 Mulliken charges:
               1
     1  C   -0.298247
     2  C   -0.299641
     3  C   -0.475706
     4  H    0.149654
     5  H    0.149560
     6  H    0.151930
     7  H    0.151941
     8  H    0.155198
     9  H    0.155183
    10  H    0.160257
    11  C   -0.298542
    12  C   -0.299426
    13  C   -0.481463
    14  H    0.149567
    15  H    0.149650
    16  H    0.151918
    17  H    0.151957
    18  H    0.155229
    19  H    0.155578
    20  H    0.166070
    21  C   -0.298351
    22  C   -0.299023
    23  C   -0.481512
    24  H    0.149443
    25  H    0.149372
    26  H    0.152158
    27  H    0.152659
    28  H    0.155002
    29  H    0.154651
    30  H    0.165108
    31  C   -0.298213
    32  C   -0.299620
    33  C   -0.475680
    34  H    0.149494
    35  H    0.149668
    36  H    0.151868
    37  H    0.151862
    38  H    0.155155
    39  H    0.155140
    40  H    0.160157
 Sum of Mulliken charges =  -0.00000

 Dipole moment (field-independent basis, Debye):
    X=             -0.0187    Y=             -0.0102    Z=              0.0010  Tot=              0.0213
 Quadrupole moment (field-independent basis, Debye-Ang):
   XX=            -86.4650   YY=            -85.5855   ZZ=            -82.8484
   XY=              0.7229   XZ=              0.0958   YZ=             -0.2095

 Normal termination of Gaussian 16 at Thu May  6 02:07:21 2021.
