 Gaussian 16, Revision A.03,
 Gaussian 16:  EM64L-G16RevA.03 25-Dec-2016

 -------------
 #p 6-31g* mp2
 -------------

 ------------------------------------------------------
 Input file generated by CHIRIPA (05-May-2021 14:51:10)
 ------------------------------------------------------
 Symbolic Z-matrix:
 Charge =  0 Multiplicity = 1

                         Standard orientation:
 ---------------------------------------------------------------------
 Center     Atomic      Atomic             Coordinates (Angstroms)
 Number     Number       Type             X           Y           Z
 ---------------------------------------------------------------------
      1          6           0        3.145900   -0.238415   -0.490872
      2          6           0        4.596406    0.214989   -0.322224
      3          6           0        5.049179    1.170799   -1.426406
      4          1           0        3.032062   -0.725583   -1.468959
      5          1           0        2.492137    0.644663   -0.503543
      6          1           0        5.247103   -0.668765   -0.308486
      7          1           0        4.706848    0.700964    0.655655
      8          1           0        4.424259    2.069655   -1.438027
      9          1           0        4.967583    0.692144   -2.407646
     10          1           0        6.088984    1.482305   -1.286301
     11          6           0        2.678631   -1.194318    0.605319
     12          6           0        1.228125   -1.647723    0.436671
     13          6           0        0.775353   -2.603533    1.540853
     14          1           0        3.332395   -2.077397    0.617990
     15          1           0        2.792469   -0.707150    1.583406
     16          1           0        1.117683   -2.133698   -0.541208
     17          1           0        0.577429   -0.763969    0.422933
     18          1           0        0.856948   -2.124877    2.522093
     19          1           0        1.400272   -3.502388    1.552474
     20          1           0       -0.264452   -2.915039    1.400748
     21          6           0       -2.261587    1.114844   -0.092796
     22          6           0       -2.098311    2.112922    1.054012
     23          6           0       -0.791743    2.902509    0.968992
     24          1           0       -1.410683    0.419937   -0.089588
     25          1           0       -2.220204    1.655259   -1.048637
     26          1           0       -2.141376    1.570963    2.007448
     27          1           0       -2.949801    2.805415    1.048191
     28          1           0       -0.743779    3.468337    0.032970
     29          1           0        0.069240    2.226871    0.997678
     30          1           0       -0.695546    3.610050    1.798444
     31          6           0       -3.562944    0.317889   -0.021652
     32          6           0       -3.726220   -0.680189   -1.168458
     33          6           0       -5.032789   -1.469775   -1.083439
     34          1           0       -3.604328   -0.222526    0.934190
     35          1           0       -4.413849    1.012796   -0.024860
     36          1           0       -2.874730   -1.372681   -1.162638
     37          1           0       -3.683156   -0.138229   -2.121895
     38          1           0       -5.893772   -0.794137   -1.112125
     39          1           0       -5.080754   -2.035604   -0.147417
     40          1           0       -5.128986   -2.177316   -1.912892
 ---------------------------------------------------------------------

 SCF Done:  E(RHF) =  -470.733375155     A.U. after   11 cycles
 E2 =    -0.1583321791D+01 EUMP2 =    -0.47231669694603D+03

 The electronic state is 1-A.
 Alpha  occ. eigenvalues --  -11.21661 -11.21629 -11.21608 -11.21595 -11.21438
 Alpha  occ. eigenvalues --  -11.21398 -11.21375 -11.21337 -11.21142 -11.21136
 Alpha  occ. eigenvalues --  -11.21068 -11.21065  -1.08475  -1.08430  -1.03571
 Alpha  occ. eigenvalues --   -1.03542  -0.96016  -0.95991  -0.87033  -0.87008
 Alpha  occ. eigenvalues --   -0.79660  -0.79587  -0.78352  -0.78176  -0.65224
 Alpha  occ. eigenvalues --   -0.64963  -0.61043  -0.60868  -0.59393  -0.59353
 Alpha  occ. eigenvalues --   -0.57654  -0.57578  -0.55351  -0.55233  -0.52710
 Alpha  occ. eigenvalues --   -0.52691  -0.52459  -0.52401  -0.50008  -0.49897
 Alpha  occ. eigenvalues --   -0.48035  -0.47890  -0.46857  -0.46569  -0.46071
 Alpha  occ. eigenvalues --   -0.45782  -0.45750  -0.45251  -0.43817  -0.43795
 Alpha virt. eigenvalues --    0.19811   0.22737   0.23975   0.24512   0.25573
 Alpha virt. eigenvalues --    0.26580   0.27072   0.27272   0.28568   0.29340
 Alpha virt. eigenvalues --    0.30765   0.31631   0.31731   0.31878   0.32287

 Mulliken charges:
               1
     1  C   -0.299904
     2  C   -0.299628
     3  C   -0.475827
     4  H    0.149887
     5  H    0.150770
     6  H    0.151931
     7  H    0.152065
     8  H    0.155631
     9  H    0.155148
    10  H    0.160266
    11  C   -0.297360
    12  C   -0.309804
    13  C   -0.475387
    14  H    0.149829
    15  H    0.149551
    16  H    0.152280
    17  H    0.160033
    18  H    0.155196
    19  H    0.155799
    20  H    0.159751
    21  C   -0.308031
    22  C   -0.299129
    23  C   -0.477846
    24  H    0.158907
    25  H    0.149620
    26  H    0.151870
    27  H    0.152257
    28  H    0.155611
    29  H    0.155340
    30  H    0.160595
    31  C   -0.297608
    32  C   -0.299949
    33  C   -0.475722
    34  H    0.149414
    35  H    0.149616
    36  H    0.152290
    37  H    0.151992
    38  H    0.155180
    39  H    0.155118
    40  H    0.160248
 Sum of Mulliken charges =  -0.00000

 Dipole moment (field-independent basis, Debye):
    X=              0.0103    Y=             -0.0025    Z=             -0.0081  Tot=              0.0133
 Quadrupole moment (field-independent basis, Debye-Ang):
   XX=            -85.4923   YY=            -84.5205   ZZ=            -84.6873
   XY=             -1.5328   XZ=              0.3582   YZ=              0.5029

 Normal termination of Gaussian 16 at Wed May  5 16:40:15 2021.
