 Gaussian 16, Revision A.03,
 Gaussian 16:  EM64L-G16RevA.03 25-Dec-2016

 -------------
 #p 6-31g* mp2
 -------------

 ------------------------------------------------------
 Input file generated by CHIRIPA (05-May-2021 14:55:20)
 ------------------------------------------------------
 Symbolic Z-matrix:
 Charge =  0 Multiplicity = 1

                         Standard orientation:
 ---------------------------------------------------------------------
 Center     Atomic      Atomic             Coordinates (Angstroms)
 Number     Number       Type             X           Y           Z
 ---------------------------------------------------------------------
      1          6           0       -1.682454    1.852863   -0.272710
      2          6           0       -3.040934    2.015037   -0.563835
      3          6           0       -3.928843    0.943625   -0.428771
      4          6           0       -3.421840   -0.281505    0.001686
      5          6           0       -2.073747   -0.474549    0.299458
      6          6           0       -1.204040    0.610778    0.157249
      7          1           0       -0.999775    2.690567   -0.380406
      8          1           0       -3.415283    2.978511   -0.897939
      9          1           0       -4.985291    1.041410   -0.647341
     10          1           0       -1.730151   -1.447062    0.630484
     11          1           0       -0.149525    0.481922    0.384054
     12          7           0       -4.352195   -1.423127    0.148454
     13          8           0       -3.880557   -2.492274    0.529398
     14          8           0       -5.535430   -1.227165   -0.120232
     15          6           0        4.391467   -0.482039   -0.393596
     16          6           0        5.441437   -1.364206    0.282665
     17          6           0        5.846923   -2.563486   -0.574716
     18          1           0        3.504138   -1.088359   -0.621564
     19          1           0        4.784726   -0.128991   -1.356975
     20          1           0        5.046850   -1.714360    1.245115
     21          1           0        6.326295   -0.755671    0.509223
     22          1           0        6.265170   -2.230250   -1.530030
     23          1           0        4.978456   -3.194387   -0.789957
     24          1           0        6.598311   -3.180532   -0.072192
     25          6           0        3.975910    0.721022    0.451203
     26          6           0        2.925940    1.603188   -0.225058
     27          6           0        2.520455    2.802468    0.632323
     28          1           0        3.582652    0.367973    1.414582
     29          1           0        4.863239    1.327341    0.679171
     30          1           0        2.041082    0.994653   -0.451616
     31          1           0        3.320527    1.953343   -1.187508
     32          1           0        3.388922    3.433369    0.847564
     33          1           0        2.102207    2.469233    1.587637
     34          1           0        1.769066    3.419514    0.129799
 ---------------------------------------------------------------------

 SCF Done:  E(RHF) =  -669.535450181     A.U. after   15 cycles
 E2 =    -0.2091447508D+01 EUMP2 =    -0.67162689768810D+03

 The electronic state is 1-A.
 Alpha  occ. eigenvalues --  -20.60740 -20.60735 -15.85793 -11.31152 -11.27724
 Alpha  occ. eigenvalues --  -11.27720 -11.27450 -11.26731 -11.26703 -11.22761
 Alpha  occ. eigenvalues --  -11.22310 -11.22267 -11.22143 -11.22061 -11.21481
 Alpha  occ. eigenvalues --   -1.59816  -1.39370  -1.19323  -1.09264  -1.08716
 Alpha  occ. eigenvalues --   -1.04730  -1.04365  -0.96803  -0.95552  -0.87817
 Alpha  occ. eigenvalues --   -0.86127  -0.82389  -0.80449  -0.79019  -0.77440
 Alpha  occ. eigenvalues --   -0.72012  -0.71139  -0.70430  -0.65961  -0.64974
 Alpha  occ. eigenvalues --   -0.64727  -0.62184  -0.61645  -0.60214  -0.58396
 Alpha  occ. eigenvalues --   -0.56077  -0.55232  -0.53510  -0.53215  -0.53055
 Alpha  occ. eigenvalues --   -0.52824  -0.50738  -0.48815  -0.48767  -0.48698
 Alpha  occ. eigenvalues --   -0.47480  -0.46560  -0.46461  -0.44777  -0.44605
 Alpha  occ. eigenvalues --   -0.37297  -0.36331
 Alpha virt. eigenvalues --    0.05100   0.11273   0.16588   0.18511   0.22470
 Alpha virt. eigenvalues --    0.23948   0.24794   0.25893   0.26570   0.27833
 Alpha virt. eigenvalues --    0.28972   0.29832   0.30979   0.31616   0.32357

 Mulliken charges:
               1
     1  C   -0.173921
     2  C   -0.218936
     3  C   -0.170931
     4  C    0.158755
     5  C   -0.171814
     6  C   -0.224776
     7  H    0.228402
     8  H    0.223423
     9  H    0.275466
    10  H    0.275487
    11  H    0.231346
    12  N    0.488002
    13  O   -0.460619
    14  O   -0.460520
    15  C   -0.298568
    16  C   -0.300358
    17  C   -0.476262
    18  H    0.148555
    19  H    0.151508
    20  H    0.152688
    21  H    0.153127
    22  H    0.155985
    23  H    0.156287
    24  H    0.162330
    25  C   -0.299118
    26  C   -0.305511
    27  C   -0.479146
    28  H    0.149378
    29  H    0.153365
    30  H    0.145777
    31  H    0.157451
    32  H    0.162621
    33  H    0.156087
    34  H    0.154439
 Sum of Mulliken charges =  -0.00000

 Dipole moment (field-independent basis, Debye):
    X=              3.5341    Y=              4.0271    Z=             -0.5159  Tot=              5.3827
 Quadrupole moment (field-independent basis, Debye-Ang):
   XX=           -113.0641   YY=            -96.1159   ZZ=            -95.1861
   XY=            -16.5052   XZ=              2.9977   YZ=             -1.5363

 Normal termination of Gaussian 16 at Thu May  6 07:41:14 2021.
