 Gaussian 16, Revision A.03,
 Gaussian 16:  EM64L-G16RevA.03 25-Dec-2016

 -------------
 #p 6-31g* mp2
 -------------

 ------------------------------------------------------
 Input file generated by CHIRIPA (05-May-2021 14:53:16)
 ------------------------------------------------------
 Symbolic Z-matrix:
 Charge =  0 Multiplicity = 1

                         Standard orientation:
 ---------------------------------------------------------------------
 Center     Atomic      Atomic             Coordinates (Angstroms)
 Number     Number       Type             X           Y           Z
 ---------------------------------------------------------------------
      1          6           0       -4.062036    0.815618   -0.312714
      2          6           0       -2.683794    1.389723    0.017191
      3          6           0       -2.452319    2.766605   -0.606033
      4          1           0       -4.172986    0.749209   -1.403689
      5          1           0       -4.835509    1.512716    0.038269
      6          1           0       -1.913177    0.691097   -0.333074
      7          1           0       -2.576039    1.454593    1.107511
      8          1           0       -3.199520    3.482141   -0.247847
      9          1           0       -2.532892    2.714307   -1.696617
     10          1           0       -1.461016    3.158269   -0.357480
     11          6           0       -4.308370   -0.560474    0.303255
     12          6           0       -5.686612   -1.134579   -0.026651
     13          6           0       -5.918087   -2.511461    0.596574
     14          1           0       -3.534897   -1.257573   -0.047729
     15          1           0       -4.197420   -0.494066    1.394229
     16          1           0       -5.794367   -1.199450   -1.116970
     17          1           0       -6.457229   -0.435953    0.323615
     18          1           0       -5.837514   -2.459163    1.687158
     19          1           0       -5.170886   -3.226998    0.238387
     20          1           0       -6.909390   -2.903126    0.348020
     21          6           0        2.003986    2.067056    0.266822
     22          6           0        1.412869    0.987288   -0.397410
     23          6           0        2.104841   -0.218003   -0.549063
     24          6           0        3.392053   -0.309136   -0.021743
     25          6           0        4.008058    0.748753    0.645115
     26          6           0        3.297414    1.944558    0.785051
     27          1           0        1.459193    2.999670    0.380078
     28          1           0        0.408513    1.079562   -0.800891
     29          1           0        1.671096   -1.069726   -1.058820
     30          1           0        5.010674    0.626641    1.036608
     31          1           0        3.758984    2.781463    1.301371
     32          7           0        4.134496   -1.580102   -0.176090
     33          8           0        5.267331   -1.634955    0.297528
     34          8           0        3.569531   -2.497367   -0.767761
 ---------------------------------------------------------------------

 SCF Done:  E(RHF) =  -669.535331325     A.U. after   15 cycles
 E2 =    -0.2091493436D+01 EUMP2 =    -0.67162682476071D+03

 The electronic state is 1-A.
 Alpha  occ. eigenvalues --  -20.60730 -20.60725 -15.85783 -11.31140 -11.27708
 Alpha  occ. eigenvalues --  -11.27698 -11.27445 -11.26726 -11.26670 -11.22661
 Alpha  occ. eigenvalues --  -11.22264 -11.22139 -11.22029 -11.21927 -11.21378
 Alpha  occ. eigenvalues --   -1.59806  -1.39360  -1.19309  -1.09144  -1.08705
 Alpha  occ. eigenvalues --   -1.04714  -1.04266  -0.96708  -0.95543  -0.87720
 Alpha  occ. eigenvalues --   -0.86111  -0.82379  -0.80354  -0.78900  -0.77424
 Alpha  occ. eigenvalues --   -0.72002  -0.71129  -0.70426  -0.65810  -0.64962
 Alpha  occ. eigenvalues --   -0.64731  -0.62155  -0.61587  -0.60103  -0.58295
 Alpha  occ. eigenvalues --   -0.55976  -0.55216  -0.53434  -0.53127  -0.53039
 Alpha  occ. eigenvalues --   -0.52791  -0.50632  -0.48774  -0.48757  -0.48639
 Alpha  occ. eigenvalues --   -0.47371  -0.46441  -0.46334  -0.44767  -0.44505
 Alpha  occ. eigenvalues --   -0.37288  -0.36308
 Alpha virt. eigenvalues --    0.05106   0.11309   0.16578   0.19011   0.22557
 Alpha virt. eigenvalues --    0.23966   0.25056   0.25930   0.26522   0.27486
 Alpha virt. eigenvalues --    0.28790   0.29940   0.30845   0.31726   0.32048

 Mulliken charges:
               1
     1  C   -0.298406
     2  C   -0.303804
     3  C   -0.478310
     4  H    0.151056
     5  H    0.152066
     6  H    0.145843
     7  H    0.156239
     8  H    0.161906
     9  H    0.158535
    10  H    0.150193
    11  C   -0.299027
    12  C   -0.300305
    13  C   -0.476256
    14  H    0.150107
    15  H    0.151196
    16  H    0.152689
    17  H    0.152539
    18  H    0.155965
    19  H    0.156654
    20  H    0.161779
    21  C   -0.173865
    22  C   -0.223794
    23  C   -0.172728
    24  C    0.158801
    25  C   -0.171165
    26  C   -0.218481
    27  H    0.226207
    28  H    0.233833
    29  H    0.275051
    30  H    0.275398
    31  H    0.223228
    32  N    0.488072
    33  O   -0.460586
    34  O   -0.460626
 Sum of Mulliken charges =  -0.00000

 Dipole moment (field-independent basis, Debye):
    X=             -2.8644    Y=              4.4604    Z=              0.5745  Tot=              5.3320
 Quadrupole moment (field-independent basis, Debye-Ang):
   XX=           -108.7713   YY=            -98.0341   ZZ=            -93.6811
   XY=             17.3710   XZ=              3.8900   YZ=              1.6567

 Normal termination of Gaussian 16 at Thu May  6 01:08:48 2021.
