 Gaussian 16, Revision A.03,
 Gaussian 16:  EM64L-G16RevA.03 25-Dec-2016

 -------------
 #p 6-31g* mp2
 -------------

 ------------------------------------------------------
 Input file generated by CHIRIPA (05-May-2021 14:57:26)
 ------------------------------------------------------
 Symbolic Z-matrix:
 Charge =  0 Multiplicity = 1

                         Standard orientation:
 ---------------------------------------------------------------------
 Center     Atomic      Atomic             Coordinates (Angstroms)
 Number     Number       Type             X           Y           Z
 ---------------------------------------------------------------------
      1          6           0        2.391232    1.778337    0.152097
      2          6           0        2.124957    0.434275    0.433368
      3          6           0        3.129911   -0.529687    0.309295
      4          6           0        4.395460   -0.112610   -0.100243
      5          6           0        4.691853    1.218846   -0.387761
      6          6           0        3.671573    2.165651   -0.256848
      7          1           0        1.604607    2.520502    0.251137
      8          1           0        1.131560    0.130598    0.751154
      9          1           0        2.951207   -1.576981    0.520621
     10          1           0        5.691949    1.491172   -0.702503
     11          1           0        3.881242    3.208758   -0.475960
     12          7           0        5.467472   -1.124032   -0.235214
     13          8           0        6.574124   -0.730926   -0.597742
     14          8           0        5.180765   -2.290737    0.024080
     15          6           0       -6.462561   -0.798085   -0.803950
     16          6           0       -6.083458    0.544969   -0.898857
     17          6           0       -4.842623    0.968473   -0.413547
     18          6           0       -4.001859    0.017843    0.163262
     19          6           0       -4.350982   -1.327332    0.272370
     20          6           0       -5.596640   -1.728310   -0.219670
     21          1           0       -7.428344   -1.118321   -1.183563
     22          1           0       -6.753911    1.269598   -1.352123
     23          1           0       -4.523910    2.001992   -0.474183
     24          1           0       -3.661226   -2.026461    0.729398
     25          1           0       -5.888413   -2.771996   -0.144618
     26          7           0       -2.685690    0.454262    0.680599
     27          8           0       -1.963056   -0.402844    1.184389
     28          8           0       -2.401634    1.645171    0.572503
 ---------------------------------------------------------------------

 SCF Done:  E(RHF) =  -868.341306813     A.U. after   16 cycles
 E2 =    -0.2598192907D+01 EUMP2 =    -0.87093949971953D+03

 The electronic state is 1-A.
 Alpha  occ. eigenvalues --  -20.61946 -20.61921 -20.59971 -20.59964 -15.86930
 Alpha  occ. eigenvalues --  -15.85012 -11.31942 -11.30152 -11.28469 -11.28458
 Alpha  occ. eigenvalues --  -11.28139 -11.27400 -11.27385 -11.26725 -11.26605
 Alpha  occ. eigenvalues --  -11.26248 -11.25695 -11.25374  -1.60983  -1.59050
 Alpha  occ. eigenvalues --   -1.40543  -1.38610  -1.20079  -1.18271  -1.09541
 Alpha  occ. eigenvalues --   -1.07686  -1.05426  -1.03622  -0.96435  -0.94571
 Alpha  occ. eigenvalues --   -0.86841  -0.85011  -0.83280  -0.81405  -0.78365
 Alpha  occ. eigenvalues --   -0.76500  -0.73165  -0.72267  -0.71236  -0.71180
 Alpha  occ. eigenvalues --   -0.70371  -0.69332  -0.65735  -0.65425  -0.63899
 Alpha  occ. eigenvalues --   -0.63562  -0.62777  -0.60956  -0.55940  -0.54060
 Alpha  occ. eigenvalues --   -0.53774  -0.53512  -0.51992  -0.51677  -0.49929
 Alpha  occ. eigenvalues --   -0.49893  -0.48005  -0.47965  -0.46020  -0.44067
 Alpha  occ. eigenvalues --   -0.38035  -0.37012  -0.36223  -0.35239
 Alpha virt. eigenvalues --    0.04129   0.05993   0.10649   0.12421   0.15696
 Alpha virt. eigenvalues --    0.17570   0.20825   0.22779   0.26764   0.27672
 Alpha virt. eigenvalues --    0.28715   0.29561   0.30440   0.31838   0.32446

 Mulliken charges:
               1
     1  C   -0.173888
     2  C   -0.229006
     3  C   -0.174121
     4  C    0.157884
     5  C   -0.173498
     6  C   -0.219228
     7  H    0.233202
     8  H    0.248002
     9  H    0.273414
    10  H    0.271527
    11  H    0.219485
    12  N    0.488178
    13  O   -0.463757
    14  O   -0.462787
    15  C   -0.169418
    16  C   -0.218546
    17  C   -0.170267
    18  C    0.157683
    19  C   -0.170127
    20  C   -0.218496
    21  H    0.228393
    22  H    0.225579
    23  H    0.275477
    24  H    0.276344
    25  H    0.226233
    26  N    0.489885
    27  O   -0.465353
    28  O   -0.462795
 Sum of Mulliken charges =  -0.00000

 Dipole moment (field-independent basis, Debye):
    X=             -9.1207    Y=              2.0174    Z=             -1.3229  Tot=              9.4343
 Quadrupole moment (field-independent basis, Debye-Ang):
   XX=            -99.9738   YY=            -99.0867   ZZ=           -106.3177
   XY=             24.1155   XZ=              8.9078   YZ=             -3.3558

 Normal termination of Gaussian 16 at Fri May  7 05:03:55 2021.
