 Gaussian 16, Revision A.03,
 Gaussian 16:  EM64L-G16RevA.03 25-Dec-2016

 -------------
 #p 6-31g* mp2
 -------------

 ------------------------------------------------------
 Input file generated by CHIRIPA (05-May-2021 14:57:26)
 ------------------------------------------------------
 Symbolic Z-matrix:
 Charge =  0 Multiplicity = 1

                         Standard orientation:
 ---------------------------------------------------------------------
 Center     Atomic      Atomic             Coordinates (Angstroms)
 Number     Number       Type             X           Y           Z
 ---------------------------------------------------------------------
      1          6           0        5.908073   -1.344624    0.246389
      2          6           0        4.973741   -1.775799   -0.701046
      3          6           0        3.810992   -1.036885   -0.938887
      4          6           0        3.613635    0.133667   -0.208033
      5          6           0        4.525768    0.589382    0.742560
      6          6           0        5.681504   -0.165489    0.963903
      7          1           0        6.808600   -1.924828    0.424742
      8          1           0        5.147073   -2.691138   -1.259754
      9          1           0        3.071106   -1.347634   -1.666501
     10          1           0        4.325325    1.505980    1.283938
     11          1           0        6.405383    0.171784    1.700308
     12          7           0        2.386397    0.924369   -0.451092
     13          8           0        2.235877    1.952130    0.205937
     14          8           0        1.598247    0.501388   -1.294029
     15          6           0       -1.780292    1.453205    0.485269
     16          6           0       -2.835821    1.891471   -0.321145
     17          6           0       -3.968583    1.092763   -0.504072
     18          6           0       -4.012694   -0.144164    0.137299
     19          6           0       -2.977313   -0.608673    0.946933
     20          6           0       -1.854277    0.206730    1.115623
     21          1           0       -0.904114    2.080145    0.621842
     22          1           0       -2.781101    2.859041   -0.811920
     23          1           0       -4.800093    1.407475   -1.122915
     24          1           0       -3.060708   -1.578036    1.423167
     25          1           0       -1.036044   -0.136209    1.742467
     26          7           0       -5.206750   -0.998558   -0.048822
     27          8           0       -5.221256   -2.084204    0.527198
     28          8           0       -6.105537   -0.566407   -0.767199
 ---------------------------------------------------------------------

 SCF Done:  E(RHF) =  -868.340475407     A.U. after   16 cycles
 E2 =    -0.2598592221D+01 EUMP2 =    -0.87093906762821D+03

 The electronic state is 1-A.
 Alpha  occ. eigenvalues --  -20.61907 -20.61872 -20.59944 -20.59938 -15.86888
 Alpha  occ. eigenvalues --  -15.84993 -11.31961 -11.30087 -11.28501 -11.28471
 Alpha  occ. eigenvalues --  -11.28167 -11.27435 -11.27413 -11.26695 -11.26667
 Alpha  occ. eigenvalues --  -11.26123 -11.25560 -11.25509  -1.60952  -1.59027
 Alpha  occ. eigenvalues --   -1.40506  -1.38589  -1.20104  -1.18231  -1.09554
 Alpha  occ. eigenvalues --   -1.07621  -1.05455  -1.03625  -0.96436  -0.94507
 Alpha  occ. eigenvalues --   -0.86867  -0.85009  -0.83273  -0.81379  -0.78357
 Alpha  occ. eigenvalues --   -0.76508  -0.73109  -0.72260  -0.71217  -0.71198
 Alpha  occ. eigenvalues --   -0.70349  -0.69208  -0.65753  -0.65448  -0.63870
 Alpha  occ. eigenvalues --   -0.63625  -0.62802  -0.61009  -0.55964  -0.53956
 Alpha  occ. eigenvalues --   -0.53798  -0.53537  -0.51933  -0.51715  -0.49890
 Alpha  occ. eigenvalues --   -0.49841  -0.47986  -0.47947  -0.45968  -0.44057
 Alpha  occ. eigenvalues --   -0.38066  -0.37046  -0.36079  -0.35250
 Alpha virt. eigenvalues --    0.04129   0.06065   0.10613   0.12432   0.15692
 Alpha virt. eigenvalues --    0.17655   0.20808   0.22696   0.26743   0.27677
 Alpha virt. eigenvalues --    0.28331   0.29729   0.30457   0.31860   0.32489

 Mulliken charges:
               1
     1  C   -0.169645
     2  C   -0.218594
     3  C   -0.170707
     4  C    0.156892
     5  C   -0.171209
     6  C   -0.218570
     7  H    0.228435
     8  H    0.226486
     9  H    0.277616
    10  H    0.275136
    11  H    0.225536
    12  N    0.487590
    13  O   -0.468857
    14  O   -0.456303
    15  C   -0.165631
    16  C   -0.220145
    17  C   -0.171624
    18  C    0.156388
    19  C   -0.172278
    20  C   -0.219196
    21  H    0.245065
    22  H    0.222594
    23  H    0.271869
    24  H    0.270419
    25  H    0.218213
    26  N    0.488421
    27  O   -0.464519
    28  O   -0.463379
 Sum of Mulliken charges =  -0.00000

 Dipole moment (field-independent basis, Debye):
    X=              9.1266    Y=              0.2818    Z=              1.4227  Tot=              9.2411
 Quadrupole moment (field-independent basis, Debye-Ang):
   XX=           -107.7367   YY=           -102.4760   ZZ=           -101.8994
   XY=            -23.7722   XZ=              2.8228   YZ=              1.4164

 Normal termination of Gaussian 16 at Thu May  6 08:20:51 2021.
