 Gaussian 16, Revision A.03,
 Gaussian 16:  EM64L-G16RevA.03 25-Dec-2016

 -------------
 #p 6-31g* mp2
 -------------

 ------------------------------------------------------
 Input file generated by CHIRIPA (05-May-2021 14:53:14)
 ------------------------------------------------------
 Symbolic Z-matrix:
 Charge =  0 Multiplicity = 1

                         Standard orientation:
 ---------------------------------------------------------------------
 Center     Atomic      Atomic             Coordinates (Angstroms)
 Number     Number       Type             X           Y           Z
 ---------------------------------------------------------------------
      1          6           0       -2.468220    0.680656   -0.188189
      2          6           0       -3.343811    1.648041   -0.985366
      3          6           0       -2.752438    3.056046   -1.060152
      4          1           0       -2.327645    1.075273    0.827419
      5          1           0       -1.470851    0.636547   -0.647215
      6          1           0       -4.339655    1.689257   -0.525787
      7          1           0       -3.482477    1.250979   -1.999137
      8          1           0       -1.767808    3.035430   -1.538356
      9          1           0       -2.629856    3.476198   -0.056635
     10          1           0       -3.394469    3.731158   -1.634504
     11          6           0       -3.046130   -0.730989   -0.104488
     12          6           0       -2.170539   -1.698374    0.692689
     13          6           0       -2.761912   -3.106380    0.767475
     14          1           0       -4.043499   -0.686880    0.354538
     15          1           0       -3.186706   -1.125607   -1.120097
     16          1           0       -2.031873   -1.301313    1.706460
     17          1           0       -1.174695   -1.739591    0.233110
     18          1           0       -2.884494   -3.526532   -0.236042
     19          1           0       -3.746543   -3.085764    1.245678
     20          1           0       -2.119881   -3.781491    1.341827
     21          6           0        1.732201    1.558467    2.068822
     22          6           0        2.459476    2.013380    0.963994
     23          6           0        2.699259    1.169489   -0.124538
     24          6           0        2.194825   -0.129104   -0.074626
     25          6           0        1.466687   -0.611663    1.011763
     26          6           0        1.238997    0.249704    2.089144
     27          1           0        1.550629    2.220808    2.910089
     28          1           0        2.843711    3.029286    0.945468
     29          1           0        3.259170    1.495800   -0.992546
     30          1           0        1.096373   -1.629591    1.001321
     31          1           0        0.673859   -0.106299    2.945839
     32          7           0        2.442272   -1.031744   -1.221104
     33          8           0        1.987133   -2.171398   -1.152725
     34          8           0        3.086672   -0.582488   -2.166384
 ---------------------------------------------------------------------

 SCF Done:  E(RHF) =  -669.535303338     A.U. after   15 cycles
 E2 =    -0.2093124296D+01 EUMP2 =    -0.67162842763353D+03

 The electronic state is 1-A.
 Alpha  occ. eigenvalues --  -20.60828 -20.60823 -15.85873 -11.31198 -11.27770
 Alpha  occ. eigenvalues --  -11.27741 -11.27502 -11.26768 -11.26754 -11.21835
 Alpha  occ. eigenvalues --  -11.21713 -11.21528 -11.21468 -11.21238 -11.21170
 Alpha  occ. eigenvalues --   -1.59900  -1.39454  -1.19371  -1.08772  -1.08575
 Alpha  occ. eigenvalues --   -1.04767  -1.03685  -0.96114  -0.95614  -0.87134
 Alpha  occ. eigenvalues --   -0.86171  -0.82446  -0.79783  -0.78421  -0.77476
 Alpha  occ. eigenvalues --   -0.72090  -0.71222  -0.70487  -0.65230  -0.65021
 Alpha  occ. eigenvalues --   -0.64748  -0.62147  -0.61061  -0.59487  -0.57740
 Alpha  occ. eigenvalues --   -0.55394  -0.55268  -0.53148  -0.52878  -0.52779
 Alpha  occ. eigenvalues --   -0.52538  -0.50045  -0.48850  -0.48847  -0.48077
 Alpha  occ. eigenvalues --   -0.46787  -0.45935  -0.45846  -0.44847  -0.43929
 Alpha  occ. eigenvalues --   -0.37343  -0.36307
 Alpha virt. eigenvalues --    0.05009   0.11189   0.16489   0.20789   0.22833
 Alpha virt. eigenvalues --    0.24035   0.25854   0.26256   0.27471   0.28176
 Alpha virt. eigenvalues --    0.28915   0.29849   0.31508   0.31756   0.32022

 Mulliken charges:
               1
     1  C   -0.298228
     2  C   -0.300067
     3  C   -0.475339
     4  H    0.144712
     5  H    0.152470
     6  H    0.151302
     7  H    0.154614
     8  H    0.156037
     9  H    0.151842
    10  H    0.160878
    11  C   -0.298094
    12  C   -0.306237
    13  C   -0.474915
    14  H    0.148836
    15  H    0.154253
    16  H    0.142157
    17  H    0.158854
    18  H    0.161071
    19  H    0.154392
    20  H    0.158661
    21  C   -0.170581
    22  C   -0.218189
    23  C   -0.171419
    24  C    0.156809
    25  C   -0.168953
    26  C   -0.217782
    27  H    0.225562
    28  H    0.223499
    29  H    0.275458
    30  H    0.277929
    31  H    0.223885
    32  N    0.488487
    33  O   -0.461910
    34  O   -0.459995
 Sum of Mulliken charges =  -0.00000

 Dipole moment (field-independent basis, Debye):
    X=             -0.8695    Y=              3.1508    Z=              3.9516  Tot=              5.1282
 Quadrupole moment (field-independent basis, Debye-Ang):
   XX=            -97.8215   YY=            -94.2700   ZZ=            -94.1305
   XY=              9.0336   XZ=              7.5883   YZ=             -2.1445

 Normal termination of Gaussian 16 at Thu May  6 08:59:18 2021.
