 Gaussian 16, Revision A.03,
 Gaussian 16:  EM64L-G16RevA.03 25-Dec-2016

 -------------
 #p 6-31g* mp2
 -------------

 ------------------------------------------------------
 Input file generated by CHIRIPA (05-May-2021 14:51:12)
 ------------------------------------------------------
 Symbolic Z-matrix:
 Charge =  0 Multiplicity = 1

                         Standard orientation:
 ---------------------------------------------------------------------
 Center     Atomic      Atomic             Coordinates (Angstroms)
 Number     Number       Type             X           Y           Z
 ---------------------------------------------------------------------
      1          6           0       -2.363107   -0.374657   -0.565015
      2          6           0       -2.785374    1.076343   -0.332043
      3          6           0       -3.353941    1.735640   -1.588965
      4          1           0       -1.614676   -0.407541   -1.368579
      5          1           0       -3.229667   -0.948709   -0.921293
      6          1           0       -1.918611    1.647177    0.025009
      7          1           0       -3.532745    1.105797    0.471191
      8          1           0       -4.234675    1.191267   -1.944728
      9          1           0       -2.611369    1.735723   -2.393445
     10          1           0       -3.649394    2.772373   -1.399880
     11          6           0       -1.792699   -1.047330    0.682331
     12          6           0       -1.370433   -2.498330    0.449359
     13          6           0       -0.801865   -3.157627    1.706281
     14          1           0       -0.926140   -0.473278    1.038609
     15          1           0       -2.541130   -1.014446    1.485895
     16          1           0       -0.623062   -2.527783   -0.353875
     17          1           0       -2.237196   -3.069163    0.092306
     18          1           0       -1.544437   -3.157710    2.510760
     19          1           0        0.078868   -2.613253    2.062044
     20          1           0       -0.506412   -4.194359    1.517195
     21          6           0        2.180902    0.293806   -0.690147
     22          6           0        2.841122   -1.059066   -0.422138
     23          6           0        3.040485   -1.882103   -1.695190
     24          1           0        1.210539    0.130713   -1.178757
     25          1           0        2.797678    0.860467   -1.401399
     26          1           0        2.223996   -1.622447    0.289461
     27          1           0        3.809941   -0.892741    0.066064
     28          1           0        3.674526   -1.343439   -2.406831
     29          1           0        2.079570   -2.077291   -2.182164
     30          1           0        3.513880   -2.845266   -1.480539
     31          6           0        1.974904    1.128179    0.572831
     32          6           0        1.314685    2.481054    0.304823
     33          6           0        1.115322    3.304090    1.577873
     34          1           0        1.358129    0.561520    1.284083
     35          1           0        2.945269    1.291274    1.061441
     36          1           0        0.345865    2.314728   -0.183379
     37          1           0        1.931811    3.044434   -0.406777
     38          1           0        2.076237    3.499278    2.064848
     39          1           0        0.481281    2.765426    2.289516
     40          1           0        0.641927    4.267252    1.363223
 ---------------------------------------------------------------------

 SCF Done:  E(RHF) =  -470.732914806     A.U. after   11 cycles
 E2 =    -0.1585751452D+01 EUMP2 =    -0.47231866625795D+03

 The electronic state is 1-A.
 Alpha  occ. eigenvalues --  -11.21669 -11.21659 -11.21651 -11.21638 -11.21478
 Alpha  occ. eigenvalues --  -11.21472 -11.21419 -11.21412 -11.21138 -11.21127
 Alpha  occ. eigenvalues --  -11.21115 -11.21108  -1.08571  -1.08433  -1.03631
 Alpha  occ. eigenvalues --   -1.03551  -0.96070  -0.96008  -0.87058  -0.87051
 Alpha  occ. eigenvalues --   -0.79719  -0.79594  -0.78363  -0.78276  -0.65693
 Alpha  occ. eigenvalues --   -0.64603  -0.61316  -0.60692  -0.59423  -0.59388
 Alpha  occ. eigenvalues --   -0.57652  -0.57646  -0.55553  -0.55122  -0.52731
 Alpha  occ. eigenvalues --   -0.52722  -0.52511  -0.52410  -0.50039  -0.49959
 Alpha  occ. eigenvalues --   -0.48114  -0.47885  -0.46940  -0.46503  -0.46157
 Alpha  occ. eigenvalues --   -0.45879  -0.45583  -0.45427  -0.43851  -0.43835
 Alpha virt. eigenvalues --    0.17728   0.21350   0.22862   0.24482   0.25537
 Alpha virt. eigenvalues --    0.26558   0.27099   0.27950   0.28571   0.30195
 Alpha virt. eigenvalues --    0.31033   0.31542   0.31694   0.31997   0.32472

 Mulliken charges:
               1
     1  C   -0.299944
     2  C   -0.307069
     3  C   -0.475716
     4  H    0.150502
     5  H    0.150218
     6  H    0.158417
     7  H    0.152506
     8  H    0.155485
     9  H    0.155256
    10  H    0.160538
    11  C   -0.304815
    12  C   -0.301427
    13  C   -0.477542
    14  H    0.155270
    15  H    0.150171
    16  H    0.153327
    17  H    0.152529
    18  H    0.155577
    19  H    0.155964
    20  H    0.160876
    21  C   -0.301607
    22  C   -0.303154
    23  C   -0.476317
    24  H    0.151918
    25  H    0.150170
    26  H    0.155174
    27  H    0.152424
    28  H    0.155475
    29  H    0.155167
    30  H    0.160799
    31  C   -0.302023
    32  C   -0.306743
    33  C   -0.476014
    34  H    0.151980
    35  H    0.150625
    36  H    0.157596
    37  H    0.152694
    38  H    0.155581
    39  H    0.155586
    40  H    0.160547
 Sum of Mulliken charges =  -0.00000

 Dipole moment (field-independent basis, Debye):
    X=              0.0014    Y=              0.0055    Z=              0.0065  Tot=              0.0087
 Quadrupole moment (field-independent basis, Debye-Ang):
   XX=            -83.1659   YY=            -85.3043   ZZ=            -86.0486
   XY=              1.1157   XZ=             -0.5594   YZ=             -0.2276

 Normal termination of Gaussian 16 at Wed May  5 18:21:06 2021.
