 Gaussian 16, Revision A.03,
 Gaussian 16:  EM64L-G16RevA.03 25-Dec-2016

 -------------
 #p 6-31g* mp2
 -------------

 ------------------------------------------------------
 Input file generated by CHIRIPA (05-May-2021 14:53:14)
 ------------------------------------------------------
 Symbolic Z-matrix:
 Charge =  0 Multiplicity = 1

                         Standard orientation:
 ---------------------------------------------------------------------
 Center     Atomic      Atomic             Coordinates (Angstroms)
 Number     Number       Type             X           Y           Z
 ---------------------------------------------------------------------
      1          6           0       -4.079453   -0.125630   -0.643018
      2          6           0       -4.866633   -0.780887    0.492310
      3          6           0       -5.961058   -1.721379   -0.013160
      4          1           0       -4.773219    0.430205   -1.288527
      5          1           0       -3.630455   -0.909502   -1.268590
      6          1           0       -5.312868    0.004006    1.116357
      7          1           0       -4.170886   -1.335068    1.135300
      8          1           0       -5.529187   -2.524830   -0.618598
      9          1           0       -6.677657   -1.178148   -0.637649
     10          1           0       -6.511261   -2.178885    0.814985
     11          6           0       -2.981786    0.817401   -0.153581
     12          6           0       -2.194606    1.472658   -1.288909
     13          6           0       -1.100181    2.413150   -0.783439
     14          1           0       -3.430783    1.601273    0.471991
     15          1           0       -2.288020    0.261566    0.491928
     16          1           0       -2.890353    2.026839   -1.931899
     17          1           0       -1.748371    0.687765   -1.912956
     18          1           0       -0.383581    1.869919   -0.158950
     19          1           0       -1.532052    3.216601   -0.178001
     20          1           0       -0.549977    2.870656   -1.611584
     21          6           0        0.844445    0.351112    1.833354
     22          6           0        0.880262   -0.912096    1.233733
     23          6           0        1.935792   -1.267177    0.388557
     24          6           0        2.943321   -0.330291    0.164013
     25          6           0        2.935925    0.936091    0.746688
     26          6           0        1.870582    1.269554    1.588349
     27          1           0        0.020672    0.618551    2.488542
     28          1           0        0.084723   -1.627389    1.422198
     29          1           0        1.988482   -2.238212   -0.088657
     30          1           0        3.743417    1.627867    0.539756
     31          1           0        1.845383    2.251301    2.052659
     32          7           0        4.065957   -0.694756   -0.728877
     33          8           0        4.941384    0.148593   -0.910608
     34          8           0        4.049196   -1.816874   -1.230085
 ---------------------------------------------------------------------

 SCF Done:  E(RHF) =  -669.534667131     A.U. after   15 cycles
 E2 =    -0.2093418905D+01 EUMP2 =    -0.67162808603684D+03

 The electronic state is 1-A.
 Alpha  occ. eigenvalues --  -20.60834 -20.60829 -15.85889 -11.31291 -11.27875
 Alpha  occ. eigenvalues --  -11.27858 -11.27593 -11.26890 -11.26852 -11.22185
 Alpha  occ. eigenvalues --  -11.22026 -11.21963 -11.21899 -11.21540 -11.21277
 Alpha  occ. eigenvalues --   -1.59909  -1.39461  -1.19482  -1.08972  -1.08856
 Alpha  occ. eigenvalues --   -1.04880  -1.03984  -0.96435  -0.95691  -0.87456
 Alpha  occ. eigenvalues --   -0.86272  -0.82515  -0.80062  -0.78795  -0.77554
 Alpha  occ. eigenvalues --   -0.72107  -0.71232  -0.70575  -0.65604  -0.65125
 Alpha  occ. eigenvalues --   -0.64865  -0.62217  -0.61403  -0.59806  -0.58067
 Alpha  occ. eigenvalues --   -0.55794  -0.55370  -0.53385  -0.53096  -0.52963
 Alpha  occ. eigenvalues --   -0.52721  -0.50346  -0.48868  -0.48859  -0.48363
 Alpha  occ. eigenvalues --   -0.47089  -0.46329  -0.46252  -0.44859  -0.44262
 Alpha  occ. eigenvalues --   -0.37344  -0.36470
 Alpha virt. eigenvalues --    0.04953   0.11035   0.16392   0.20346   0.22671
 Alpha virt. eigenvalues --    0.23997   0.25460   0.26627   0.27240   0.28081
 Alpha virt. eigenvalues --    0.28943   0.30714   0.31223   0.31564   0.31688

 Mulliken charges:
               1
     1  C   -0.298671
     2  C   -0.298847
     3  C   -0.475917
     4  H    0.152434
     5  H    0.150439
     6  H    0.152321
     7  H    0.146382
     8  H    0.155951
     9  H    0.157073
    10  H    0.160933
    11  C   -0.298628
    12  C   -0.298050
    13  C   -0.486997
    14  H    0.148644
    15  H    0.140490
    16  H    0.153234
    17  H    0.154046
    18  H    0.165508
    19  H    0.150029
    20  H    0.162292
    21  C   -0.174280
    22  C   -0.217235
    23  C   -0.171129
    24  C    0.158874
    25  C   -0.169773
    26  C   -0.217638
    27  H    0.228623
    28  H    0.224142
    29  H    0.276107
    30  H    0.276373
    31  H    0.225360
    32  N    0.488084
    33  O   -0.459953
    34  O   -0.460222
 Sum of Mulliken charges =  -0.00000

 Dipole moment (field-independent basis, Debye):
    X=             -3.8942    Y=              1.2633    Z=              3.1257  Tot=              5.1508
 Quadrupole moment (field-independent basis, Debye-Ang):
   XX=           -117.7539   YY=            -91.7284   ZZ=            -94.2945
   XY=              6.3194   XZ=              9.0744   YZ=             -0.1256

 Normal termination of Gaussian 16 at Thu May  6 04:13:46 2021.
