 Gaussian 16, Revision A.03,
 Gaussian 16:  EM64L-G16RevA.03 25-Dec-2016

 -------------
 #p 6-31g* mp2
 -------------

 ------------------------------------------------------
 Input file generated by CHIRIPA (05-May-2021 14:51:09)
 ------------------------------------------------------
 Symbolic Z-matrix:
 Charge =  0 Multiplicity = 1

                         Standard orientation:
 ---------------------------------------------------------------------
 Center     Atomic      Atomic             Coordinates (Angstroms)
 Number     Number       Type             X           Y           Z
 ---------------------------------------------------------------------
      1          6           0        3.122902    0.335214    0.806744
      2          6           0        1.741991   -0.158984    1.238991
      3          6           0        0.963521    0.886386    2.038353
      4          1           0        3.698548    0.620915    1.697784
      5          1           0        3.006424    1.246767    0.204333
      6          1           0        1.860956   -1.070112    1.839250
      7          1           0        1.169634   -0.443723    0.346832
      8          1           0        0.815450    1.793925    1.444174
      9          1           0        1.510700    1.163977    2.945072
     10          1           0       -0.020626    0.512197    2.337179
     11          6           0        3.913280   -0.698679    0.006684
     12          6           0        5.294191   -0.204480   -0.425563
     13          6           0        6.072661   -1.249851   -1.224925
     14          1           0        4.029758   -1.610232    0.609095
     15          1           0        3.337634   -0.984380   -0.884356
     16          1           0        5.866548    0.080258    0.466596
     17          1           0        5.175226    0.706647   -1.025822
     18          1           0        5.525482   -1.527442   -2.131644
     19          1           0        6.220732   -2.157390   -0.630746
     20          1           0        7.056808   -0.875662   -1.523751
     21          6           0       -3.187290    0.864445   -0.317800
     22          6           0       -1.891562    1.018825   -1.114820
     23          6           0       -1.241571    2.389917   -0.926644
     24          1           0       -3.892357    1.650713   -0.620467
     25          1           0       -2.975656    1.027761    0.748003
     26          1           0       -2.105320    0.853901   -2.178645
     27          1           0       -1.189568    0.231981   -0.810356
     28          1           0       -1.000009    2.560323    0.127495
     29          1           0       -1.920964    3.185777   -1.248567
     30          1           0       -0.316797    2.478620   -1.505249
     31          6           0       -3.848892   -0.500981   -0.495628
     32          6           0       -5.144620   -0.655360    0.301392
     33          6           0       -5.794610   -2.026452    0.113216
     34          1           0       -4.060526   -0.664296   -1.561430
     35          1           0       -3.143824   -1.287248   -0.192960
     36          1           0       -5.846614    0.131483   -0.003071
     37          1           0       -4.930862   -0.490437    1.365217
     38          1           0       -5.115218   -2.822312    0.435139
     39          1           0       -6.036174   -2.196859   -0.940923
     40          1           0       -6.719385   -2.115155    0.691821
 ---------------------------------------------------------------------

 SCF Done:  E(RHF) =  -470.732971326     A.U. after   11 cycles
 E2 =    -0.1583376311D+01 EUMP2 =    -0.47231634763747D+03

 The electronic state is 1-A.
 Alpha  occ. eigenvalues --  -11.21633 -11.21610 -11.21602 -11.21602 -11.21420
 Alpha  occ. eigenvalues --  -11.21404 -11.21361 -11.21345 -11.21078 -11.21077
 Alpha  occ. eigenvalues --  -11.21071 -11.21046  -1.08459  -1.08417  -1.03591
 Alpha  occ. eigenvalues --   -1.03488  -0.96048  -0.95932  -0.87063  -0.86955
 Alpha  occ. eigenvalues --   -0.79681  -0.79534  -0.78285  -0.78214  -0.65208
 Alpha  occ. eigenvalues --   -0.64955  -0.61253  -0.60648  -0.59366  -0.59340
 Alpha  occ. eigenvalues --   -0.57646  -0.57561  -0.55585  -0.54970  -0.52700
 Alpha  occ. eigenvalues --   -0.52678  -0.52475  -0.52349  -0.50204  -0.49661
 Alpha  occ. eigenvalues --   -0.47997  -0.47830  -0.46909  -0.46385  -0.45872
 Alpha  occ. eigenvalues --   -0.45782  -0.45727  -0.45550  -0.43802  -0.43785
 Alpha virt. eigenvalues --    0.20084   0.23116   0.23668   0.25571   0.25822
 Alpha virt. eigenvalues --    0.26303   0.26424   0.27830   0.28201   0.29224
 Alpha virt. eigenvalues --    0.30474   0.30865   0.31376   0.31685   0.32283

 Mulliken charges:
               1
     1  C   -0.298407
     2  C   -0.303260
     3  C   -0.480158
     4  H    0.149765
     5  H    0.150037
     6  H    0.151940
     7  H    0.154881
     8  H    0.161051
     9  H    0.155238
    10  H    0.159089
    11  C   -0.298429
    12  C   -0.299678
    13  C   -0.475729
    14  H    0.149513
    15  H    0.149709
    16  H    0.151977
    17  H    0.151990
    18  H    0.155222
    19  H    0.155180
    20  H    0.160302
    21  C   -0.298842
    22  C   -0.303535
    23  C   -0.479500
    24  H    0.149713
    25  H    0.150285
    26  H    0.151803
    27  H    0.155729
    28  H    0.160478
    29  H    0.155135
    30  H    0.158653
    31  C   -0.298414
    32  C   -0.299645
    33  C   -0.475717
    34  H    0.149490
    35  H    0.149616
    36  H    0.151977
    37  H    0.151902
    38  H    0.155201
    39  H    0.155172
    40  H    0.160267
 Sum of Mulliken charges =  -0.00000

 Dipole moment (field-independent basis, Debye):
    X=              0.0092    Y=              0.0105    Z=              0.0080  Tot=              0.0160
 Quadrupole moment (field-independent basis, Debye-Ang):
   XX=            -85.1391   YY=            -85.8353   ZZ=            -83.7971
   XY=             -0.4459   XZ=              1.1548   YZ=             -0.9798

 Normal termination of Gaussian 16 at Thu May  6 00:34:35 2021.
