 Gaussian 16, Revision A.03,
 Gaussian 16:  EM64L-G16RevA.03 25-Dec-2016

 -------------
 #p 6-31g* mp2
 -------------

 ------------------------------------------------------
 Input file generated by CHIRIPA (05-May-2021 14:55:24)
 ------------------------------------------------------
 Symbolic Z-matrix:
 Charge =  0 Multiplicity = 1

                         Standard orientation:
 ---------------------------------------------------------------------
 Center     Atomic      Atomic             Coordinates (Angstroms)
 Number     Number       Type             X           Y           Z
 ---------------------------------------------------------------------
      1          6           0       -2.323091    2.218445   -0.062321
      2          6           0       -1.752286    0.985497    0.270155
      3          6           0       -2.512491   -0.186553    0.215969
      4          6           0       -3.846486   -0.088606   -0.176658
      5          6           0       -4.443833    1.124930   -0.513996
      6          6           0       -3.664677    2.284111   -0.452648
      7          1           0       -1.725184    3.123923   -0.017446
      8          1           0       -0.710638    0.931492    0.573633
      9          1           0       -2.095865   -1.154191    0.467992
     10          1           0       -5.484793    1.147069   -0.812878
     11          1           0       -4.110621    3.240259   -0.711416
     12          7           0       -4.661312   -1.322590   -0.237813
     13          8           0       -5.834373   -1.209540   -0.586791
     14          8           0       -4.111483   -2.379472    0.064388
     15          6           0        5.431350    0.149446    0.030035
     16          6           0        6.180310   -0.660199   -1.028983
     17          6           0        7.538440   -0.054727   -1.384907
     18          1           0        5.292467    1.176854   -0.333407
     19          1           0        6.051239    0.219009    0.934631
     20          1           0        5.558612   -0.729387   -1.930824
     21          1           0        6.317258   -1.685849   -0.663056
     22          1           0        8.180087   -0.000683   -0.499486
     23          1           0        7.417131    0.961213   -1.774459
     24          1           0        8.056669   -0.649376   -2.143651
     25          6           0        4.071862   -0.443257    0.396406
     26          6           0        3.322903    0.366388    1.455424
     27          6           0        1.964773   -0.239083    1.811348
     28          1           0        3.451974   -0.512820   -0.508191
     29          1           0        4.210746   -1.470665    0.759848
     30          1           0        3.185955    1.392039    1.089497
     31          1           0        3.944601    0.435577    2.357265
     32          1           0        2.086082   -1.255024    2.200899
     33          1           0        1.323126   -0.293128    0.925927
     34          1           0        1.446544    0.355565    2.570091
 ---------------------------------------------------------------------

 SCF Done:  E(RHF) =  -669.535536662     A.U. after   15 cycles
 E2 =    -0.2090827359D+01 EUMP2 =    -0.67162636402124D+03

 The electronic state is 1-A.
 Alpha  occ. eigenvalues --  -20.60710 -20.60705 -15.85763 -11.31119 -11.27691
 Alpha  occ. eigenvalues --  -11.27669 -11.27425 -11.26709 -11.26638 -11.22411
 Alpha  occ. eigenvalues --  -11.22130 -11.22002 -11.21987 -11.21861 -11.21397
 Alpha  occ. eigenvalues --   -1.59786  -1.39340  -1.19288  -1.09023  -1.08686
 Alpha  occ. eigenvalues --   -1.04689  -1.04159  -0.96625  -0.95523  -0.87651
 Alpha  occ. eigenvalues --   -0.86086  -0.82356  -0.80230  -0.78797  -0.77402
 Alpha  occ. eigenvalues --   -0.71981  -0.71109  -0.70402  -0.65670  -0.64939
 Alpha  occ. eigenvalues --   -0.64703  -0.62108  -0.61500  -0.60003  -0.58208
 Alpha  occ. eigenvalues --   -0.55942  -0.55184  -0.53358  -0.53068  -0.53015
 Alpha  occ. eigenvalues --   -0.52731  -0.50541  -0.48739  -0.48737  -0.48534
 Alpha  occ. eigenvalues --   -0.47246  -0.46347  -0.46249  -0.44747  -0.44393
 Alpha  occ. eigenvalues --   -0.37274  -0.36291
 Alpha virt. eigenvalues --    0.05126   0.11351   0.16608   0.20141   0.22530
 Alpha virt. eigenvalues --    0.23704   0.25638   0.26353   0.27033   0.28266
 Alpha virt. eigenvalues --    0.28845   0.30533   0.31019   0.31429   0.32158

 Mulliken charges:
               1
     1  C   -0.172240
     2  C   -0.226036
     3  C   -0.173298
     4  C    0.158671
     5  C   -0.171346
     6  C   -0.218393
     7  H    0.225549
     8  H    0.234234
     9  H    0.275661
    10  H    0.275325
    11  H    0.222997
    12  N    0.488102
    13  O   -0.460776
    14  O   -0.460421
    15  C   -0.298689
    16  C   -0.300185
    17  C   -0.476013
    18  H    0.149145
    19  H    0.150714
    20  H    0.152499
    21  H    0.153312
    22  H    0.155765
    23  H    0.155075
    24  H    0.161769
    25  C   -0.299188
    26  C   -0.299606
    27  C   -0.482996
    28  H    0.149641
    29  H    0.152382
    30  H    0.149813
    31  H    0.156053
    32  H    0.163083
    33  H    0.148781
    34  H    0.160616
 Sum of Mulliken charges =  -0.00000

 Dipole moment (field-independent basis, Debye):
    X=              3.1056    Y=              4.3036    Z=              0.2543  Tot=              5.3132
 Quadrupole moment (field-independent basis, Debye-Ang):
   XX=           -114.0830   YY=            -94.3206   ZZ=            -94.6613
   XY=            -20.2647   XZ=              0.8330   YZ=             -2.1077

 Normal termination of Gaussian 16 at Wed May  5 16:05:26 2021.
