 Gaussian 16, Revision A.03,
 Gaussian 16:  EM64L-G16RevA.03 25-Dec-2016

 -------------
 #p 6-31g* mp2
 -------------

 ------------------------------------------------------
 Input file generated by CHIRIPA (05-May-2021 14:51:08)
 ------------------------------------------------------
 Symbolic Z-matrix:
 Charge =  0 Multiplicity = 1

                         Standard orientation:
 ---------------------------------------------------------------------
 Center     Atomic      Atomic             Coordinates (Angstroms)
 Number     Number       Type             X           Y           Z
 ---------------------------------------------------------------------
      1          6           0        4.558399   -0.271384   -0.167135
      2          6           0        4.408228   -1.755770    0.167577
      3          6           0        5.710921   -2.536428   -0.009505
      4          1           0        4.910797   -0.169368   -1.202680
      5          1           0        5.338076    0.164568    0.472743
      6          1           0        3.628099   -2.188479   -0.471782
      7          1           0        4.055962   -1.854260    1.202383
      8          1           0        6.493867   -2.131762    0.639988
      9          1           0        6.063573   -2.467880   -1.043690
     10          1           0        5.580861   -3.595252    0.235110
     11          6           0        3.264562    0.522379    0.005067
     12          6           0        3.414733    2.006765   -0.329645
     13          6           0        2.112040    2.787423   -0.152563
     14          1           0        2.484884    0.086426   -0.634811
     15          1           0        2.912164    0.420363    1.040612
     16          1           0        3.766998    2.105254   -1.364451
     17          1           0        4.194861    2.439473    0.309714
     18          1           0        1.759388    2.718874    0.881622
     19          1           0        1.329094    2.382756   -0.802056
     20          1           0        2.242100    3.846246   -0.397178
     21          6           0       -3.373955    0.349476    0.343521
     22          6           0       -1.950216   -0.122683    0.046843
     23          6           0       -0.886018    0.838022    0.578182
     24          1           0       -3.522943    1.344439   -0.097836
     25          1           0       -3.494782    0.467867    1.429237
     26          1           0       -1.832533   -0.241478   -1.037894
     27          1           0       -1.804662   -1.116720    0.488793
     28          1           0       -0.974779    0.949078    1.663718
     29          1           0       -1.002809    1.829293    0.128357
     30          1           0        0.124309    0.481153    0.355147
     31          6           0       -4.449005   -0.600471   -0.181453
     32          6           0       -5.872744   -0.128312    0.115225
     33          6           0       -6.936943   -1.089016   -0.416114
     34          1           0       -4.328178   -0.718862   -1.267169
     35          1           0       -4.300017   -1.595434    0.259904
     36          1           0       -6.018299    0.865725   -0.326725
     37          1           0       -5.990428   -0.009517    1.199962
     38          1           0       -6.820152   -2.080287    0.033711
     39          1           0       -6.848181   -1.200072   -1.501651
     40          1           0       -7.947269   -0.732147   -0.193078
 ---------------------------------------------------------------------

 SCF Done:  E(RHF) =  -470.731908110     A.U. after   11 cycles
 E2 =    -0.1583566908D+01 EUMP2 =    -0.47231547501859D+03

 The electronic state is 1-A.
 Alpha  occ. eigenvalues --  -11.21610 -11.21574 -11.21564 -11.21517 -11.21417
 Alpha  occ. eigenvalues --  -11.21360 -11.21357 -11.21298 -11.21076 -11.21051
 Alpha  occ. eigenvalues --  -11.20909 -11.20877  -1.08439  -1.08374  -1.03549
 Alpha  occ. eigenvalues --   -1.03433  -0.96016  -0.95862  -0.87068  -0.86853
 Alpha  occ. eigenvalues --   -0.79720  -0.79409  -0.78271  -0.78169  -0.65073
 Alpha  occ. eigenvalues --   -0.65005  -0.60973  -0.60818  -0.59557  -0.59101
 Alpha  occ. eigenvalues --   -0.57585  -0.57523  -0.55347  -0.55112  -0.52784
 Alpha  occ. eigenvalues --   -0.52656  -0.52422  -0.52159  -0.50009  -0.49745
 Alpha  occ. eigenvalues --   -0.47860  -0.47844  -0.46672  -0.46485  -0.45802
 Alpha  occ. eigenvalues --   -0.45732  -0.45706  -0.45639  -0.43779  -0.43603
 Alpha virt. eigenvalues --    0.22107   0.23067   0.23573   0.24910   0.26473
 Alpha virt. eigenvalues --    0.26580   0.26790   0.27133   0.27885   0.29216
 Alpha virt. eigenvalues --    0.30119   0.30970   0.31478   0.31981   0.32161

 Mulliken charges:
               1
     1  C   -0.297654
     2  C   -0.299745
     3  C   -0.475710
     4  H    0.149682
     5  H    0.149719
     6  H    0.151827
     7  H    0.151960
     8  H    0.155229
     9  H    0.155204
    10  H    0.160285
    11  C   -0.301757
    12  C   -0.299442
    13  C   -0.478104
    14  H    0.150273
    15  H    0.150687
    16  H    0.151368
    17  H    0.151553
    18  H    0.157553
    19  H    0.159113
    20  H    0.158660
    21  C   -0.298415
    22  C   -0.300393
    23  C   -0.482029
    24  H    0.149532
    25  H    0.149367
    26  H    0.150685
    27  H    0.151418
    28  H    0.153333
    29  H    0.156511
    30  H    0.169745
    31  C   -0.298110
    32  C   -0.299570
    33  C   -0.475660
    34  H    0.149270
    35  H    0.149517
    36  H    0.151874
    37  H    0.151863
    38  H    0.155116
    39  H    0.155092
    40  H    0.160154
 Sum of Mulliken charges =  -0.00000

 Dipole moment (field-independent basis, Debye):
    X=              0.0353    Y=              0.0125    Z=              0.0061  Tot=              0.0379
 Quadrupole moment (field-independent basis, Debye-Ang):
   XX=            -86.4558   YY=            -85.3946   ZZ=            -83.1405
   XY=              0.0586   XZ=              0.0732   YZ=             -0.5094

 Normal termination of Gaussian 16 at Wed May  5 18:05:25 2021.
