 Gaussian 16, Revision A.03,
 Gaussian 16:  EM64L-G16RevA.03 25-Dec-2016

 -------------
 #p 6-31g* mp2
 -------------

 ------------------------------------------------------
 Input file generated by CHIRIPA (05-May-2021 14:53:14)
 ------------------------------------------------------
 Symbolic Z-matrix:
 Charge =  0 Multiplicity = 1

                         Standard orientation:
 ---------------------------------------------------------------------
 Center     Atomic      Atomic             Coordinates (Angstroms)
 Number     Number       Type             X           Y           Z
 ---------------------------------------------------------------------
      1          6           0       -3.394034   -0.326999    0.188393
      2          6           0       -3.267240   -1.643330    0.955974
      3          6           0       -1.822247   -2.133284    1.054648
      4          1           0       -2.979713   -0.456990   -0.820758
      5          1           0       -2.779371    0.438166    0.682466
      6          1           0       -3.883050   -2.405424    0.461396
      7          1           0       -3.682085   -1.510244    1.963351
      8          1           0       -1.198865   -1.393692    1.567483
      9          1           0       -1.400972   -2.293958    0.056995
     10          1           0       -1.754690   -3.075592    1.607234
     11          6           0       -4.832634    0.175680    0.081279
     12          6           0       -4.959428    1.492011   -0.686302
     13          6           0       -6.404420    1.981965   -0.784976
     14          1           0       -5.447297   -0.589485   -0.412794
     15          1           0       -5.246955    0.305671    1.090430
     16          1           0       -4.544583    1.358925   -1.693679
     17          1           0       -4.343618    2.254104   -0.191724
     18          1           0       -6.825696    2.142639    0.212677
     19          1           0       -7.027802    1.242373   -1.297811
     20          1           0       -6.471978    2.924273   -1.337562
     21          6           0        4.484947    2.079794    0.710921
     22          6           0        4.846484    1.464170   -0.491916
     23          6           0        4.149095    0.343993   -0.953870
     24          6           0        3.090628   -0.136244   -0.184254
     25          6           0        2.706391    0.455099    1.018229
     26          6           0        3.417936    1.574186    1.460833
     27          1           0        5.032194    2.949551    1.062262
     28          1           0        5.674711    1.854657   -1.076386
     29          1           0        4.407783   -0.152032   -1.881478
     30          1           0        1.876269    0.042925    1.578968
     31          1           0        3.134940    2.050252    2.395349
     32          7           0        2.344840   -1.321547   -0.663061
     33          8           0        1.416131   -1.725288    0.033453
     34          8           0        2.703122   -1.824403   -1.725796
 ---------------------------------------------------------------------

 SCF Done:  E(RHF) =  -669.535452915     A.U. after   15 cycles
 E2 =    -0.2091179535D+01 EUMP2 =    -0.67162663245035D+03

 The electronic state is 1-A.
 Alpha  occ. eigenvalues --  -20.60846 -20.60829 -15.85875 -11.31237 -11.27807
 Alpha  occ. eigenvalues --  -11.27804 -11.27550 -11.26822 -11.26813 -11.21248
 Alpha  occ. eigenvalues --  -11.20902 -11.20793 -11.20746 -11.20684 -11.19696
 Alpha  occ. eigenvalues --   -1.59911  -1.39464  -1.19410  -1.08808  -1.07834
 Alpha  occ. eigenvalues --   -1.04813  -1.02847  -0.95654  -0.95255  -0.86275
 Alpha  occ. eigenvalues --   -0.86207  -0.82477  -0.78934  -0.77655  -0.77480
 Alpha  occ. eigenvalues --   -0.72097  -0.71228  -0.70519  -0.65065  -0.64817
 Alpha  occ. eigenvalues --   -0.64476  -0.62161  -0.60251  -0.58703  -0.56871
 Alpha  occ. eigenvalues --   -0.55316  -0.54552  -0.53143  -0.52905  -0.51952
 Alpha  occ. eigenvalues --   -0.51663  -0.49276  -0.48861  -0.48792  -0.47209
 Alpha  occ. eigenvalues --   -0.45982  -0.45191  -0.45086  -0.44776  -0.43117
 Alpha  occ. eigenvalues --   -0.37391  -0.36416
 Alpha virt. eigenvalues --    0.04999   0.11238   0.16483   0.21156   0.23372
 Alpha virt. eigenvalues --    0.24699   0.26430   0.27397   0.27666   0.28120
 Alpha virt. eigenvalues --    0.29182   0.30594   0.31631   0.32316   0.32668

 Mulliken charges:
               1
     1  C   -0.296506
     2  C   -0.301790
     3  C   -0.470450
     4  H    0.152097
     5  H    0.144550
     6  H    0.149867
     7  H    0.145943
     8  H    0.148683
     9  H    0.173650
    10  H    0.155825
    11  C   -0.297570
    12  C   -0.298972
    13  C   -0.475292
    14  H    0.149494
    15  H    0.147623
    16  H    0.152284
    17  H    0.149471
    18  H    0.154137
    19  H    0.155339
    20  H    0.158624
    21  C   -0.170641
    22  C   -0.218604
    23  C   -0.170662
    24  C    0.157776
    25  C   -0.171086
    26  C   -0.218728
    27  H    0.225770
    28  H    0.223602
    29  H    0.275710
    30  H    0.276355
    31  H    0.223616
    32  N    0.492007
    33  O   -0.461715
    34  O   -0.460410
 Sum of Mulliken charges =  -0.00000

 Dipole moment (field-independent basis, Debye):
    X=              2.8653    Y=              4.0849    Z=              1.5993  Tot=              5.2397
 Quadrupole moment (field-independent basis, Debye-Ang):
   XX=            -79.1686   YY=            -96.5237   ZZ=            -91.8589
   XY=             13.3626   XZ=              2.2475   YZ=              0.0000

 Normal termination of Gaussian 16 at Thu May  6 10:31:59 2021.
