 Gaussian 16, Revision A.03,
 Gaussian 16:  EM64L-G16RevA.03 25-Dec-2016

 -------------
 #p 6-31g* mp2
 -------------

 ------------------------------------------------------
 Input file generated by CHIRIPA (05-May-2021 14:55:20)
 ------------------------------------------------------
 Symbolic Z-matrix:
 Charge =  0 Multiplicity = 1

                         Standard orientation:
 ---------------------------------------------------------------------
 Center     Atomic      Atomic             Coordinates (Angstroms)
 Number     Number       Type             X           Y           Z
 ---------------------------------------------------------------------
      1          6           0       -1.457822    1.515892    1.592182
      2          6           0       -1.528203    0.169352    1.964198
      3          6           0       -2.360662   -0.715729    1.272683
      4          6           0       -3.112300   -0.218102    0.209339
      5          6           0       -3.063904    1.118008   -0.185322
      6          6           0       -2.224545    1.985096    0.520499
      7          1           0       -0.808467    2.196456    2.134924
      8          1           0       -0.933890   -0.197826    2.796074
      9          1           0       -2.434320   -1.763012    1.539496
     10          1           0       -3.668301    1.454648   -1.018866
     11          1           0       -2.171895    3.030330    0.229366
     12          7           0       -3.997239   -1.145573   -0.530309
     13          8           0       -4.649339   -0.682359   -1.463495
     14          8           0       -4.021998   -2.318178   -0.162855
     15          6           0        3.206560    0.556061   -0.317019
     16          6           0        2.237705    0.593157   -1.499359
     17          6           0        1.061633    1.542996   -1.270339
     18          1           0        2.660314    0.254233    0.587117
     19          1           0        3.584569    1.570668   -0.129734
     20          1           0        1.862699   -0.421455   -1.685235
     21          1           0        2.786361    0.894744   -2.400823
     22          1           0        1.418154    2.565125   -1.106796
     23          1           0        0.489242    1.241448   -0.387142
     24          1           0        0.381609    1.554009   -2.127840
     25          6           0        4.387554   -0.389036   -0.530962
     26          6           0        5.356408   -0.426132    0.651379
     27          6           0        6.532482   -1.375973    0.422359
     28          1           0        4.009545   -1.403644   -0.718247
     29          1           0        4.933800   -0.087210   -1.435098
     30          1           0        4.807753   -0.727720    1.552843
     31          1           0        5.731416    0.588479    0.837254
     32          1           0        7.104872   -1.074424   -0.460838
     33          1           0        6.175961   -2.398102    0.258816
     34          1           0        7.212505   -1.386986    1.279859
 ---------------------------------------------------------------------

 SCF Done:  E(RHF) =  -669.534552228     A.U. after   15 cycles
 E2 =    -0.2092704003D+01 EUMP2 =    -0.67162725623072D+03

 The electronic state is 1-A.
 Alpha  occ. eigenvalues --  -20.60806 -20.60800 -15.85860 -11.31246 -11.27829
 Alpha  occ. eigenvalues --  -11.27796 -11.27532 -11.26847 -11.26796 -11.21924
 Alpha  occ. eigenvalues --  -11.21853 -11.21760 -11.21666 -11.21327 -11.21255
 Alpha  occ. eigenvalues --   -1.59881  -1.39434  -1.19429  -1.08834  -1.08734
 Alpha  occ. eigenvalues --   -1.04826  -1.03811  -0.96272  -0.95646  -0.87294
 Alpha  occ. eigenvalues --   -0.86220  -0.82473  -0.79887  -0.78569  -0.77515
 Alpha  occ. eigenvalues --   -0.72078  -0.71204  -0.70529  -0.65377  -0.65074
 Alpha  occ. eigenvalues --   -0.64821  -0.62166  -0.61227  -0.59634  -0.57898
 Alpha  occ. eigenvalues --   -0.55659  -0.55323  -0.53405  -0.52929  -0.52895
 Alpha  occ. eigenvalues --   -0.52512  -0.50149  -0.48838  -0.48831  -0.48194
 Alpha  occ. eigenvalues --   -0.46903  -0.46108  -0.46032  -0.44835  -0.44082
 Alpha  occ. eigenvalues --   -0.37308  -0.36412
 Alpha virt. eigenvalues --    0.04996   0.11176   0.16443   0.21228   0.22611
 Alpha virt. eigenvalues --    0.24104   0.26274   0.27061   0.27175   0.27874
 Alpha virt. eigenvalues --    0.28484   0.30867   0.31231   0.31692   0.31776

 Mulliken charges:
               1
     1  C   -0.176018
     2  C   -0.218072
     3  C   -0.171129
     4  C    0.159149
     5  C   -0.170855
     6  C   -0.212442
     7  H    0.227168
     8  H    0.223835
     9  H    0.275832
    10  H    0.275886
    11  H    0.224764
    12  N    0.488043
    13  O   -0.460143
    14  O   -0.460399
    15  C   -0.297420
    16  C   -0.299043
    17  C   -0.483980
    18  H    0.144750
    19  H    0.147920
    20  H    0.154401
    21  H    0.152482
    22  H    0.148588
    23  H    0.164098
    24  H    0.160539
    25  C   -0.298514
    26  C   -0.299428
    27  C   -0.475866
    28  H    0.150974
    29  H    0.151039
    30  H    0.149838
    31  H    0.151421
    32  H    0.156096
    33  H    0.156078
    34  H    0.160411
 Sum of Mulliken charges =  -0.00000

 Dipole moment (field-independent basis, Debye):
    X=              3.0576    Y=              3.2479    Z=              2.6109  Tot=              5.1686
 Quadrupole moment (field-independent basis, Debye-Ang):
   XX=           -114.9654   YY=            -93.5364   ZZ=            -92.2111
   XY=            -11.4346   XZ=             -6.7756   YZ=             -2.6567

 Normal termination of Gaussian 16 at Wed May  5 22:09:48 2021.
