 Gaussian 16, Revision A.03,
 Gaussian 16:  EM64L-G16RevA.03 25-Dec-2016

 -------------
 #p 6-31g* mp2
 -------------

 ------------------------------------------------------
 Input file generated by CHIRIPA (05-May-2021 14:51:09)
 ------------------------------------------------------
 Symbolic Z-matrix:
 Charge =  0 Multiplicity = 1

                         Standard orientation:
 ---------------------------------------------------------------------
 Center     Atomic      Atomic             Coordinates (Angstroms)
 Number     Number       Type             X           Y           Z
 ---------------------------------------------------------------------
      1          6           0       -1.914330    0.960227    0.152724
      2          6           0       -2.334482    1.909515    1.275359
      3          6           0       -1.211203    2.855485    1.701009
      4          1           0       -1.045129    0.374742    0.482333
      5          1           0       -1.583379    1.550819   -0.712762
      6          1           0       -2.665850    1.317313    2.137976
      7          1           0       -3.202903    2.492672    0.943110
      8          1           0       -0.885154    3.471034    0.856383
      9          1           0       -0.345049    2.288996    2.058038
     10          1           0       -1.533220    3.525202    2.504529
     11          6           0       -3.026574    0.008310   -0.283735
     12          6           0       -2.606422   -0.940978   -1.406370
     13          6           0       -3.729702   -1.886948   -1.832019
     14          1           0       -3.357526   -0.582282    0.581752
     15          1           0       -3.895775    0.593795   -0.613343
     16          1           0       -1.738002   -1.524135   -1.074120
     17          1           0       -2.275054   -0.348775   -2.268986
     18          1           0       -4.595855   -1.320459   -2.189048
     19          1           0       -4.055751   -2.502496   -0.987393
     20          1           0       -3.407684   -2.556665   -2.635539
     21          6           0        2.605072    0.235329   -0.152411
     22          6           0        3.288545    0.338064   -1.516337
     23          6           0        3.551223    1.783941   -1.938519
     24          1           0        1.656205    0.788235   -0.182297
     25          1           0        3.231756    0.730535    0.602197
     26          1           0        2.661418   -0.158395   -2.267907
     27          1           0        4.235803   -0.215310   -1.483259
     28          1           0        4.195853    2.286813   -1.210390
     29          1           0        2.612523    2.344052   -1.999496
     30          1           0        4.040356    1.834111   -2.916318
     31          6           0        2.335832   -1.203867    0.283421
     32          6           0        1.652360   -1.306602    1.647347
     33          6           0        1.389682   -2.752477    2.069529
     34          1           0        1.709148   -1.699072   -0.471187
     35          1           0        3.284699   -1.756772    0.313307
     36          1           0        0.705101   -0.753227    1.614269
     37          1           0        2.279487   -0.810143    2.398917
     38          1           0        2.328381   -3.312590    2.130506
     39          1           0        0.745051   -3.255351    1.341400
     40          1           0        0.900548   -2.802649    3.047328
 ---------------------------------------------------------------------

 SCF Done:  E(RHF) =  -470.733335692     A.U. after   11 cycles
 E2 =    -0.1583961795D+01 EUMP2 =    -0.47231729748623D+03

 The electronic state is 1-A.
 Alpha  occ. eigenvalues --  -11.21674 -11.21647 -11.21645 -11.21575 -11.21466
 Alpha  occ. eigenvalues --  -11.21406 -11.21404 -11.21322 -11.21124 -11.21120
 Alpha  occ. eigenvalues --  -11.21090 -11.21047  -1.08507  -1.08421  -1.03581
 Alpha  occ. eigenvalues --   -1.03540  -0.96027  -0.95985  -0.87044  -0.87001
 Alpha  occ. eigenvalues --   -0.79657  -0.79598  -0.78408  -0.78155  -0.65304
 Alpha  occ. eigenvalues --   -0.64908  -0.61013  -0.60908  -0.59403  -0.59348
 Alpha  occ. eigenvalues --   -0.57637  -0.57596  -0.55316  -0.55270  -0.52719
 Alpha  occ. eigenvalues --   -0.52686  -0.52454  -0.52408  -0.50012  -0.49897
 Alpha  occ. eigenvalues --   -0.48001  -0.47929  -0.46853  -0.46573  -0.46247
 Alpha  occ. eigenvalues --   -0.45780  -0.45734  -0.45152  -0.43837  -0.43787
 Alpha virt. eigenvalues --    0.19594   0.23078   0.23542   0.24090   0.25767
 Alpha virt. eigenvalues --    0.26685   0.27000   0.27894   0.28045   0.30168
 Alpha virt. eigenvalues --    0.30617   0.31518   0.31765   0.31861   0.32325

 Mulliken charges:
               1
     1  C   -0.309869
     2  C   -0.299039
     3  C   -0.477659
     4  H    0.160137
     5  H    0.149352
     6  H    0.151921
     7  H    0.152212
     8  H    0.155113
     9  H    0.157134
    10  H    0.160555
    11  C   -0.297627
    12  C   -0.300139
    13  C   -0.475766
    14  H    0.149746
    15  H    0.150093
    16  H    0.151285
    17  H    0.151980
    18  H    0.155465
    19  H    0.155466
    20  H    0.160393
    21  C   -0.302642
    22  C   -0.299555
    23  C   -0.475642
    24  H    0.154456
    25  H    0.149222
    26  H    0.152124
    27  H    0.151719
    28  H    0.155193
    29  H    0.155214
    30  H    0.160061
    31  C   -0.298144
    32  C   -0.307799
    33  C   -0.475325
    34  H    0.149732
    35  H    0.149904
    36  H    0.157648
    37  H    0.152386
    38  H    0.155732
    39  H    0.154809
    40  H    0.160154
 Sum of Mulliken charges =  -0.00000

 Dipole moment (field-independent basis, Debye):
    X=             -0.0171    Y=              0.0082    Z=              0.0054  Tot=              0.0197
 Quadrupole moment (field-independent basis, Debye-Ang):
   XX=            -84.3701   YY=            -85.8527   ZZ=            -84.4544
   XY=             -1.0390   XZ=              0.4763   YZ=             -0.3525

 Normal termination of Gaussian 16 at Thu May  6 00:34:02 2021.
