 Gaussian 16, Revision A.03,
 Gaussian 16:  EM64L-G16RevA.03 25-Dec-2016

 -------------
 #p 6-31g* mp2
 -------------

 ------------------------------------------------------
 Input file generated by CHIRIPA (05-May-2021 14:53:14)
 ------------------------------------------------------
 Symbolic Z-matrix:
 Charge =  0 Multiplicity = 1

                         Standard orientation:
 ---------------------------------------------------------------------
 Center     Atomic      Atomic             Coordinates (Angstroms)
 Number     Number       Type             X           Y           Z
 ---------------------------------------------------------------------
      1          6           0       -4.084852    0.163454   -0.398668
      2          6           0       -5.540543   -0.212803   -0.676839
      3          6           0       -6.115459    0.510004   -1.895369
      4          1           0       -4.015733    1.249606   -0.248866
      5          1           0       -3.477614   -0.069182   -1.284409
      6          1           0       -6.144619    0.019190    0.209664
      7          1           0       -5.606235   -1.298211   -0.825806
      8          1           0       -5.537660    0.269942   -2.793767
      9          1           0       -6.079102    1.594827   -1.752413
     10          1           0       -7.156980    0.226329   -2.075987
     11          6           0       -3.496045   -0.551013    0.816474
     12          6           0       -2.040354   -0.174756    1.094646
     13          6           0       -1.465438   -0.897563    2.313176
     14          1           0       -4.103283   -0.318378    1.702215
     15          1           0       -3.565164   -1.637166    0.666673
     16          1           0       -1.974662    0.910651    1.243613
     17          1           0       -1.436279   -0.406749    0.208143
     18          1           0       -1.501795   -1.982387    2.170220
     19          1           0       -2.043237   -0.657501    3.211574
     20          1           0       -0.423917   -0.613889    2.493794
     21          6           0        2.250202    2.472809    0.523304
     22          6           0        3.277961    2.302871   -0.410158
     23          6           0        3.680193    1.021305   -0.797907
     24          6           0        3.030033   -0.073036   -0.229575
     25          6           0        2.002781    0.063682    0.702816
     26          6           0        1.617009    1.354643    1.075838
     27          1           0        1.944132    3.472010    0.818797
     28          1           0        3.771492    3.169429   -0.840912
     29          1           0        4.472965    0.860983   -1.518481
     30          1           0        1.529608   -0.819360    1.114837
     31          1           0        0.818535    1.483605    1.800996
     32          7           0        3.447146   -1.434745   -0.632271
     33          8           0        2.858480   -2.382640   -0.116903
     34          8           0        4.354846   -1.528374   -1.455649
 ---------------------------------------------------------------------

 SCF Done:  E(RHF) =  -669.535009636     A.U. after   15 cycles
 E2 =    -0.2092317751D+01 EUMP2 =    -0.67162732738721D+03

 The electronic state is 1-A.
 Alpha  occ. eigenvalues --  -20.60739 -20.60734 -15.85791 -11.31140 -11.27714
 Alpha  occ. eigenvalues --  -11.27675 -11.27452 -11.26733 -11.26695 -11.22269
 Alpha  occ. eigenvalues --  -11.21901 -11.21861 -11.21838 -11.21712 -11.21283
 Alpha  occ. eigenvalues --   -1.59815  -1.39368  -1.19314  -1.08875  -1.08712
 Alpha  occ. eigenvalues --   -1.04732  -1.04008  -0.96474  -0.95549  -0.87485
 Alpha  occ. eigenvalues --   -0.86114  -0.82388  -0.80080  -0.78656  -0.77438
 Alpha  occ. eigenvalues --   -0.72011  -0.71137  -0.70439  -0.65504  -0.64978
 Alpha  occ. eigenvalues --   -0.64719  -0.62255  -0.61390  -0.59766  -0.58039
 Alpha  occ. eigenvalues --   -0.55725  -0.55215  -0.53183  -0.53041  -0.52877
 Alpha  occ. eigenvalues --   -0.52800  -0.50375  -0.48768  -0.48764  -0.48398
 Alpha  occ. eigenvalues --   -0.47091  -0.46202  -0.46096  -0.44777  -0.44265
 Alpha  occ. eigenvalues --   -0.37296  -0.36300
 Alpha virt. eigenvalues --    0.05080   0.11309   0.16536   0.19842   0.22746
 Alpha virt. eigenvalues --    0.23872   0.25939   0.26321   0.26951   0.27819
 Alpha virt. eigenvalues --    0.29459   0.29606   0.30952   0.31383   0.31772

 Mulliken charges:
               1
     1  C   -0.298773
     2  C   -0.300181
     3  C   -0.475996
     4  H    0.148052
     5  H    0.151934
     6  H    0.151885
     7  H    0.153804
     8  H    0.156333
     9  H    0.154457
    10  H    0.161363
    11  C   -0.298943
    12  C   -0.303044
    13  C   -0.481383
    14  H    0.149962
    15  H    0.153767
    16  H    0.146030
    17  H    0.157637
    18  H    0.165232
    19  H    0.159010
    20  H    0.148792
    21  C   -0.171275
    22  C   -0.218664
    23  C   -0.170897
    24  C    0.159227
    25  C   -0.176689
    26  C   -0.220331
    27  H    0.225384
    28  H    0.223277
    29  H    0.275361
    30  H    0.280379
    31  H    0.227222
    32  N    0.488433
    33  O   -0.460749
    34  O   -0.460615
 Sum of Mulliken charges =  -0.00000

 Dipole moment (field-independent basis, Debye):
    X=             -1.6392    Y=              4.7209    Z=              1.3710  Tot=              5.1820
 Quadrupole moment (field-independent basis, Debye-Ang):
   XX=           -101.5360   YY=            -94.6990   ZZ=            -94.4829
   XY=             16.6125   XZ=              1.5508   YZ=             -1.8360

 Normal termination of Gaussian 16 at Wed May  5 20:14:24 2021.
