 Gaussian 16, Revision A.03,
 Gaussian 16:  EM64L-G16RevA.03 25-Dec-2016

 -------------
 #p 6-31g* mp2
 -------------

 ------------------------------------------------------
 Input file generated by CHIRIPA (05-May-2021 14:51:14)
 ------------------------------------------------------
 Symbolic Z-matrix:
 Charge =  0 Multiplicity = 1

                         Standard orientation:
 ---------------------------------------------------------------------
 Center     Atomic      Atomic             Coordinates (Angstroms)
 Number     Number       Type             X           Y           Z
 ---------------------------------------------------------------------
      1          6           0       -2.583204   -1.436096    0.066666
      2          6           0       -1.257279   -1.436189    0.828183
      3          6           0       -0.574175   -2.804090    0.825593
      4          1           0       -3.254306   -2.183510    0.511569
      5          1           0       -2.403074   -1.755059   -0.969294
      6          1           0       -1.439645   -1.115991    1.862027
      7          1           0       -0.589325   -0.688553    0.381535
      8          1           0       -0.363544   -3.127566   -0.198906
      9          1           0       -1.218695   -3.557432    1.289997
     10          1           0        0.371853   -2.781444    1.375482
     11          6           0       -3.278093   -0.075649    0.060336
     12          6           0       -4.604017   -0.075556   -0.701182
     13          6           0       -5.287122    1.292345   -0.698592
     14          1           0       -3.458223    0.243313    1.096295
     15          1           0       -2.606990    0.671765   -0.384568
     16          1           0       -5.271972   -0.823192   -0.254534
     17          1           0       -4.421652   -0.395755   -1.735025
     18          1           0       -4.642602    2.045687   -1.162995
     19          1           0       -5.497753    1.615821    0.325908
     20          1           0       -6.233150    1.269699   -1.248481
     21          6           0        2.362698    1.079092    0.331965
     22          6           0        2.148603    2.553998   -0.009801
     23          6           0        1.008994    3.186636    0.789483
     24          1           0        1.431392    0.527069    0.145185
     25          1           0        2.571348    0.985495    1.406720
     26          1           0        1.941786    2.644924   -1.083846
     27          1           0        3.080583    3.102540    0.177632
     28          1           0        1.211494    3.125347    1.863652
     29          1           0        0.066227    2.665131    0.595005
     30          1           0        0.873332    4.241072    0.529444
     31          6           0        3.498600    0.432653   -0.458966
     32          6           0        3.712693   -1.042252   -0.117201
     33          6           0        4.852303   -1.674892   -0.916484
     34          1           0        3.289948    0.526251   -1.533721
     35          1           0        4.429904    0.984675   -0.272187
     36          1           0        2.780714   -1.590794   -0.304633
     37          1           0        3.919511   -1.133179    0.956845
     38          1           0        5.795071   -1.153386   -0.722006
     39          1           0        4.649802   -1.613601   -1.990653
     40          1           0        4.987965   -2.729327   -0.656445
 ---------------------------------------------------------------------

 SCF Done:  E(RHF) =  -470.733383654     A.U. after   11 cycles
 E2 =    -0.1583386364D+01 EUMP2 =    -0.47231677001867D+03

 The electronic state is 1-A.
 Alpha  occ. eigenvalues --  -11.21624 -11.21609 -11.21604 -11.21593 -11.21436
 Alpha  occ. eigenvalues --  -11.21399 -11.21375 -11.21337 -11.21088 -11.21082
 Alpha  occ. eigenvalues --  -11.21066 -11.21065  -1.08466  -1.08422  -1.03551
 Alpha  occ. eigenvalues --   -1.03526  -0.96001  -0.95972  -0.87024  -0.86982
 Alpha  occ. eigenvalues --   -0.79654  -0.79554  -0.78348  -0.78168  -0.65201
 Alpha  occ. eigenvalues --   -0.64967  -0.60966  -0.60913  -0.59368  -0.59341
 Alpha  occ. eigenvalues --   -0.57640  -0.57555  -0.55321  -0.55235  -0.52704
 Alpha  occ. eigenvalues --   -0.52656  -0.52447  -0.52377  -0.50019  -0.49854
 Alpha  occ. eigenvalues --   -0.48037  -0.47836  -0.46827  -0.46550  -0.46069
 Alpha  occ. eigenvalues --   -0.45765  -0.45742  -0.45273  -0.43802  -0.43780
 Alpha virt. eigenvalues --    0.20367   0.23001   0.23540   0.24036   0.25709
 Alpha virt. eigenvalues --    0.26875   0.27015   0.27087   0.28283   0.29531
 Alpha virt. eigenvalues --    0.31103   0.31511   0.31589   0.31897   0.32072

 Mulliken charges:
               1
     1  C   -0.297558
     2  C   -0.307957
     3  C   -0.476755
     4  H    0.149919
     5  H    0.149171
     6  H    0.152556
     7  H    0.158568
     8  H    0.154477
     9  H    0.155362
    10  H    0.162293
    11  C   -0.298813
    12  C   -0.299664
    13  C   -0.475762
    14  H    0.150049
    15  H    0.149113
    16  H    0.152142
    17  H    0.151883
    18  H    0.155247
    19  H    0.155375
    20  H    0.160314
    21  C   -0.307598
    22  C   -0.299088
    23  C   -0.476556
    24  H    0.158599
    25  H    0.149552
    26  H    0.151351
    27  H    0.152050
    28  H    0.155395
    29  H    0.155786
    30  H    0.160201
    31  C   -0.297524
    32  C   -0.301870
    33  C   -0.475650
    34  H    0.149056
    35  H    0.149742
    36  H    0.154290
    37  H    0.151695
    38  H    0.155170
    39  H    0.155040
    40  H    0.160399
 Sum of Mulliken charges =  -0.00000

 Dipole moment (field-independent basis, Debye):
    X=             -0.0110    Y=             -0.0100    Z=              0.0188  Tot=              0.0240
 Quadrupole moment (field-independent basis, Debye-Ang):
   XX=            -85.1026   YY=            -85.8869   ZZ=            -83.7310
   XY=              1.3389   XZ=              0.4016   YZ=             -0.2510

 Normal termination of Gaussian 16 at Wed May  5 18:24:36 2021.
