 Gaussian 16, Revision A.03,
 Gaussian 16:  EM64L-G16RevA.03 25-Dec-2016

 -------------
 #p 6-31g* mp2
 -------------

 ------------------------------------------------------
 Input file generated by CHIRIPA (05-May-2021 14:55:21)
 ------------------------------------------------------
 Symbolic Z-matrix:
 Charge =  0 Multiplicity = 1

                         Standard orientation:
 ---------------------------------------------------------------------
 Center     Atomic      Atomic             Coordinates (Angstroms)
 Number     Number       Type             X           Y           Z
 ---------------------------------------------------------------------
      1          6           0       -1.317524   -2.192859    0.992399
      2          6           0       -1.897013   -1.269154    1.868461
      3          6           0       -2.523237   -0.120140    1.376364
      4          6           0       -2.551740    0.074468   -0.003710
      5          6           0       -1.983430   -0.827304   -0.902110
      6          6           0       -1.362503   -1.969379   -0.387657
      7          1           0       -0.833116   -3.082745    1.383354
      8          1           0       -1.863591   -1.440117    2.940701
      9          1           0       -2.979843    0.611318    2.032031
     10          1           0       -2.032643   -0.629543   -1.966012
     11          1           0       -0.913302   -2.685026   -1.070382
     12          7           0       -3.211891    1.287205   -0.536504
     13          8           0       -3.223582    1.435575   -1.756540
     14          8           0       -3.705127    2.066414    0.276016
     15          6           0        2.918012    0.892342   -0.172511
     16          6           0        3.883793    1.861480    0.510148
     17          6           0        3.452245    3.321750    0.371686
     18          1           0        2.837986    1.153198   -1.236699
     19          1           0        1.915024    1.021572    0.257269
     20          1           0        4.884950    1.729491    0.080173
     21          1           0        3.961677    1.598169    1.572795
     22          1           0        2.464244    3.475415    0.817601
     23          1           0        3.392764    3.607483   -0.683501
     24          1           0        4.156744    3.997259    0.866892
     25          6           0        3.335913   -0.571303   -0.042787
     26          6           0        2.370130   -1.540441   -0.725446
     27          6           0        2.801678   -3.000711   -0.586985
     28          1           0        4.338900   -0.700533   -0.472566
     29          1           0        3.415938   -0.832158    1.021400
     30          1           0        2.292248   -1.277129   -1.788092
     31          1           0        1.368973   -1.408451   -0.295471
     32          1           0        2.861160   -3.286444    0.468203
     33          1           0        3.789681   -3.154376   -1.032899
     34          1           0        2.097180   -3.676220   -1.082190
 ---------------------------------------------------------------------

 SCF Done:  E(RHF) =  -669.534856689     A.U. after   15 cycles
 E2 =    -0.2092886542D+01 EUMP2 =    -0.67162774323140D+03

 The electronic state is 1-A.
 Alpha  occ. eigenvalues --  -20.60816 -20.60810 -15.85869 -11.31267 -11.27825
 Alpha  occ. eigenvalues --  -11.27810 -11.27565 -11.26857 -11.26830 -11.21985
 Alpha  occ. eigenvalues --  -11.21805 -11.21728 -11.21717 -11.21549 -11.21078
 Alpha  occ. eigenvalues --   -1.59890  -1.39442  -1.19444  -1.08848  -1.08708
 Alpha  occ. eigenvalues --   -1.04850  -1.03851  -0.96312  -0.95658  -0.87321
 Alpha  occ. eigenvalues --   -0.86244  -0.82486  -0.79925  -0.78510  -0.77526
 Alpha  occ. eigenvalues --   -0.72087  -0.71213  -0.70534  -0.65383  -0.65085
 Alpha  occ. eigenvalues --   -0.64837  -0.62198  -0.61255  -0.59717  -0.57915
 Alpha  occ. eigenvalues --   -0.55598  -0.55333  -0.53254  -0.53017  -0.52915
 Alpha  occ. eigenvalues --   -0.52713  -0.50234  -0.48848  -0.48840  -0.48231
 Alpha  occ. eigenvalues --   -0.46947  -0.46053  -0.45954  -0.44840  -0.44094
 Alpha  occ. eigenvalues --   -0.37374  -0.36385
 Alpha virt. eigenvalues --    0.04991   0.11137   0.16452   0.20321   0.22785
 Alpha virt. eigenvalues --    0.23990   0.26119   0.26438   0.27237   0.27978
 Alpha virt. eigenvalues --    0.29132   0.29719   0.31186   0.31878   0.31974

 Mulliken charges:
               1
     1  C   -0.171644
     2  C   -0.218444
     3  C   -0.171463
     4  C    0.158627
     5  C   -0.170671
     6  C   -0.218835
     7  H    0.227141
     8  H    0.223800
     9  H    0.275841
    10  H    0.276241
    11  H    0.227074
    12  N    0.488081
    13  O   -0.459925
    14  O   -0.460286
    15  C   -0.299086
    16  C   -0.299885
    17  C   -0.476075
    18  H    0.151179
    19  H    0.151232
    20  H    0.151835
    21  H    0.150701
    22  H    0.156952
    23  H    0.156815
    24  H    0.160443
    25  C   -0.296875
    26  C   -0.310803
    27  C   -0.476252
    28  H    0.149993
    29  H    0.147762
    30  H    0.151212
    31  H    0.160721
    32  H    0.152936
    33  H    0.159801
    34  H    0.151854
 Sum of Mulliken charges =  -0.00000

 Dipole moment (field-independent basis, Debye):
    X=              2.2802    Y=             -4.1840    Z=              1.8786  Tot=              5.1220
 Quadrupole moment (field-independent basis, Debye-Ang):
   XX=           -106.9666   YY=            -96.9538   ZZ=            -89.7445
   XY=             11.2690   XZ=             -6.5197   YZ=              1.5503

 Normal termination of Gaussian 16 at Thu May  6 19:10:05 2021.
