 Gaussian 16, Revision A.03,
 Gaussian 16:  EM64L-G16RevA.03 25-Dec-2016

 -------------
 #p 6-31g* mp2
 -------------

 ------------------------------------------------------
 Input file generated by CHIRIPA (05-May-2021 14:57:25)
 ------------------------------------------------------
 Symbolic Z-matrix:
 Charge =  0 Multiplicity = 1

                         Standard orientation:
 ---------------------------------------------------------------------
 Center     Atomic      Atomic             Coordinates (Angstroms)
 Number     Number       Type             X           Y           Z
 ---------------------------------------------------------------------
      1          6           0       -2.002778   -1.732808    1.072008
      2          6           0       -1.645645   -0.662936    0.244754
      3          6           0       -2.627633    0.155925   -0.320679
      4          6           0       -3.963115   -0.125079   -0.036403
      5          6           0       -4.350665   -1.183511    0.783852
      6          6           0       -3.351770   -1.989229    1.338447
      7          1           0       -1.233380   -2.363814    1.507041
      8          1           0       -0.598791   -0.461435    0.036094
      9          1           0       -2.379148    0.990810   -0.964604
     10          1           0       -5.402555   -1.359500    0.973517
     11          1           0       -3.632060   -2.819411    1.980538
     12          7           0       -5.011651    0.734855   -0.629265
     13          8           0       -6.181177    0.466288   -0.363336
     14          8           0       -4.644114    1.661156   -1.348653
     15          6           0        2.463946    2.208782    0.852708
     16          6           0        3.757412    1.960963    1.323931
     17          6           0        4.501498    0.887826    0.824671
     18          6           0        3.918531    0.079064   -0.149671
     19          6           0        2.632191    0.300140   -0.639307
     20          6           0        1.906446    1.379044   -0.125682
     21          1           0        1.893046    3.044661    1.246125
     22          1           0        4.192919    2.603692    2.083720
     23          1           0        5.504950    0.673178    1.171701
     24          1           0        2.224873   -0.358035   -1.397143
     25          1           0        0.902142    1.569114   -0.493502
     26          7           0        4.696554   -1.060070   -0.685819
     27          8           0        4.160319   -1.757841   -1.543845
     28          8           0        5.827870   -1.233584   -0.237876
 ---------------------------------------------------------------------

 SCF Done:  E(RHF) =  -868.337205737     A.U. after   16 cycles
 E2 =    -0.2600076654D+01 EUMP2 =    -0.87093728239089D+03

 The electronic state is 1-A.
 Alpha  occ. eigenvalues --  -20.61419 -20.61410 -20.61176 -20.61163 -15.86478
 Alpha  occ. eigenvalues --  -15.86229 -11.31959 -11.31641 -11.28619 -11.28516
 Alpha  occ. eigenvalues --  -11.28286 -11.28278 -11.28175 -11.27915 -11.27661
 Alpha  occ. eigenvalues --  -11.27508 -11.27264 -11.27170  -1.60492  -1.60247
 Alpha  occ. eigenvalues --   -1.40042  -1.39800  -1.20154  -1.19811  -1.09508
 Alpha  occ. eigenvalues --   -1.09182  -1.05596  -1.05236  -0.96323  -0.96015
 Alpha  occ. eigenvalues --   -0.86967  -0.86619  -0.83181  -0.82854  -0.78228
 Alpha  occ. eigenvalues --   -0.77894  -0.72688  -0.72444  -0.71822  -0.71571
 Alpha  occ. eigenvalues --   -0.71218  -0.70897  -0.65812  -0.65661  -0.65457
 Alpha  occ. eigenvalues --   -0.65201  -0.63020  -0.62493  -0.56028  -0.55684
 Alpha  occ. eigenvalues --   -0.53930  -0.53704  -0.53535  -0.53254  -0.49458
 Alpha  occ. eigenvalues --   -0.49439  -0.49207  -0.49197  -0.45423  -0.45196
 Alpha  occ. eigenvalues --   -0.38106  -0.37760  -0.37202  -0.36838
 Alpha virt. eigenvalues --    0.04310   0.04641   0.10394   0.10864   0.15573
 Alpha virt. eigenvalues --    0.16129   0.18783   0.21927   0.24733   0.26777
 Alpha virt. eigenvalues --    0.28060   0.28592   0.30511   0.31061   0.32135

 Mulliken charges:
               1
     1  C   -0.171282
     2  C   -0.221729
     3  C   -0.173662
     4  C    0.159240
     5  C   -0.170360
     6  C   -0.218198
     7  H    0.229803
     8  H    0.220832
     9  H    0.270469
    10  H    0.277152
    11  H    0.225811
    12  N    0.488209
    13  O   -0.458518
    14  O   -0.461559
    15  C   -0.170558
    16  C   -0.218564
    17  C   -0.169491
    18  C    0.158733
    19  C   -0.175026
    20  C   -0.221913
    21  H    0.230125
    22  H    0.226943
    23  H    0.278269
    24  H    0.275305
    25  H    0.219965
    26  N    0.487953
    27  O   -0.460010
    28  O   -0.457939
 Sum of Mulliken charges =  -0.00000

 Dipole moment (field-independent basis, Debye):
    X=              1.0999    Y=              0.9649    Z=              4.1372  Tot=              4.3883
 Quadrupole moment (field-independent basis, Debye-Ang):
   XX=           -149.2973   YY=           -102.3162   ZZ=           -103.7529
   XY=             31.0631   XZ=              0.2701   YZ=             -1.1499

 Normal termination of Gaussian 16 at Thu May  6 13:02:51 2021.
