 Gaussian 16, Revision A.03,
 Gaussian 16:  EM64L-G16RevA.03 25-Dec-2016

 -------------
 #p 6-31g* mp2
 -------------

 ------------------------------------------------------
 Input file generated by CHIRIPA (05-May-2021 14:55:21)
 ------------------------------------------------------
 Symbolic Z-matrix:
 Charge =  0 Multiplicity = 1

                         Standard orientation:
 ---------------------------------------------------------------------
 Center     Atomic      Atomic             Coordinates (Angstroms)
 Number     Number       Type             X           Y           Z
 ---------------------------------------------------------------------
      1          6           0       -4.108450   -2.362733   -0.103160
      2          6           0       -2.755468   -2.228391   -0.431658
      3          6           0       -2.136535   -0.975396   -0.393292
      4          6           0       -2.903984    0.126985   -0.020371
      5          6           0       -4.253860    0.025447    0.312516
      6          6           0       -4.852018   -1.237369    0.267225
      7          1           0       -4.581183   -3.339905   -0.135653
      8          1           0       -2.175542   -3.100621   -0.719664
      9          1           0       -1.090747   -0.842884   -0.642665
     10          1           0       -4.806021    0.913296    0.595818
     11          1           0       -5.902934   -1.338713    0.522859
     12          7           0       -2.259744    1.458673    0.023910
     13          8           0       -2.957766    2.414364    0.355660
     14          8           0       -1.068966    1.521544   -0.273970
     15          6           0        3.831726   -0.624047    0.213639
     16          6           0        5.148108   -1.351660   -0.061495
     17          6           0        5.089831   -2.836120    0.300137
     18          1           0        3.574289   -0.734278    1.275957
     19          1           0        3.026634   -1.109607   -0.355092
     20          1           0        5.950725   -0.864018    0.506509
     21          1           0        5.402538   -1.239524   -1.123242
     22          1           0        4.308904   -3.342657   -0.276209
     23          1           0        4.860204   -2.965018    1.362802
     24          1           0        6.041280   -3.336838    0.095475
     25          6           0        3.874290    0.860831   -0.142804
     26          6           0        2.557906    1.588444    0.132329
     27          6           0        2.616184    3.072904   -0.229303
     28          1           0        4.679382    1.346390    0.425927
     29          1           0        4.131726    0.971061   -1.205123
     30          1           0        2.303476    1.476308    1.194076
     31          1           0        1.755291    1.100802   -0.435674
     32          1           0        2.845811    3.201802   -1.291967
     33          1           0        3.397111    3.579441    0.347042
     34          1           0        1.664735    3.573622   -0.024640
 ---------------------------------------------------------------------

 SCF Done:  E(RHF) =  -669.535983888     A.U. after   15 cycles
 E2 =    -0.2091187293D+01 EUMP2 =    -0.67162717118188D+03

 The electronic state is 1-A.
 Alpha  occ. eigenvalues --  -20.60911 -20.60901 -15.85947 -11.31274 -11.27840
 Alpha  occ. eigenvalues --  -11.27836 -11.27577 -11.26848 -11.26838 -11.21329
 Alpha  occ. eigenvalues --  -11.20990 -11.20950 -11.20647 -11.20396 -11.19787
 Alpha  occ. eigenvalues --   -1.59973  -1.39528  -1.19444  -1.08847  -1.07825
 Alpha  occ. eigenvalues --   -1.04842  -1.02817  -0.95690  -0.95301  -0.86331
 Alpha  occ. eigenvalues --   -0.86241  -0.82526  -0.78953  -0.77664  -0.77463
 Alpha  occ. eigenvalues --   -0.72172  -0.71287  -0.70553  -0.65103  -0.64845
 Alpha  occ. eigenvalues --   -0.64469  -0.62190  -0.60222  -0.58720  -0.56844
 Alpha  occ. eigenvalues --   -0.55345  -0.54628  -0.53172  -0.52934  -0.51961
 Alpha  occ. eigenvalues --   -0.51729  -0.49302  -0.48935  -0.48916  -0.47233
 Alpha  occ. eigenvalues --   -0.46018  -0.45148  -0.44996  -0.44870  -0.43083
 Alpha  occ. eigenvalues --   -0.37423  -0.36443
 Alpha virt. eigenvalues --    0.04957   0.11212   0.16453   0.21049   0.23247
 Alpha virt. eigenvalues --    0.24839   0.26023   0.27442   0.27639   0.28618
 Alpha virt. eigenvalues --    0.28961   0.30725   0.31704   0.32135   0.32954

 Mulliken charges:
               1
     1  C   -0.170602
     2  C   -0.218679
     3  C   -0.170390
     4  C    0.157731
     5  C   -0.170844
     6  C   -0.218582
     7  H    0.225953
     8  H    0.223909
     9  H    0.275820
    10  H    0.275782
    11  H    0.223742
    12  N    0.494427
    13  O   -0.459646
    14  O   -0.465954
    15  C   -0.295848
    16  C   -0.298916
    17  C   -0.474954
    18  H    0.148663
    19  H    0.142959
    20  H    0.152381
    21  H    0.151396
    22  H    0.151699
    23  H    0.154487
    24  H    0.159487
    25  C   -0.298517
    26  C   -0.299591
    27  C   -0.477599
    28  H    0.147143
    29  H    0.147204
    30  H    0.149242
    31  H    0.164210
    32  H    0.150248
    33  H    0.147770
    34  H    0.175868
 Sum of Mulliken charges =  -0.00000

 Dipole moment (field-independent basis, Debye):
    X=             -2.5436    Y=             -4.5930    Z=             -0.1520  Tot=              5.2525
 Quadrupole moment (field-independent basis, Debye-Ang):
   XX=            -78.7833   YY=            -96.7989   ZZ=            -94.4040
   XY=             11.7837   XZ=             -0.6806   YZ=              1.2366

 Normal termination of Gaussian 16 at Wed May  5 20:35:08 2021.
