 Gaussian 16, Revision A.03,
 Gaussian 16:  EM64L-G16RevA.03 25-Dec-2016

 -------------
 #p 6-31g* mp2
 -------------

 ------------------------------------------------------
 Input file generated by CHIRIPA (05-May-2021 14:51:14)
 ------------------------------------------------------
 Symbolic Z-matrix:
 Charge =  0 Multiplicity = 1

                         Standard orientation:
 ---------------------------------------------------------------------
 Center     Atomic      Atomic             Coordinates (Angstroms)
 Number     Number       Type             X           Y           Z
 ---------------------------------------------------------------------
      1          6           0        2.853744    0.909565   -0.734111
      2          6           0        2.078720    1.933474    0.095910
      3          6           0        2.061663    3.322036   -0.543932
      4          1           0        3.884438    1.263787   -0.872467
      5          1           0        2.407536    0.847044   -1.736301
      6          1           0        2.525401    1.993034    1.096682
      7          1           0        1.049804    1.576682    0.232468
      8          1           0        1.596935    3.284082   -1.534482
      9          1           0        3.080915    3.702799   -0.665357
     10          1           0        1.502348    4.038283    0.066000
     11          6           0        2.879773   -0.483404   -0.107464
     12          6           0        3.654796   -1.507313   -0.937485
     13          6           0        3.671854   -2.895875   -0.297643
     14          1           0        3.325980   -0.420883    0.894726
     15          1           0        1.849079   -0.837625    0.030892
     16          1           0        4.683712   -1.150521   -1.074042
     17          1           0        3.208116   -1.566873   -1.938257
     18          1           0        2.652601   -3.276638   -0.176218
     19          1           0        4.136581   -2.857921    0.692907
     20          1           0        4.231169   -3.612122   -0.907575
     21          6           0       -3.335691   -0.608704   -0.034202
     22          6           0       -4.104410    0.268667   -1.022775
     23          6           0       -5.038375   -0.537235   -1.926115
     24          1           0       -2.754342   -1.355679   -0.591883
     25          1           0       -4.052328   -1.167747    0.583292
     26          1           0       -3.386543    0.826929   -1.637288
     27          1           0       -4.683847    1.013761   -0.462682
     28          1           0       -5.776679   -1.081991   -1.328831
     29          1           0       -4.472006   -1.269885   -2.510111
     30          1           0       -5.577913    0.109644   -2.624905
     31          6           0       -2.397826    0.182543    0.875777
     32          6           0       -1.629107   -0.694828    1.864350
     33          6           0       -0.695141    0.111074    2.767690
     34          1           0       -1.681189    0.741585    0.258283
     35          1           0       -2.979175    0.929517    1.433458
     36          1           0       -1.049669   -1.439923    1.304258
     37          1           0       -2.346973   -1.253091    2.478863
     38          1           0       -1.261510    0.843723    3.351685
     39          1           0        0.043164    0.655830    2.170406
     40          1           0       -0.155603   -0.535805    3.466480
 ---------------------------------------------------------------------

 SCF Done:  E(RHF) =  -470.733140267     A.U. after   11 cycles
 E2 =    -0.1583543075D+01 EUMP2 =    -0.47231668334273D+03

 The electronic state is 1-A.
 Alpha  occ. eigenvalues --  -11.21664 -11.21640 -11.21624 -11.21595 -11.21458
 Alpha  occ. eigenvalues --  -11.21431 -11.21397 -11.21372 -11.21116 -11.21100
 Alpha  occ. eigenvalues --  -11.21090 -11.20955  -1.08494  -1.08437  -1.03588
 Alpha  occ. eigenvalues --   -1.03518  -0.96022  -0.95970  -0.87046  -0.86981
 Alpha  occ. eigenvalues --   -0.79708  -0.79541  -0.78341  -0.78221  -0.65228
 Alpha  occ. eigenvalues --   -0.64978  -0.61050  -0.60866  -0.59422  -0.59313
 Alpha  occ. eigenvalues --   -0.57656  -0.57560  -0.55310  -0.55267  -0.52723
 Alpha  occ. eigenvalues --   -0.52657  -0.52472  -0.52371  -0.49998  -0.49911
 Alpha  occ. eigenvalues --   -0.48121  -0.47806  -0.46841  -0.46512  -0.46004
 Alpha  occ. eigenvalues --   -0.45780  -0.45747  -0.45399  -0.43831  -0.43784
 Alpha virt. eigenvalues --    0.19959   0.23444   0.23621   0.24046   0.25957
 Alpha virt. eigenvalues --    0.26483   0.27084   0.27876   0.28004   0.29296
 Alpha virt. eigenvalues --    0.30344   0.31313   0.31732   0.31848   0.31998

 Mulliken charges:
               1
     1  C   -0.297797
     2  C   -0.308131
     3  C   -0.475051
     4  H    0.150073
     5  H    0.149191
     6  H    0.152992
     7  H    0.158540
     8  H    0.154984
     9  H    0.155457
    10  H    0.160846
    11  C   -0.300265
    12  C   -0.299698
    13  C   -0.475641
    14  H    0.150224
    15  H    0.150801
    16  H    0.152212
    17  H    0.151804
    18  H    0.155003
    19  H    0.155435
    20  H    0.160384
    21  C   -0.298113
    22  C   -0.299643
    23  C   -0.475713
    24  H    0.149240
    25  H    0.149877
    26  H    0.151708
    27  H    0.152120
    28  H    0.155292
    29  H    0.155092
    30  H    0.160335
    31  C   -0.301485
    32  C   -0.300052
    33  C   -0.483105
    34  H    0.150962
    35  H    0.150101
    36  H    0.151520
    37  H    0.152049
    38  H    0.154357
    39  H    0.164123
    40  H    0.159970
 Sum of Mulliken charges =  -0.00000

 Dipole moment (field-independent basis, Debye):
    X=              0.0337    Y=              0.0206    Z=             -0.0050  Tot=              0.0397
 Quadrupole moment (field-independent basis, Debye-Ang):
   XX=            -83.8758   YY=            -86.0027   ZZ=            -84.7651
   XY=             -0.0696   XZ=             -0.6055   YZ=              0.2564

 Normal termination of Gaussian 16 at Wed May  5 16:55:16 2021.
