 Gaussian 16, Revision A.03,
 Gaussian 16:  EM64L-G16RevA.03 25-Dec-2016

 -------------
 #p 6-31g* mp2
 -------------

 ------------------------------------------------------
 Input file generated by CHIRIPA (05-May-2021 14:55:19)
 ------------------------------------------------------
 Symbolic Z-matrix:
 Charge =  0 Multiplicity = 1

                         Standard orientation:
 ---------------------------------------------------------------------
 Center     Atomic      Atomic             Coordinates (Angstroms)
 Number     Number       Type             X           Y           Z
 ---------------------------------------------------------------------
      1          6           0        1.785063   -2.039292    1.459474
      2          6           0        3.020391   -1.420460    1.677492
      3          6           0        3.428919   -0.349247    0.877393
      4          6           0        2.573327    0.079285   -0.136319
      5          6           0        1.336566   -0.516633   -0.378376
      6          6           0        0.948568   -1.586203    0.434044
      7          1           0        1.475682   -2.870798    2.085796
      8          1           0        3.672074   -1.770217    2.473119
      9          1           0        4.379997    0.148044    1.024256
     10          1           0        0.708542   -0.145668   -1.179244
     11          1           0       -0.011357   -2.064888    0.262431
     12          7           0        2.994951    1.212460   -0.989870
     13          8           0        2.222932    1.571163   -1.876412
     14          8           0        4.089454    1.720483   -0.756179
     15          6           0       -2.933767   -0.576512   -0.006169
     16          6           0       -3.495892   -1.437627   -1.137752
     17          6           0       -2.944016   -2.863488   -1.125638
     18          1           0       -1.838373   -0.547925   -0.085178
     19          1           0       -3.165374   -1.052149    0.956910
     20          1           0       -3.264496   -0.959798   -2.098351
     21          1           0       -4.590087   -1.464011   -1.056153
     22          1           0       -3.187375   -3.362762   -0.182185
     23          1           0       -1.854252   -2.855684   -1.230306
     24          1           0       -3.359056   -3.461572   -1.942888
     25          6           0       -3.476061    0.851650   -0.004982
     26          6           0       -2.913935    1.712765    1.126600
     27          6           0       -3.465811    3.138626    1.114487
     28          1           0       -3.244452    1.327287   -0.968062
     29          1           0       -4.571453    0.823062    0.074027
     30          1           0       -1.819740    1.739148    1.045002
     31          1           0       -3.145331    1.234935    2.087200
     32          1           0       -4.555575    3.130821    1.219154
     33          1           0       -3.222452    3.637900    0.171035
     34          1           0       -3.050771    3.736710    1.931736
 ---------------------------------------------------------------------

 SCF Done:  E(RHF) =  -669.534934804     A.U. after   15 cycles
 E2 =    -0.2092795775D+01 EUMP2 =    -0.67162773057923D+03

 The electronic state is 1-A.
 Alpha  occ. eigenvalues --  -20.60775 -20.60770 -15.85828 -11.31189 -11.27751
 Alpha  occ. eigenvalues --  -11.27748 -11.27469 -11.26767 -11.26697 -11.22303
 Alpha  occ. eigenvalues --  -11.22111 -11.22011 -11.21861 -11.21775 -11.21178
 Alpha  occ. eigenvalues --   -1.59850  -1.39404  -1.19355  -1.08992  -1.08744
 Alpha  occ. eigenvalues --   -1.04761  -1.04042  -0.96514  -0.95585  -0.87528
 Alpha  occ. eigenvalues --   -0.86153  -0.82436  -0.80131  -0.78799  -0.77454
 Alpha  occ. eigenvalues --   -0.72046  -0.71173  -0.70461  -0.65683  -0.64994
 Alpha  occ. eigenvalues --   -0.64750  -0.62157  -0.61381  -0.59889  -0.58115
 Alpha  occ. eigenvalues --   -0.55832  -0.55250  -0.53193  -0.53102  -0.52940
 Alpha  occ. eigenvalues --   -0.52837  -0.50464  -0.48814  -0.48802  -0.48406
 Alpha  occ. eigenvalues --   -0.47147  -0.46293  -0.46200  -0.44811  -0.44295
 Alpha  occ. eigenvalues --   -0.37326  -0.36332
 Alpha virt. eigenvalues --    0.05025   0.11277   0.16414   0.19456   0.22701
 Alpha virt. eigenvalues --    0.23681   0.25448   0.26305   0.26944   0.28545
 Alpha virt. eigenvalues --    0.29652   0.30361   0.31233   0.31547   0.32360

 Mulliken charges:
               1
     1  C   -0.172766
     2  C   -0.218280
     3  C   -0.171218
     4  C    0.158305
     5  C   -0.174111
     6  C   -0.223460
     7  H    0.226327
     8  H    0.223431
     9  H    0.275581
    10  H    0.274803
    11  H    0.234434
    12  N    0.488298
    13  O   -0.460867
    14  O   -0.460342
    15  C   -0.304445
    16  C   -0.300693
    17  C   -0.479873
    18  H    0.144882
    19  H    0.149124
    20  H    0.155747
    21  H    0.156143
    22  H    0.155223
    23  H    0.147907
    24  H    0.166679
    25  C   -0.298821
    26  C   -0.300547
    27  C   -0.476383
    28  H    0.153526
    29  H    0.151334
    30  H    0.154268
    31  H    0.150455
    32  H    0.154705
    33  H    0.158789
    34  H    0.161845
 Sum of Mulliken charges =  -0.00000

 Dipole moment (field-independent basis, Debye):
    X=             -1.6285    Y=             -3.9266    Z=              2.9996  Tot=              5.2027
 Quadrupole moment (field-independent basis, Debye-Ang):
   XX=            -97.7943   YY=            -96.8970   ZZ=            -94.3776
   XY=             -9.6497   XZ=             10.4134   YZ=              0.6362

 Normal termination of Gaussian 16 at Thu May  6 07:40:14 2021.
