 Gaussian 16, Revision A.03,
 Gaussian 16:  EM64L-G16RevA.03 25-Dec-2016

 -------------
 #p 6-31g* mp2
 -------------

 ------------------------------------------------------
 Input file generated by CHIRIPA (05-May-2021 14:51:12)
 ------------------------------------------------------
 Symbolic Z-matrix:
 Charge =  0 Multiplicity = 1

                         Standard orientation:
 ---------------------------------------------------------------------
 Center     Atomic      Atomic             Coordinates (Angstroms)
 Number     Number       Type             X           Y           Z
 ---------------------------------------------------------------------
      1          6           0        3.239688   -0.514147    0.311630
      2          6           0        4.184956    0.058466   -0.745047
      3          6           0        5.363405    0.817816   -0.134769
      4          1           0        2.864024    0.304512    0.940613
      5          1           0        3.804717   -1.183795    0.974736
      6          1           0        3.618021    0.725758   -1.406804
      7          1           0        4.558264   -0.761627   -1.371708
      8          1           0        5.953710    0.158987    0.510278
      9          1           0        5.008126    1.654823    0.474983
     10          1           0        6.026360    1.218658   -0.907865
     11          6           0        2.056606   -1.276056   -0.282963
     12          6           0        1.111337   -1.848669    0.773713
     13          6           0       -0.067112   -2.608019    0.163436
     14          1           0        1.491577   -0.606408   -0.946069
     15          1           0        2.432269   -2.094714   -0.911947
     16          1           0        0.738030   -1.028576    1.400375
     17          1           0        1.678272   -2.515960    1.435471
     18          1           0        0.288168   -3.445026   -0.446316
     19          1           0       -0.657417   -1.949190   -0.481611
     20          1           0       -0.730067   -3.008861    0.936532
     21          6           0       -2.291630    1.513062   -0.287193
     22          6           0       -1.251722    2.087611    0.675340
     23          6           0       -0.547009    3.323550    0.115313
     24          1           0       -1.801723    1.258691   -1.237051
     25          1           0       -3.035926    2.288024   -0.517093
     26          1           0       -0.510382    1.311375    0.904443
     27          1           0       -1.744125    2.340466    1.623084
     28          1           0       -1.271025    4.116997   -0.096449
     29          1           0       -0.030272    3.082057   -0.819173
     30          1           0        0.192145    3.717876    0.819599
     31          6           0       -3.004664    0.277140    0.258525
     32          6           0       -4.044572   -0.297409   -0.704007
     33          6           0       -4.749284   -1.533347   -0.143980
     34          1           0       -2.260368   -0.497821    0.488426
     35          1           0       -3.494571    0.531512    1.208384
     36          1           0       -3.552169   -0.550264   -1.651751
     37          1           0       -4.785912    0.478828   -0.933110
     38          1           0       -5.266022   -1.291855    0.790507
     39          1           0       -4.025267   -2.326793    0.067782
     40          1           0       -5.488438   -1.927673   -0.848266
 ---------------------------------------------------------------------

 SCF Done:  E(RHF) =  -470.733017483     A.U. after   11 cycles
 E2 =    -0.1584164855D+01 EUMP2 =    -0.47231718233818D+03

 The electronic state is 1-A.
 Alpha  occ. eigenvalues --  -11.21691 -11.21653 -11.21633 -11.21582 -11.21469
 Alpha  occ. eigenvalues --  -11.21410 -11.21403 -11.21297 -11.21167 -11.21128
 Alpha  occ. eigenvalues --  -11.21089 -11.21034  -1.08510  -1.08422  -1.03596
 Alpha  occ. eigenvalues --   -1.03540  -0.96061  -0.95972  -0.87085  -0.86983
 Alpha  occ. eigenvalues --   -0.79691  -0.79573  -0.78303  -0.78251  -0.65386
 Alpha  occ. eigenvalues --   -0.64860  -0.60989  -0.60944  -0.59416  -0.59350
 Alpha  occ. eigenvalues --   -0.57652  -0.57599  -0.55510  -0.55114  -0.52743
 Alpha  occ. eigenvalues --   -0.52681  -0.52470  -0.52409  -0.50170  -0.49769
 Alpha  occ. eigenvalues --   -0.48002  -0.47912  -0.46843  -0.46487  -0.45951
 Alpha  occ. eigenvalues --   -0.45774  -0.45734  -0.45530  -0.43845  -0.43788
 Alpha virt. eigenvalues --    0.18948   0.22394   0.24028   0.24282   0.26076
 Alpha virt. eigenvalues --    0.26209   0.27507   0.27580   0.28083   0.29812
 Alpha virt. eigenvalues --    0.30841   0.31410   0.31637   0.31997   0.32494

 Mulliken charges:
               1
     1  C   -0.298724
     2  C   -0.299630
     3  C   -0.475778
     4  H    0.150042
     5  H    0.149762
     6  H    0.151998
     7  H    0.151962
     8  H    0.155185
     9  H    0.155458
    10  H    0.160395
    11  C   -0.298651
    12  C   -0.304537
    13  C   -0.479762
    14  H    0.149403
    15  H    0.150089
    16  H    0.155517
    17  H    0.152966
    18  H    0.156349
    19  H    0.157622
    20  H    0.160762
    21  C   -0.298096
    22  C   -0.304750
    23  C   -0.475493
    24  H    0.148638
    25  H    0.149924
    26  H    0.155616
    27  H    0.152384
    28  H    0.155705
    29  H    0.154720
    30  H    0.160061
    31  C   -0.307074
    32  C   -0.299460
    33  C   -0.476530
    34  H    0.159643
    35  H    0.149412
    36  H    0.151445
    37  H    0.151875
    38  H    0.154927
    39  H    0.156508
    40  H    0.160117
 Sum of Mulliken charges =  -0.00000

 Dipole moment (field-independent basis, Debye):
    X=              0.0261    Y=             -0.0255    Z=              0.0155  Tot=              0.0397
 Quadrupole moment (field-independent basis, Debye-Ang):
   XX=            -85.1490   YY=            -84.7763   ZZ=            -84.7796
   XY=             -1.9729   XZ=             -0.4103   YZ=              0.3023

 Normal termination of Gaussian 16 at Thu May  6 05:32:24 2021.
