 Gaussian 16, Revision A.03,
 Gaussian 16:  EM64L-G16RevA.03 25-Dec-2016

 -------------
 #p 6-31g* mp2
 -------------

 ------------------------------------------------------
 Input file generated by CHIRIPA (05-May-2021 14:57:27)
 ------------------------------------------------------
 Symbolic Z-matrix:
 Charge =  0 Multiplicity = 1

                         Standard orientation:
 ---------------------------------------------------------------------
 Center     Atomic      Atomic             Coordinates (Angstroms)
 Number     Number       Type             X           Y           Z
 ---------------------------------------------------------------------
      1          6           0        2.246474    2.553245    0.385082
      2          6           0        1.331919    1.576809   -0.023189
      3          6           0        1.761934    0.278903   -0.314862
      4          6           0        3.119853   -0.009209   -0.187045
      5          6           0        4.055444    0.941770    0.217427
      6          6           0        3.602926    2.233173    0.503877
      7          1           0        1.903687    3.558964    0.609632
      8          1           0        0.277884    1.822534   -0.116321
      9          1           0        1.075444   -0.496317   -0.632958
     10          1           0        5.099871    0.666819    0.301049
     11          1           0        4.315438    2.989463    0.820732
     12          7           0        3.587002   -1.379802   -0.493062
     13          8           0        4.788640   -1.608299   -0.372674
     14          8           0        2.742671   -2.199623   -0.847511
     15          6           0       -3.953291    1.986071   -0.690989
     16          6           0       -4.528045    0.785357   -1.120483
     17          6           0       -4.031787   -0.440998   -0.668453
     18          6           0       -2.954844   -0.429636    0.216619
     19          6           0       -2.360706    0.749856    0.662812
     20          6           0       -2.873360    1.964526    0.197721
     21          1           0       -4.345164    2.934194   -1.047211
     22          1           0       -5.366824    0.799053   -1.810632
     23          1           0       -4.457775   -1.385382   -0.984825
     24          1           0       -1.525525    0.704212    1.351149
     25          1           0       -2.425010    2.895462    0.532961
     26          7           0       -2.420799   -1.721737    0.702076
     27          8           0       -1.471204   -1.684717    1.481521
     28          8           0       -2.961924   -2.747041    0.293941
 ---------------------------------------------------------------------

 SCF Done:  E(RHF) =  -868.336283612     A.U. after   16 cycles
 E2 =    -0.2601706173D+01 EUMP2 =    -0.87093798978485D+03

 The electronic state is 1-A.
 Alpha  occ. eigenvalues --  -20.61232 -20.61219 -20.60423 -20.60386 -15.86284
 Alpha  occ. eigenvalues --  -15.85468 -11.31892 -11.31004 -11.28532 -11.28432
 Alpha  occ. eigenvalues --  -11.28239 -11.27641 -11.27626 -11.27602 -11.27494
 Alpha  occ. eigenvalues --  -11.27467 -11.26705 -11.26690  -1.60295  -1.59480
 Alpha  occ. eigenvalues --   -1.39843  -1.39027  -1.20093  -1.19227  -1.09424
 Alpha  occ. eigenvalues --   -1.08608  -1.05546  -1.04660  -0.96220  -0.95400
 Alpha  occ. eigenvalues --   -0.86906  -0.86070  -0.83059  -0.82235  -0.78087
 Alpha  occ. eigenvalues --   -0.77221  -0.72485  -0.71692  -0.71630  -0.71166
 Alpha  occ. eigenvalues --   -0.70803  -0.70365  -0.65748  -0.65528  -0.64888
 Alpha  occ. eigenvalues --   -0.64728  -0.62902  -0.61945  -0.55980  -0.55221
 Alpha  occ. eigenvalues --   -0.53867  -0.53622  -0.52965  -0.52720  -0.49262
 Alpha  occ. eigenvalues --   -0.49233  -0.48467  -0.48423  -0.45187  -0.44393
 Alpha  occ. eigenvalues --   -0.38056  -0.37255  -0.37139  -0.36251
 Alpha virt. eigenvalues --    0.04407   0.05316   0.10441   0.11350   0.15722
 Alpha virt. eigenvalues --    0.16657   0.20078   0.21948   0.25833   0.27435
 Alpha virt. eigenvalues --    0.28121   0.28678   0.30041   0.31483   0.31893

 Mulliken charges:
               1
     1  C   -0.171770
     2  C   -0.226796
     3  C   -0.166275
     4  C    0.158380
     5  C   -0.169959
     6  C   -0.218667
     7  H    0.220865
     8  H    0.219064
     9  H    0.280472
    10  H    0.276063
    11  H    0.222491
    12  N    0.487989
    13  O   -0.462189
    14  O   -0.454663
    15  C   -0.170267
    16  C   -0.217717
    17  C   -0.169277
    18  C    0.157744
    19  C   -0.180207
    20  C   -0.222277
    21  H    0.227783
    22  H    0.226988
    23  H    0.279554
    24  H    0.278010
    25  H    0.220204
    26  N    0.487440
    27  O   -0.458352
    28  O   -0.454633
 Sum of Mulliken charges =  -0.00000

 Dipole moment (field-independent basis, Debye):
    X=             -3.7554    Y=              9.0349    Z=             -0.7000  Tot=              9.8093
 Quadrupole moment (field-independent basis, Debye-Ang):
   XX=            -96.4003   YY=           -108.4684   ZZ=           -105.5963
   XY=              5.7522   XZ=             12.0150   YZ=              2.5970

 Normal termination of Gaussian 16 at Thu May  6 19:49:21 2021.
