 Gaussian 16, Revision A.03,
 Gaussian 16:  EM64L-G16RevA.03 25-Dec-2016

 -------------
 #p 6-31g* mp2
 -------------

 ------------------------------------------------------
 Input file generated by CHIRIPA (05-May-2021 14:57:21)
 ------------------------------------------------------
 Symbolic Z-matrix:
 Charge =  0 Multiplicity = 1

                         Standard orientation:
 ---------------------------------------------------------------------
 Center     Atomic      Atomic             Coordinates (Angstroms)
 Number     Number       Type             X           Y           Z
 ---------------------------------------------------------------------
      1          6           0       -1.602555    2.273414    0.552264
      2          6           0       -2.009910    1.939584   -0.743552
      3          6           0       -2.870135    0.859221   -0.961220
      4          6           0       -3.305620    0.131018    0.144838
      5          6           0       -2.917578    0.438784    1.447908
      6          6           0       -2.056888    1.523272    1.641937
      7          1           0       -0.934131    3.114268    0.712172
      8          1           0       -1.658657    2.520380   -1.591693
      9          1           0       -3.201216    0.578864   -1.953794
     10          1           0       -3.284465   -0.158877    2.273507
     11          1           0       -1.742178    1.780232    2.649397
     12          7           0       -4.216548   -1.014896   -0.073085
     13          8           0       -4.586078   -1.640661    0.918129
     14          8           0       -4.543755   -1.265602   -1.230979
     15          6           0        5.549813    0.071832    0.511846
     16          6           0        4.853029    1.061577   -0.189168
     17          6           0        3.526047    0.855420   -0.577969
     18          6           0        2.924014   -0.357748   -0.247712
     19          6           0        3.591702   -1.363189    0.449834
     20          6           0        4.918039   -1.135263    0.828552
     21          1           0        6.580394    0.240436    0.809960
     22          1           0        5.341137    1.999995   -0.436486
     23          1           0        2.963207    1.604585   -1.121457
     24          1           0        3.078411   -2.288411    0.682033
     25          1           0        5.456717   -1.905700    1.372886
     26          7           0        1.519539   -0.587521   -0.653981
     27          8           0        1.011706   -1.664969   -0.350915
     28          8           0        0.953138    0.314183   -1.267787
 ---------------------------------------------------------------------

 SCF Done:  E(RHF) =  -868.337576341     A.U. after   16 cycles
 E2 =    -0.2600411268D+01 EUMP2 =    -0.87093798760900D+03

 The electronic state is 1-A.
 Alpha  occ. eigenvalues --  -20.61189 -20.61170 -20.59648 -20.59633 -15.86223
 Alpha  occ. eigenvalues --  -15.84691 -11.31604 -11.29903 -11.28206 -11.28134
 Alpha  occ. eigenvalues --  -11.27894 -11.27198 -11.27151 -11.26513 -11.26395
 Alpha  occ. eigenvalues --  -11.26253 -11.25586 -11.25437  -1.60244  -1.58714
 Alpha  occ. eigenvalues --   -1.39803  -1.38275  -1.19771  -1.18059  -1.09160
 Alpha  occ. eigenvalues --   -1.07512  -1.05176  -1.03460  -0.95997  -0.94376
 Alpha  occ. eigenvalues --   -0.86572  -0.84896  -0.82833  -0.81224  -0.77883
 Alpha  occ. eigenvalues --   -0.76273  -0.72457  -0.71567  -0.70930  -0.70874
 Alpha  occ. eigenvalues --   -0.70015  -0.69264  -0.65425  -0.65174  -0.63756
 Alpha  occ. eigenvalues --   -0.63528  -0.62525  -0.60848  -0.55665  -0.54061
 Alpha  occ. eigenvalues --   -0.53507  -0.53266  -0.51786  -0.51610  -0.49204
 Alpha  occ. eigenvalues --   -0.49166  -0.47682  -0.47671  -0.45207  -0.43718
 Alpha  occ. eigenvalues --   -0.37750  -0.36783  -0.36019  -0.34958
 Alpha virt. eigenvalues --    0.04645   0.06282   0.10872   0.12641   0.16165
 Alpha virt. eigenvalues --    0.17798   0.21020   0.22478   0.26921   0.27874
 Alpha virt. eigenvalues --    0.28433   0.29330   0.30607   0.31957   0.32133

 Mulliken charges:
               1
     1  C   -0.170336
     2  C   -0.197373
     3  C   -0.164123
     4  C    0.161436
     5  C   -0.170514
     6  C   -0.220200
     7  H    0.217076
     8  H    0.220214
     9  H    0.273405
    10  H    0.271029
    11  H    0.216171
    12  N    0.488856
    13  O   -0.464663
    14  O   -0.461826
    15  C   -0.170844
    16  C   -0.218442
    17  C   -0.172092
    18  C    0.158592
    19  C   -0.170885
    20  C   -0.218428
    21  H    0.226705
    22  H    0.223266
    23  H    0.271453
    24  H    0.277750
    25  H    0.225171
    26  N    0.489454
    27  O   -0.455590
    28  O   -0.465261
 Sum of Mulliken charges =  -0.00000

 Dipole moment (field-independent basis, Debye):
    X=              8.3906    Y=              4.7117    Z=              2.0246  Tot=              9.8337
 Quadrupole moment (field-independent basis, Debye-Ang):
   XX=            -98.9355   YY=           -101.1328   ZZ=           -100.5705
   XY=            -12.6006   XZ=              1.5747   YZ=             -3.5163

 Normal termination of Gaussian 16 at Wed May  5 17:45:59 2021.
