 Gaussian 16, Revision A.03,
 Gaussian 16:  EM64L-G16RevA.03 25-Dec-2016

 -------------
 #p 6-31g* mp2
 -------------

 ------------------------------------------------------
 Input file generated by CHIRIPA (05-May-2021 14:57:27)
 ------------------------------------------------------
 Symbolic Z-matrix:
 Charge =  0 Multiplicity = 1

                         Standard orientation:
 ---------------------------------------------------------------------
 Center     Atomic      Atomic             Coordinates (Angstroms)
 Number     Number       Type             X           Y           Z
 ---------------------------------------------------------------------
      1          6           0        1.651730    0.915443    1.944239
      2          6           0        1.882971   -0.443559    1.707255
      3          6           0        2.821450   -0.848305    0.753323
      4          6           0        3.513924    0.137139    0.051420
      5          6           0        3.305923    1.498937    0.264801
      6          6           0        2.362691    1.880652    1.223527
      7          1           0        0.920851    1.220914    2.687138
      8          1           0        1.332298   -1.195353    2.265475
      9          1           0        3.020225   -1.893525    0.549800
     10          1           0        3.870331    2.225185   -0.307410
     11          1           0        2.185177    2.936792    1.405469
     12          7           0        4.509966   -0.279156   -0.961002
     13          8           0        5.106977    0.608590   -1.566083
     14          8           0        4.674793   -1.485312   -1.130288
     15          6           0       -5.494570    1.094604   -0.491793
     16          6           0       -4.273434    1.675216   -0.849894
     17          6           0       -3.078825    0.964038   -0.702644
     18          6           0       -3.142413   -0.331464   -0.191837
     19          6           0       -4.343401   -0.937381    0.173925
     20          6           0       -5.525602   -0.207545    0.018073
     21          1           0       -6.417752    1.654312   -0.609521
     22          1           0       -4.246313    2.686310   -1.246124
     23          1           0       -2.119644    1.389317   -0.971952
     24          1           0       -4.338598   -1.947105    0.566164
     25          1           0       -6.472504   -0.660993    0.297010
     26          7           0       -1.884302   -1.094231   -0.031398
     27          8           0       -1.967204   -2.234037    0.420939
     28          8           0       -0.839115   -0.537842   -0.361020
 ---------------------------------------------------------------------

 SCF Done:  E(RHF) =  -868.338078632     A.U. after   15 cycles
 E2 =    -0.2600001649D+01 EUMP2 =    -0.87093808028146D+03

 The electronic state is 1-A.
 Alpha  occ. eigenvalues --  -20.61411 -20.61363 -20.59828 -20.59808 -15.86409
 Alpha  occ. eigenvalues --  -15.84865 -11.31696 -11.30028 -11.28250 -11.28247
 Alpha  occ. eigenvalues --  -11.27967 -11.27241 -11.27230 -11.26638 -11.26472
 Alpha  occ. eigenvalues --  -11.26329 -11.25696 -11.25474  -1.60467  -1.58897
 Alpha  occ. eigenvalues --   -1.40017  -1.38457  -1.19860  -1.18171  -1.09271
 Alpha  occ. eigenvalues --   -1.07631  -1.05245  -1.03550  -0.96118  -0.94503
 Alpha  occ. eigenvalues --   -0.86646  -0.84990  -0.82947  -0.81344  -0.78011
 Alpha  occ. eigenvalues --   -0.76404  -0.72635  -0.71794  -0.71098  -0.70957
 Alpha  occ. eigenvalues --   -0.70209  -0.69361  -0.65508  -0.65242  -0.63857
 Alpha  occ. eigenvalues --   -0.63604  -0.62590  -0.60931  -0.55743  -0.54146
 Alpha  occ. eigenvalues --   -0.53587  -0.53331  -0.51888  -0.51686  -0.49407
 Alpha  occ. eigenvalues --   -0.49373  -0.47858  -0.47836  -0.45438  -0.43908
 Alpha  occ. eigenvalues --   -0.37840  -0.36849  -0.36130  -0.35047
 Alpha virt. eigenvalues --    0.04494   0.06129   0.10807   0.12548   0.16033
 Alpha virt. eigenvalues --    0.17671   0.20987   0.22448   0.26899   0.27876
 Alpha virt. eigenvalues --    0.28406   0.29280   0.30564   0.31943   0.32090

 Mulliken charges:
               1
     1  C   -0.169383
     2  C   -0.199260
     3  C   -0.165020
     4  C    0.158288
     5  C   -0.173274
     6  C   -0.219585
     7  H    0.218245
     8  H    0.225926
     9  H    0.275259
    10  H    0.270239
    11  H    0.215676
    12  N    0.488121
    13  O   -0.465352
    14  O   -0.461038
    15  C   -0.170434
    16  C   -0.218646
    17  C   -0.172143
    18  C    0.157224
    19  C   -0.171160
    20  C   -0.218528
    21  H    0.227159
    22  H    0.224592
    23  H    0.276295
    24  H    0.275944
    25  H    0.224856
    26  N    0.486583
    27  O   -0.463252
    28  O   -0.457333
 Sum of Mulliken charges =  -0.00000

 Dipole moment (field-independent basis, Debye):
    X=             -8.2756    Y=              3.9510    Z=              2.9873  Tot=              9.6447
 Quadrupole moment (field-independent basis, Debye-Ang):
   XX=           -101.8641   YY=            -99.2016   ZZ=           -105.0611
   XY=              0.2335   XZ=             13.9252   YZ=             -2.7914

 Normal termination of Gaussian 16 at Thu May  6 03:39:18 2021.
