 Gaussian 16, Revision A.03,
 Gaussian 16:  EM64L-G16RevA.03 25-Dec-2016

 -------------
 #p 6-31g* mp2
 -------------

 ------------------------------------------------------
 Input file generated by CHIRIPA (05-May-2021 14:55:25)
 ------------------------------------------------------
 Symbolic Z-matrix:
 Charge =  0 Multiplicity = 1

                         Standard orientation:
 ---------------------------------------------------------------------
 Center     Atomic      Atomic             Coordinates (Angstroms)
 Number     Number       Type             X           Y           Z
 ---------------------------------------------------------------------
      1          6           0        3.954526    2.323148    0.735450
      2          6           0        4.489453    1.774253   -0.434630
      3          6           0        4.036932    0.540400   -0.911471
      4          6           0        3.043861   -0.120323   -0.189983
      5          6           0        2.491147    0.400510    0.979004
      6          6           0        2.958836    1.635737    1.437296
      7          1           0        4.311947    3.282169    1.098667
      8          1           0        5.262816    2.305872   -0.981748
      9          1           0        4.433626    0.092483   -1.814479
     10          1           0        1.721235   -0.152981    1.502741
     11          1           0        2.541577    2.059607    2.346292
     12          7           0        2.556768   -1.427275   -0.684974
     13          8           0        1.681015   -1.989492   -0.031058
     14          8           0        3.059962   -1.864701   -1.717492
     15          6           0       -4.608683    0.048711   -0.288509
     16          6           0       -4.971318    1.533909   -0.262608
     17          6           0       -6.193305    1.859135   -1.122124
     18          1           0       -4.420862   -0.258295   -1.326495
     19          1           0       -5.469908   -0.537992    0.060008
     20          1           0       -4.109193    2.117727   -0.609758
     21          1           0       -5.158110    1.837460    0.775458
     22          1           0       -7.068878    1.302032   -0.773399
     23          1           0       -6.014001    1.583891   -2.166486
     24          1           0       -6.434852    2.926107   -1.089151
     25          6           0       -3.389114   -0.292113    0.566019
     26          6           0       -3.026479   -1.777310    0.540119
     27          6           0       -1.804491   -2.102537    1.399634
     28          1           0       -2.527888    0.294590    0.217502
     29          1           0       -3.576936    0.014894    1.604006
     30          1           0       -2.839687   -2.080861   -0.497948
     31          1           0       -3.888605   -2.361129    0.887268
     32          1           0       -1.983796   -1.827293    2.443996
     33          1           0       -0.928919   -1.545433    1.050909
     34          1           0       -1.562946   -3.169508    1.366662
 ---------------------------------------------------------------------

 SCF Done:  E(RHF) =  -669.535902401     A.U. after   15 cycles
 E2 =    -0.2091016906D+01 EUMP2 =    -0.67162691930681D+03

 The electronic state is 1-A.
 Alpha  occ. eigenvalues --  -20.60884 -20.60877 -15.85919 -11.31257 -11.27823
 Alpha  occ. eigenvalues --  -11.27818 -11.27563 -11.26835 -11.26825 -11.21414
 Alpha  occ. eigenvalues --  -11.21080 -11.21001 -11.20932 -11.20912 -11.20167
 Alpha  occ. eigenvalues --   -1.59950  -1.39506  -1.19429  -1.08830  -1.08047
 Alpha  occ. eigenvalues --   -1.04827  -1.03080  -0.95677  -0.95512  -0.86538
 Alpha  occ. eigenvalues --   -0.86227  -0.82501  -0.79165  -0.77866  -0.77545
 Alpha  occ. eigenvalues --   -0.72144  -0.71267  -0.70537  -0.65086  -0.64831
 Alpha  occ. eigenvalues --   -0.64674  -0.62176  -0.60465  -0.58916  -0.57132
 Alpha  occ. eigenvalues --   -0.55331  -0.54797  -0.53159  -0.52920  -0.52184
 Alpha  occ. eigenvalues --   -0.51959  -0.49498  -0.48898  -0.48870  -0.47471
 Alpha  occ. eigenvalues --   -0.46205  -0.45402  -0.45328  -0.44860  -0.43342
 Alpha  occ. eigenvalues --   -0.37410  -0.36429
 Alpha virt. eigenvalues --    0.04952   0.11214   0.16440   0.21077   0.23219
 Alpha virt. eigenvalues --    0.24503   0.26174   0.27205   0.27635   0.27948
 Alpha virt. eigenvalues --    0.29073   0.30415   0.31568   0.32105   0.32501

 Mulliken charges:
               1
     1  C   -0.170564
     2  C   -0.218624
     3  C   -0.170846
     4  C    0.157579
     5  C   -0.172298
     6  C   -0.219086
     7  H    0.225895
     8  H    0.223682
     9  H    0.275702
    10  H    0.278625
    11  H    0.224157
    12  N    0.490380
    13  O   -0.462339
    14  O   -0.459564
    15  C   -0.297991
    16  C   -0.299118
    17  C   -0.475471
    18  H    0.150869
    19  H    0.149273
    20  H    0.150377
    21  H    0.150348
    22  H    0.155207
    23  H    0.155617
    24  H    0.158735
    25  C   -0.297637
    26  C   -0.299789
    27  C   -0.480584
    28  H    0.146934
    29  H    0.146210
    30  H    0.155971
    31  H    0.149064
    32  H    0.145243
    33  H    0.168201
    34  H    0.165841
 Sum of Mulliken charges =  -0.00000

 Dipole moment (field-independent basis, Debye):
    X=              1.8942    Y=              4.5335    Z=              1.6733  Tot=              5.1904
 Quadrupole moment (field-independent basis, Debye-Ang):
   XX=            -83.6405   YY=            -96.5102   ZZ=            -92.6361
   XY=             14.8908   XZ=              1.4177   YZ=             -1.0576

 Normal termination of Gaussian 16 at Thu May  6 07:59:09 2021.
