 Gaussian 16, Revision A.03,
 Gaussian 16:  EM64L-G16RevA.03 25-Dec-2016

 -------------
 #p 6-31g* mp2
 -------------

 ------------------------------------------------------
 Input file generated by CHIRIPA (05-May-2021 14:55:25)
 ------------------------------------------------------
 Symbolic Z-matrix:
 Charge =  0 Multiplicity = 1

                         Standard orientation:
 ---------------------------------------------------------------------
 Center     Atomic      Atomic             Coordinates (Angstroms)
 Number     Number       Type             X           Y           Z
 ---------------------------------------------------------------------
      1          6           0       -2.088466    1.728978    1.388838
      2          6           0       -1.572824    1.191190    0.205022
      3          6           0       -2.277231    0.205786   -0.493072
      4          6           0       -3.499784   -0.220515    0.023573
      5          6           0       -4.039885    0.295873    1.200401
      6          6           0       -3.318182    1.280394    1.881880
      7          1           0       -1.534548    2.494121    1.924681
      8          1           0       -0.618055    1.537658   -0.180231
      9          1           0       -1.901293   -0.227689   -1.411869
     10          1           0       -4.994223   -0.069613    1.559672
     11          1           0       -3.721074    1.696250    2.801003
     12          7           0       -4.254663   -1.263251   -0.706673
     13          8           0       -5.329557   -1.621845   -0.230595
     14          8           0       -3.757149   -1.702209   -1.741290
     15          6           0        3.662327    0.328875   -0.465660
     16          6           0        3.736349    1.794091   -0.896532
     17          6           0        2.411972    2.312964   -1.457416
     18          1           0        3.361143   -0.284833   -1.325656
     19          1           0        2.873312    0.215757    0.290683
     20          1           0        4.525925    1.904660   -1.650827
     21          1           0        4.037578    2.404359   -0.035458
     22          1           0        1.617980    2.231605   -0.708045
     23          1           0        2.109101    1.729067   -2.332592
     24          1           0        2.487409    3.362292   -1.759210
     25          6           0        4.978621   -0.204306    0.097207
     26          6           0        4.904600   -1.669521    0.528079
     27          6           0        6.228976   -2.188395    1.088963
     28          1           0        5.767636   -0.091188   -0.659136
     29          1           0        5.279805    0.409403    0.957203
     30          1           0        4.603370   -2.279789   -0.332996
     31          1           0        4.115023   -1.780091    1.282374
     32          1           0        6.531848   -1.604498    1.964139
     33          1           0        7.022969   -2.107036    0.339591
     34          1           0        6.153540   -3.237723    1.390757
 ---------------------------------------------------------------------

 SCF Done:  E(RHF) =  -669.535552215     A.U. after   15 cycles
 E2 =    -0.2090820023D+01 EUMP2 =    -0.67162637223879D+03

 The electronic state is 1-A.
 Alpha  occ. eigenvalues --  -20.60725 -20.60720 -15.85778 -11.31137 -11.27708
 Alpha  occ. eigenvalues --  -11.27693 -11.27449 -11.26727 -11.26683 -11.22353
 Alpha  occ. eigenvalues --  -11.22115 -11.22019 -11.21963 -11.21843 -11.21359
 Alpha  occ. eigenvalues --   -1.59801  -1.39354  -1.19308  -1.09006  -1.08707
 Alpha  occ. eigenvalues --   -1.04709  -1.04126  -0.96595  -0.95542  -0.87618
 Alpha  occ. eigenvalues --   -0.86110  -0.82374  -0.80198  -0.78788  -0.77421
 Alpha  occ. eigenvalues --   -0.71997  -0.71124  -0.70422  -0.65645  -0.64960
 Alpha  occ. eigenvalues --   -0.64730  -0.62096  -0.61499  -0.59965  -0.58185
 Alpha  occ. eigenvalues --   -0.55910  -0.55213  -0.53287  -0.53126  -0.53041
 Alpha  occ. eigenvalues --   -0.52700  -0.50536  -0.48764  -0.48752  -0.48493
 Alpha  occ. eigenvalues --   -0.47218  -0.46335  -0.46238  -0.44761  -0.44360
 Alpha  occ. eigenvalues --   -0.37294  -0.36311
 Alpha virt. eigenvalues --    0.05112   0.11333   0.16601   0.19836   0.22529
 Alpha virt. eigenvalues --    0.23736   0.25217   0.26362   0.27203   0.28280
 Alpha virt. eigenvalues --    0.28752   0.30064   0.31142   0.31435   0.32089

 Mulliken charges:
               1
     1  C   -0.173468
     2  C   -0.226884
     3  C   -0.173575
     4  C    0.158929
     5  C   -0.171334
     6  C   -0.218534
     7  H    0.225315
     8  H    0.236389
     9  H    0.276308
    10  H    0.275384
    11  H    0.223141
    12  N    0.488048
    13  O   -0.460699
    14  O   -0.460445
    15  C   -0.298988
    16  C   -0.299414
    17  C   -0.481091
    18  H    0.151596
    19  H    0.146619
    20  H    0.156024
    21  H    0.152755
    22  H    0.146128
    23  H    0.158416
    24  H    0.164811
    25  C   -0.298668
    26  C   -0.300235
    27  C   -0.476076
    28  H    0.151142
    29  H    0.149725
    30  H    0.153619
    31  H    0.152097
    32  H    0.155072
    33  H    0.155913
    34  H    0.161979
 Sum of Mulliken charges =  -0.00000

 Dipole moment (field-independent basis, Debye):
    X=              2.8681    Y=              3.6554    Z=              2.5318  Tot=              5.2913
 Quadrupole moment (field-independent basis, Debye-Ang):
   XX=           -111.1411   YY=            -97.2417   ZZ=            -91.8102
   XY=            -13.2902   XZ=            -12.7316   YZ=              0.1434

 Normal termination of Gaussian 16 at Thu May  6 16:04:45 2021.
