 Gaussian 16, Revision A.03,
 Gaussian 16:  EM64L-G16RevA.03 25-Dec-2016

 -------------
 #p 6-31g* mp2
 -------------

 ------------------------------------------------------
 Input file generated by CHIRIPA (05-May-2021 14:51:09)
 ------------------------------------------------------
 Symbolic Z-matrix:
 Charge =  0 Multiplicity = 1

                         Standard orientation:
 ---------------------------------------------------------------------
 Center     Atomic      Atomic             Coordinates (Angstroms)
 Number     Number       Type             X           Y           Z
 ---------------------------------------------------------------------
      1          6           0        2.853012    0.353657    0.762826
      2          6           0        1.428903   -0.146044    1.008182
      3          6           0        0.597849    0.825353    1.846949
      4          1           0        3.347521    0.521508    1.729383
      5          1           0        2.810120    1.329729    0.259995
      6          1           0        1.474481   -1.121523    1.509159
      7          1           0        0.937791   -0.312907    0.040927
      8          1           0        0.522663    1.797422    1.348923
      9          1           0        1.062403    0.984212    2.825497
     10          1           0       -0.416615    0.448420    2.010178
     11          6           0        3.696192   -0.606602   -0.074239
     12          6           0        5.120300   -0.106901   -0.319595
     13          6           0        5.951354   -1.078298   -1.158362
     14          1           0        3.739084   -1.582673    0.428592
     15          1           0        3.201683   -0.774453   -1.040796
     16          1           0        5.611412    0.059963    0.647660
     17          1           0        5.074723    0.868579   -0.820572
     18          1           0        5.486801   -1.237156   -2.136910
     19          1           0        6.026540   -2.050367   -0.660336
     20          1           0        6.965818   -0.701365   -1.321591
     21          6           0       -3.262938   -0.629431   -0.453409
     22          6           0       -4.461999   -1.349792    0.164100
     23          6           0       -4.424444   -2.861413   -0.062589
     24          1           0       -3.232472   -0.839339   -1.531349
     25          1           0       -2.337459   -1.041995   -0.028351
     26          1           0       -5.384987   -0.935039   -0.260976
     27          1           0       -4.489726   -1.137989    1.240662
     28          1           0       -3.520139   -3.294530    0.377003
     29          1           0       -4.420487   -3.090427   -1.133168
     30          1           0       -5.290838   -3.356442    0.387041
     31          6           0       -3.286265    0.882375   -0.235178
     32          6           0       -2.087204    1.602737   -0.852687
     33          6           0       -2.124759    3.114357   -0.625998
     34          1           0       -4.211744    1.294939   -0.660236
     35          1           0       -3.316732    1.092284    0.842763
     36          1           0       -2.059478    1.390934   -1.929249
     37          1           0       -1.164216    1.187983   -0.427611
     38          1           0       -2.128717    3.343371    0.444581
     39          1           0       -3.029065    3.547475   -1.065589
     40          1           0       -1.258366    3.609387   -1.075628
 ---------------------------------------------------------------------

 SCF Done:  E(RHF) =  -470.732896385     A.U. after   11 cycles
 E2 =    -0.1583747014D+01 EUMP2 =    -0.47231664339895D+03

 The electronic state is 1-A.
 Alpha  occ. eigenvalues --  -11.21677 -11.21623 -11.21593 -11.21491 -11.21446
 Alpha  occ. eigenvalues --  -11.21384 -11.21383 -11.21320 -11.21146 -11.21086
 Alpha  occ. eigenvalues --  -11.21063 -11.21042  -1.08488  -1.08393  -1.03616
 Alpha  occ. eigenvalues --   -1.03471  -0.96042  -0.95950  -0.87056  -0.86965
 Alpha  occ. eigenvalues --   -0.79645  -0.79565  -0.78298  -0.78208  -0.65256
 Alpha  occ. eigenvalues --   -0.64937  -0.61259  -0.60667  -0.59395  -0.59303
 Alpha  occ. eigenvalues --   -0.57645  -0.57565  -0.55432  -0.55125  -0.52731
 Alpha  occ. eigenvalues --   -0.52644  -0.52450  -0.52379  -0.49990  -0.49872
 Alpha  occ. eigenvalues --   -0.47977  -0.47855  -0.46681  -0.46575  -0.45903
 Alpha  occ. eigenvalues --   -0.45772  -0.45731  -0.45555  -0.43833  -0.43756
 Alpha virt. eigenvalues --    0.20145   0.22981   0.23763   0.24597   0.26124
 Alpha virt. eigenvalues --    0.26399   0.26766   0.27563   0.28113   0.29556
 Alpha virt. eigenvalues --    0.30778   0.31341   0.31746   0.32000   0.32200

 Mulliken charges:
               1
     1  C   -0.298016
     2  C   -0.304521
     3  C   -0.481811
     4  H    0.149916
     5  H    0.149780
     6  H    0.152366
     7  H    0.155079
     8  H    0.158033
     9  H    0.157071
    10  H    0.161214
    11  C   -0.298476
    12  C   -0.299713
    13  C   -0.475747
    14  H    0.149585
    15  H    0.149996
    16  H    0.151971
    17  H    0.152026
    18  H    0.155283
    19  H    0.155215
    20  H    0.160337
    21  C   -0.300279
    22  C   -0.299541
    23  C   -0.475712
    24  H    0.149618
    25  H    0.150611
    26  H    0.152037
    27  H    0.151754
    28  H    0.155222
    29  H    0.155157
    30  H    0.160214
    31  C   -0.298125
    32  C   -0.309910
    33  C   -0.476017
    34  H    0.149462
    35  H    0.149565
    36  H    0.150790
    37  H    0.165510
    38  H    0.155893
    39  H    0.155126
    40  H    0.159038
 Sum of Mulliken charges =  -0.00000

 Dipole moment (field-independent basis, Debye):
    X=              0.0400    Y=             -0.0048    Z=              0.0151  Tot=              0.0430
 Quadrupole moment (field-independent basis, Debye-Ang):
   XX=            -84.9902   YY=            -86.1838   ZZ=            -83.6704
   XY=              0.1235   XZ=              1.1237   YZ=             -0.9098

 Normal termination of Gaussian 16 at Wed May  5 19:42:59 2021.
