 Gaussian 16, Revision A.03,
 Gaussian 16:  EM64L-G16RevA.03 25-Dec-2016

 -------------
 #p 6-31g* mp2
 -------------

 ------------------------------------------------------
 Input file generated by CHIRIPA (05-May-2021 14:55:21)
 ------------------------------------------------------
 Symbolic Z-matrix:
 Charge =  0 Multiplicity = 1

                         Standard orientation:
 ---------------------------------------------------------------------
 Center     Atomic      Atomic             Coordinates (Angstroms)
 Number     Number       Type             X           Y           Z
 ---------------------------------------------------------------------
      1          6           0        2.625527    2.445766    0.147070
      2          6           0        3.857398    2.269263   -0.491570
      3          6           0        4.428096    0.997134   -0.594244
      4          6           0        3.736435   -0.081178   -0.044574
      5          6           0        2.507587    0.062429    0.597767
      6          6           0        1.955734    1.343728    0.688745
      7          1           0        2.189515    3.437548    0.222286
      8          1           0        4.379818    3.123300   -0.913166
      9          1           0        5.380443    0.832037   -1.083321
     10          1           0        2.010524   -0.808092    1.008302
     11          1           0        0.998907    1.477820    1.185280
     12          7           0        4.330632   -1.432778   -0.147079
     13          8           0        3.701260   -2.366584    0.345397
     14          8           0        5.414485   -1.532763   -0.717958
     15          6           0       -5.342928    0.124394    0.176578
     16          6           0       -6.443972   -0.405853   -0.742403
     17          6           0       -7.809826    0.214969   -0.447754
     18          1           0       -5.619390   -0.073143    1.221323
     19          1           0       -5.280923    1.216344    0.070764
     20          1           0       -6.502948   -1.496632   -0.635916
     21          1           0       -6.164767   -0.207202   -1.785091
     22          1           0       -7.773976    1.302009   -0.572901
     23          1           0       -8.114079    0.005252    0.582804
     24          1           0       -8.582145   -0.178198   -1.116187
     25          6           0       -3.971642   -0.486843   -0.105717
     26          6           0       -2.870598    0.043403    0.813263
     27          6           0       -1.504744   -0.577419    0.518614
     28          1           0       -4.033647   -1.578793    0.000096
     29          1           0       -3.695180   -0.289306   -1.150463
     30          1           0       -3.149803   -0.155249    1.855950
     31          1           0       -2.811622    1.134182    0.706776
     32          1           0       -1.200492   -0.367702   -0.511944
     33          1           0       -1.540594   -1.664459    0.643760
     34          1           0       -0.732425   -0.184251    1.187047
 ---------------------------------------------------------------------

 SCF Done:  E(RHF) =  -669.535167651     A.U. after   15 cycles
 E2 =    -0.2091249886D+01 EUMP2 =    -0.67162641753743D+03

 The electronic state is 1-A.
 Alpha  occ. eigenvalues --  -20.60707 -20.60702 -15.85760 -11.31118 -11.27693
 Alpha  occ. eigenvalues --  -11.27665 -11.27434 -11.26712 -11.26671 -11.22248
 Alpha  occ. eigenvalues --  -11.21893 -11.21867 -11.21843 -11.21742 -11.21320
 Alpha  occ. eigenvalues --   -1.59783  -1.39336  -1.19292  -1.08880  -1.08690
 Alpha  occ. eigenvalues --   -1.04699  -1.04011  -0.96472  -0.95525  -0.87496
 Alpha  occ. eigenvalues --   -0.86093  -0.82363  -0.80080  -0.78664  -0.77406
 Alpha  occ. eigenvalues --   -0.71979  -0.71106  -0.70405  -0.65504  -0.64950
 Alpha  occ. eigenvalues --   -0.64718  -0.62131  -0.61392  -0.59830  -0.58068
 Alpha  occ. eigenvalues --   -0.55733  -0.55205  -0.53276  -0.52997  -0.52938
 Alpha  occ. eigenvalues --   -0.52665  -0.50381  -0.48738  -0.48733  -0.48389
 Alpha  occ. eigenvalues --   -0.47092  -0.46212  -0.46119  -0.44744  -0.44269
 Alpha  occ. eigenvalues --   -0.37279  -0.36281
 Alpha virt. eigenvalues --    0.05121   0.11350   0.16580   0.20193   0.22590
 Alpha virt. eigenvalues --    0.23816   0.25927   0.26231   0.27003   0.28097
 Alpha virt. eigenvalues --    0.28694   0.30065   0.30990   0.31512   0.32233

 Mulliken charges:
               1
     1  C   -0.171445
     2  C   -0.218693
     3  C   -0.171125
     4  C    0.158221
     5  C   -0.171613
     6  C   -0.219994
     7  H    0.225278
     8  H    0.223067
     9  H    0.275321
    10  H    0.277032
    11  H    0.226148
    12  N    0.488231
    13  O   -0.460353
    14  O   -0.460820
    15  C   -0.298576
    16  C   -0.300097
    17  C   -0.475933
    18  H    0.150360
    19  H    0.148797
    20  H    0.153273
    21  H    0.152476
    22  H    0.154907
    23  H    0.155607
    24  H    0.161440
    25  C   -0.299164
    26  C   -0.300187
    27  C   -0.479179
    28  H    0.152410
    29  H    0.150885
    30  H    0.153842
    31  H    0.148856
    32  H    0.160077
    33  H    0.162923
    34  H    0.148030
 Sum of Mulliken charges =  -0.00000

 Dipole moment (field-independent basis, Debye):
    X=             -2.2738    Y=              4.6977    Z=              0.3112  Tot=              5.2283
 Quadrupole moment (field-independent basis, Debye-Ang):
   XX=           -108.2112   YY=            -94.8644   ZZ=            -93.9073
   XY=             20.5349   XZ=             -0.7588   YZ=             -1.9024

 Normal termination of Gaussian 16 at Thu May  6 01:25:02 2021.
