 Gaussian 16, Revision A.03,
 Gaussian 16:  EM64L-G16RevA.03 25-Dec-2016

 -------------
 #p 6-31g* mp2
 -------------

 ------------------------------------------------------
 Input file generated by CHIRIPA (05-May-2021 14:53:18)
 ------------------------------------------------------
 Symbolic Z-matrix:
 Charge =  0 Multiplicity = 1

                         Standard orientation:
 ---------------------------------------------------------------------
 Center     Atomic      Atomic             Coordinates (Angstroms)
 Number     Number       Type             X           Y           Z
 ---------------------------------------------------------------------
      1          6           0       -3.016136    1.113833   -0.185763
      2          6           0       -1.719449    1.681851    0.392115
      3          6           0       -1.560499    3.179377    0.127646
      4          1           0       -3.040775    1.301141   -1.268008
      5          1           0       -3.869577    1.655762    0.244756
      6          1           0       -0.868768    1.138084   -0.038321
      7          1           0       -1.697806    1.492999    1.473079
      8          1           0       -2.389927    3.739181    0.571797
      9          1           0       -1.556178    3.382250   -0.948191
     10          1           0       -0.626879    3.564644    0.549288
     11          6           0       -3.189385   -0.382175    0.070507
     12          6           0       -4.486072   -0.950193   -0.507371
     13          6           0       -4.645022   -2.447719   -0.242902
     14          1           0       -2.335944   -0.924104   -0.360012
     15          1           0       -3.164746   -0.569483    1.152751
     16          1           0       -4.507715   -0.761341   -1.588335
     17          1           0       -5.336753   -0.406426   -0.076935
     18          1           0       -4.649343   -2.650592    0.832935
     19          1           0       -3.815594   -3.007523   -0.687053
     20          1           0       -5.578642   -2.832986   -0.664544
     21          6           0        2.495826   -2.797288    0.275708
     22          6           0        3.099095   -2.177800   -0.823756
     23          6           0        3.065491   -0.786990   -0.961836
     24          6           0        2.417091   -0.043003    0.022720
     25          6           0        1.806764   -0.630868    1.129610
     26          6           0        1.852718   -2.023210    1.247170
     27          1           0        2.526728   -3.878298    0.375001
     28          1           0        3.599250   -2.776439   -1.579747
     29          1           0        3.524339   -0.281508   -1.802885
     30          1           0        1.315647   -0.007560    1.866978
     31          1           0        1.383353   -2.501598    2.102088
     32          7           0        2.374978    1.430196   -0.112597
     33          8           0        1.797437    2.063231    0.768511
     34          8           0        2.920308    1.923960   -1.097203
 ---------------------------------------------------------------------

 SCF Done:  E(RHF) =  -669.536071236     A.U. after   15 cycles
 E2 =    -0.2092714494D+01 EUMP2 =    -0.67162878572987D+03

 The electronic state is 1-A.
 Alpha  occ. eigenvalues --  -20.60966 -20.60946 -15.85971 -11.31278 -11.27841
 Alpha  occ. eigenvalues --  -11.27825 -11.27573 -11.26842 -11.26825 -11.21516
 Alpha  occ. eigenvalues --  -11.21219 -11.21119 -11.20942 -11.20874 -11.19869
 Alpha  occ. eigenvalues --   -1.60009  -1.39567  -1.19445  -1.08853  -1.08087
 Alpha  occ. eigenvalues --   -1.04834  -1.03072  -0.95710  -0.95493  -0.86531
 Alpha  occ. eigenvalues --   -0.86234  -0.82532  -0.79198  -0.77905  -0.77554
 Alpha  occ. eigenvalues --   -0.72210  -0.71331  -0.70549  -0.65102  -0.64835
 Alpha  occ. eigenvalues --   -0.64729  -0.62179  -0.60489  -0.58922  -0.57067
 Alpha  occ. eigenvalues --   -0.55341  -0.54829  -0.53173  -0.52925  -0.52145
 Alpha  occ. eigenvalues --   -0.51931  -0.49498  -0.48988  -0.48946  -0.47457
 Alpha  occ. eigenvalues --   -0.46285  -0.45497  -0.45379  -0.44761  -0.43307
 Alpha  occ. eigenvalues --   -0.37419  -0.36425
 Alpha virt. eigenvalues --    0.04914   0.11165   0.16380   0.21256   0.23114
 Alpha virt. eigenvalues --    0.24710   0.26622   0.26986   0.27616   0.28383
 Alpha virt. eigenvalues --    0.28709   0.30700   0.31590   0.31713   0.32519

 Mulliken charges:
               1
     1  C   -0.298284
     2  C   -0.294195
     3  C   -0.482166
     4  H    0.149419
     5  H    0.148574
     6  H    0.146929
     7  H    0.145609
     8  H    0.147546
     9  H    0.152306
    10  H    0.185354
    11  C   -0.297552
    12  C   -0.298992
    13  C   -0.475245
    14  H    0.146880
    15  H    0.145716
    16  H    0.152421
    17  H    0.152493
    18  H    0.153419
    19  H    0.152815
    20  H    0.160151
    21  C   -0.170568
    22  C   -0.218750
    23  C   -0.170950
    24  C    0.156609
    25  C   -0.170067
    26  C   -0.218763
    27  H    0.226061
    28  H    0.223729
    29  H    0.275718
    30  H    0.277405
    31  H    0.224239
    32  N    0.489443
    33  O   -0.458703
    34  O   -0.458601
 Sum of Mulliken charges =  -0.00000

 Dipole moment (field-independent basis, Debye):
    X=              0.3967    Y=             -5.0811    Z=              0.4905  Tot=              5.1201
 Quadrupole moment (field-independent basis, Debye-Ang):
   XX=            -93.7146   YY=            -95.7017   ZZ=            -90.5522
   XY=            -13.2037   XZ=             -1.7547   YZ=              0.5204

 Normal termination of Gaussian 16 at Wed May  5 23:41:10 2021.
