 Gaussian 16, Revision A.03,
 Gaussian 16:  EM64L-G16RevA.03 25-Dec-2016

 -------------
 #p 6-31g* mp2
 -------------

 ------------------------------------------------------
 Input file generated by CHIRIPA (05-May-2021 14:53:11)
 ------------------------------------------------------
 Symbolic Z-matrix:
 Charge =  0 Multiplicity = 1

                         Standard orientation:
 ---------------------------------------------------------------------
 Center     Atomic      Atomic             Coordinates (Angstroms)
 Number     Number       Type             X           Y           Z
 ---------------------------------------------------------------------
      1          6           0       -2.514264   -0.312188   -0.578387
      2          6           0       -3.663199   -1.245921   -0.196185
      3          6           0       -3.388140   -2.703791   -0.565984
      4          1           0       -2.331222   -0.389626   -1.658870
      5          1           0       -1.594963   -0.650534   -0.080589
      6          1           0       -4.580355   -0.905100   -0.693459
      7          1           0       -3.843653   -1.166108    0.883482
      8          1           0       -2.488444   -3.066763   -0.058639
      9          1           0       -3.229332   -2.804273   -1.644541
     10          1           0       -4.222284   -3.353776   -0.283879
     11          6           0       -2.774386    1.148657   -0.215074
     12          6           0       -1.625452    2.082389   -0.597276
     13          6           0       -1.900510    3.540259   -0.227477
     14          1           0       -3.693687    1.487002   -0.712872
     15          1           0       -2.957428    1.226095    0.865409
     16          1           0       -1.444997    2.002576   -1.676943
     17          1           0       -0.708296    1.741569   -0.100002
     18          1           0       -2.059319    3.640741    0.851080
     19          1           0       -2.800206    3.903232   -0.734822
     20          1           0       -1.066367    4.190245   -0.509582
     21          6           0        0.587045   -0.520733    2.344975
     22          6           0        0.601545   -1.542848    1.390202
     23          6           0        1.417023   -1.446025    0.258756
     24          6           0        2.208848   -0.307991    0.113206
     25          6           0        2.216439    0.727169    1.046842
     26          6           0        1.393118    0.609022    2.170555
     27          1           0       -0.049485   -0.604230    3.220905
     28          1           0       -0.023418   -2.421380    1.523048
     29          1           0        1.447694   -2.222488   -0.495951
     30          1           0        2.850431    1.590820    0.886903
     31          1           0        1.383895    1.404365    2.910413
     32          7           0        3.076309   -0.194202   -1.080511
     33          8           0        3.764622    0.818634   -1.185514
     34          8           0        3.051488   -1.120004   -1.888540
 ---------------------------------------------------------------------

 SCF Done:  E(RHF) =  -669.534857123     A.U. after   15 cycles
 E2 =    -0.2094688399D+01 EUMP2 =    -0.67162954552218D+03

 The electronic state is 1-A.
 Alpha  occ. eigenvalues --  -20.60856 -20.60851 -15.85913 -11.31340 -11.27924
 Alpha  occ. eigenvalues --  -11.27899 -11.27666 -11.26954 -11.26924 -11.21991
 Alpha  occ. eigenvalues --  -11.21656 -11.21619 -11.21577 -11.21465 -11.21231
 Alpha  occ. eigenvalues --   -1.59930  -1.39482  -1.19534  -1.08918  -1.08650
 Alpha  occ. eigenvalues --   -1.04950  -1.03804  -0.96262  -0.95729  -0.87283
 Alpha  occ. eigenvalues --   -0.86330  -0.82562  -0.79861  -0.78464  -0.77593
 Alpha  occ. eigenvalues --   -0.72130  -0.71252  -0.70616  -0.65360  -0.65178
 Alpha  occ. eigenvalues --   -0.64908  -0.62284  -0.61214  -0.59628  -0.57868
 Alpha  occ. eigenvalues --   -0.55600  -0.55423  -0.53381  -0.53022  -0.52926
 Alpha  occ. eigenvalues --   -0.52683  -0.50239  -0.48895  -0.48880  -0.48195
 Alpha  occ. eigenvalues --   -0.46928  -0.45990  -0.45814  -0.44872  -0.44023
 Alpha  occ. eigenvalues --   -0.37485  -0.36437
 Alpha virt. eigenvalues --    0.04928   0.11042   0.16340   0.20084   0.22942
 Alpha virt. eigenvalues --    0.23570   0.25820   0.26646   0.27503   0.28151
 Alpha virt. eigenvalues --    0.28439   0.29976   0.31349   0.31618   0.32119

 Mulliken charges:
               1
     1  C   -0.308943
     2  C   -0.299231
     3  C   -0.474388
     4  H    0.151590
     5  H    0.157816
     6  H    0.154251
     7  H    0.147146
     8  H    0.144376
     9  H    0.159516
    10  H    0.161670
    11  C   -0.296057
    12  C   -0.305333
    13  C   -0.475629
    14  H    0.149998
    15  H    0.144002
    16  H    0.154886
    17  H    0.155776
    18  H    0.150745
    19  H    0.156144
    20  H    0.161468
    21  C   -0.169967
    22  C   -0.222926
    23  C   -0.168762
    24  C    0.160947
    25  C   -0.171748
    26  C   -0.217901
    27  H    0.226741
    28  H    0.227003
    29  H    0.277019
    30  H    0.276664
    31  H    0.224743
    32  N    0.488131
    33  O   -0.460008
    34  O   -0.459740
 Sum of Mulliken charges =  -0.00000

 Dipole moment (field-independent basis, Debye):
    X=             -2.9018    Y=             -0.4101    Z=              4.1724  Tot=              5.0988
 Quadrupole moment (field-independent basis, Debye-Ang):
   XX=           -108.4096   YY=            -92.0934   ZZ=            -92.9024
   XY=              1.7727   XZ=             10.2643   YZ=             -0.0681

 Normal termination of Gaussian 16 at Thu May  6 04:03:46 2021.
