 Gaussian 16, Revision A.03,
 Gaussian 16:  EM64L-G16RevA.03 25-Dec-2016

 -------------
 #p 6-31g* mp2
 -------------

 ------------------------------------------------------
 Input file generated by CHIRIPA (05-May-2021 14:53:16)
 ------------------------------------------------------
 Symbolic Z-matrix:
 Charge =  0 Multiplicity = 1

                         Standard orientation:
 ---------------------------------------------------------------------
 Center     Atomic      Atomic             Coordinates (Angstroms)
 Number     Number       Type             X           Y           Z
 ---------------------------------------------------------------------
      1          6           0        4.045185    0.089129   -0.290106
      2          6           0        4.661582   -0.971603    0.622520
      3          6           0        5.660413   -1.870710   -0.106683
      4          1           0        3.546067   -0.407211   -1.133594
      5          1           0        4.847828    0.704284   -0.719926
      6          1           0        3.857921   -1.583696    1.051574
      7          1           0        5.159127   -0.472687    1.464036
      8          1           0        6.482025   -1.277299   -0.520710
      9          1           0        5.173426   -2.394620   -0.935515
     10          1           0        6.088892   -2.621673    0.564377
     11          6           0        3.044589    0.995742    0.424450
     12          6           0        2.428192    2.056474   -0.488176
     13          6           0        1.429361    2.955582    0.241027
     14          1           0        2.241947    0.380587    0.854270
     15          1           0        3.543707    1.492082    1.267938
     16          1           0        1.930648    1.557559   -1.329692
     17          1           0        3.231853    2.668567   -0.917230
     18          1           0        1.916349    3.479491    1.069860
     19          1           0        0.607750    2.362170    0.655054
     20          1           0        1.000883    3.706544   -0.430033
     21          6           0       -5.109146    0.490279    0.184619
     22          6           0       -4.887009   -0.889347    0.246347
     23          6           0       -3.594845   -1.406970    0.116239
     24          6           0       -2.543249   -0.512146   -0.075400
     25          6           0       -2.732408    0.867407   -0.141304
     26          6           0       -4.033034    1.362715   -0.008669
     27          1           0       -6.116216    0.883713    0.286672
     28          1           0       -5.720830   -1.569258    0.396370
     29          1           0       -3.394496   -2.470619    0.160140
     30          1           0       -1.881176    1.520233   -0.291770
     31          1           0       -4.202574    2.434612   -0.057015
     32          7           0       -1.170815   -1.048317   -0.214478
     33          8           0       -0.261275   -0.238917   -0.382538
     34          8           0       -1.030628   -2.267817   -0.152793
 ---------------------------------------------------------------------

 SCF Done:  E(RHF) =  -669.536356143     A.U. after   15 cycles
 E2 =    -0.2092482291D+01 EUMP2 =    -0.67162883843419D+03

 The electronic state is 1-A.
 Alpha  occ. eigenvalues --  -20.61107 -20.61092 -15.86119 -11.31362 -11.27919
 Alpha  occ. eigenvalues --  -11.27901 -11.27643 -11.26910 -11.26896 -11.20460
 Alpha  occ. eigenvalues --  -11.20354 -11.20239 -11.20109 -11.20083 -11.19891
 Alpha  occ. eigenvalues --   -1.60158  -1.39718  -1.19525  -1.08946  -1.07145
 Alpha  occ. eigenvalues --   -1.04907  -1.02411  -0.95801  -0.94893  -0.86316
 Alpha  occ. eigenvalues --   -0.85924  -0.82641  -0.78483  -0.77706  -0.76956
 Alpha  occ. eigenvalues --   -0.72382  -0.71462  -0.70634  -0.65198  -0.64912
 Alpha  occ. eigenvalues --   -0.63687  -0.62261  -0.59752  -0.58279  -0.56519
 Alpha  occ. eigenvalues --   -0.55418  -0.54185  -0.53245  -0.52992  -0.51664
 Alpha  occ. eigenvalues --   -0.51350  -0.49256  -0.49095  -0.48644  -0.46816
 Alpha  occ. eigenvalues --   -0.45582  -0.45138  -0.44518  -0.44221  -0.42630
 Alpha  occ. eigenvalues --   -0.37501  -0.36505
 Alpha virt. eigenvalues --    0.04781   0.11135   0.16280   0.20864   0.23919
 Alpha virt. eigenvalues --    0.24754   0.26935   0.27604   0.28375   0.28925
 Alpha virt. eigenvalues --    0.29290   0.30919   0.31623   0.32530   0.32888

 Mulliken charges:
               1
     1  C   -0.298214
     2  C   -0.299862
     3  C   -0.475213
     4  H    0.156476
     5  H    0.142679
     6  H    0.157212
     7  H    0.147125
     8  H    0.151715
     9  H    0.156530
    10  H    0.156861
    11  C   -0.301424
    12  C   -0.295724
    13  C   -0.481322
    14  H    0.168976
    15  H    0.139930
    16  H    0.162950
    17  H    0.144107
    18  H    0.150854
    19  H    0.160258
    20  H    0.150092
    21  C   -0.170136
    22  C   -0.218787
    23  C   -0.170138
    24  C    0.156108
    25  C   -0.173193
    26  C   -0.219689
    27  H    0.226315
    28  H    0.224025
    29  H    0.275838
    30  H    0.281530
    31  H    0.224730
    32  N    0.494146
    33  O   -0.466644
    34  O   -0.458113
 Sum of Mulliken charges =  -0.00000

 Dipole moment (field-independent basis, Debye):
    X=             -5.1972    Y=              1.6348    Z=              0.4436  Tot=              5.4663
 Quadrupole moment (field-independent basis, Debye-Ang):
   XX=            -71.2565   YY=            -93.4594   ZZ=            -95.8678
   XY=              0.0540   XZ=             -0.8453   YZ=             -1.1249

 Normal termination of Gaussian 16 at Wed May  5 15:41:04 2021.
