 Gaussian 16, Revision A.03,
 Gaussian 16:  EM64L-G16RevA.03 25-Dec-2016

 -------------
 #p 6-31g* mp2
 -------------

 ------------------------------------------------------
 Input file generated by CHIRIPA (05-May-2021 14:51:11)
 ------------------------------------------------------
 Symbolic Z-matrix:
 Charge =  0 Multiplicity = 1

                         Standard orientation:
 ---------------------------------------------------------------------
 Center     Atomic      Atomic             Coordinates (Angstroms)
 Number     Number       Type             X           Y           Z
 ---------------------------------------------------------------------
      1          6           0        3.778743   -0.230554    0.445369
      2          6           0        4.568424   -1.220018   -0.412157
      3          6           0        5.062627   -2.428593    0.383395
      4          1           0        4.410635    0.109697    1.277166
      5          1           0        2.921438   -0.749480    0.896077
      6          1           0        5.423201   -0.699044   -0.862221
      7          1           0        3.934643   -1.557806   -1.242119
      8          1           0        4.219303   -2.973591    0.819724
      9          1           0        5.716319   -2.109950    1.201780
     10          1           0        5.624603   -3.122958   -0.248982
     11          6           0        3.277998    0.983007   -0.335818
     12          6           0        2.488317    1.972471    0.521707
     13          6           0        1.994114    3.181046   -0.273844
     14          1           0        4.135303    1.501933   -0.786526
     15          1           0        2.646106    0.642757   -1.167616
     16          1           0        3.122098    2.310259    1.351669
     17          1           0        1.633540    1.451497    0.971772
     18          1           0        1.340422    2.862403   -1.092229
     19          1           0        2.837437    3.726044   -0.710173
     20          1           0        1.432138    3.875412    0.358533
     21          6           0       -2.817985   -0.205635    0.168123
     22          6           0       -1.738847   -0.917137   -0.648705
     23          6           0       -0.322981   -0.565717   -0.190861
     24          1           0       -2.666835    0.880170    0.096527
     25          1           0       -2.698585   -0.468604    1.228304
     26          1           0       -1.861101   -0.653996   -1.707207
     27          1           0       -1.892698   -2.001370   -0.575312
     28          1           0       -0.176955   -0.844200    0.857817
     29          1           0       -0.145178    0.510830   -0.280509
     30          1           0        0.432691   -1.085285   -0.788245
     31          6           0       -4.238755   -0.546819   -0.277673
     32          6           0       -5.317895    0.164684    0.539154
     33          6           0       -6.733760   -0.186737    0.081309
     34          1           0       -4.358155   -0.283850   -1.337856
     35          1           0       -4.389905   -1.632624   -0.206077
     36          1           0       -5.164043    1.248916    0.465761
     37          1           0       -5.195640   -0.098457    1.597656
     38          1           0       -6.911562   -1.263282    0.170958
     39          1           0       -6.879786    0.091747   -0.967367
     40          1           0       -7.489432    0.332832    0.678694
 ---------------------------------------------------------------------

 SCF Done:  E(RHF) =  -470.732597939     A.U. after   11 cycles
 E2 =    -0.1583850740D+01 EUMP2 =    -0.47231644867921D+03

 The electronic state is 1-A.
 Alpha  occ. eigenvalues --  -11.21675 -11.21632 -11.21546 -11.21457 -11.21447
 Alpha  occ. eigenvalues --  -11.21395 -11.21289 -11.21227 -11.21174 -11.21094
 Alpha  occ. eigenvalues --  -11.21038 -11.21029  -1.08491  -1.08332  -1.03608
 Alpha  occ. eigenvalues --   -1.03448  -0.96053  -0.95912  -0.87090  -0.86916
 Alpha  occ. eigenvalues --   -0.79686  -0.79506  -0.78304  -0.78139  -0.65155
 Alpha  occ. eigenvalues --   -0.64955  -0.61154  -0.60746  -0.59418  -0.59279
 Alpha  occ. eigenvalues --   -0.57657  -0.57521  -0.55391  -0.55146  -0.52735
 Alpha  occ. eigenvalues --   -0.52619  -0.52492  -0.52314  -0.50049  -0.49793
 Alpha  occ. eigenvalues --   -0.48087  -0.47766  -0.46709  -0.46496  -0.45912
 Alpha  occ. eigenvalues --   -0.45768  -0.45651  -0.45479  -0.43831  -0.43697
 Alpha virt. eigenvalues --    0.20666   0.22926   0.23629   0.24725   0.25706
 Alpha virt. eigenvalues --    0.26504   0.26933   0.27527   0.27854   0.29575
 Alpha virt. eigenvalues --    0.30637   0.31333   0.31680   0.31978   0.32306

 Mulliken charges:
               1
     1  C   -0.300929
     2  C   -0.299643
     3  C   -0.475612
     4  H    0.149089
     5  H    0.152943
     6  H    0.151780
     7  H    0.151169
     8  H    0.155043
     9  H    0.155104
    10  H    0.159957
    11  C   -0.298356
    12  C   -0.304831
    13  C   -0.477265
    14  H    0.148723
    15  H    0.151364
    16  H    0.151639
    17  H    0.158039
    18  H    0.154576
    19  H    0.155425
    20  H    0.159847
    21  C   -0.298648
    22  C   -0.300724
    23  C   -0.481018
    24  H    0.149927
    25  H    0.149593
    26  H    0.152083
    27  H    0.152088
    28  H    0.155134
    29  H    0.161417
    30  H    0.161522
    31  C   -0.298310
    32  C   -0.299701
    33  C   -0.475743
    34  H    0.149648
    35  H    0.149751
    36  H    0.152088
    37  H    0.151984
    38  H    0.155213
    39  H    0.155249
    40  H    0.160386
 Sum of Mulliken charges =  -0.00000

 Dipole moment (field-independent basis, Debye):
    X=             -0.0569    Y=             -0.0145    Z=              0.0085  Tot=              0.0593
 Quadrupole moment (field-independent basis, Debye-Ang):
   XX=            -85.5614   YY=            -84.9267   ZZ=            -84.5588
   XY=              0.6389   XZ=             -0.2261   YZ=             -0.0477

 Normal termination of Gaussian 16 at Thu May  6 02:16:13 2021.
