 Gaussian 16, Revision A.03,
 Gaussian 16:  EM64L-G16RevA.03 25-Dec-2016

 -------------
 #p 6-31g* mp2
 -------------

 ------------------------------------------------------
 Input file generated by CHIRIPA (05-May-2021 14:53:17)
 ------------------------------------------------------
 Symbolic Z-matrix:
 Charge =  0 Multiplicity = 1

                         Standard orientation:
 ---------------------------------------------------------------------
 Center     Atomic      Atomic             Coordinates (Angstroms)
 Number     Number       Type             X           Y           Z
 ---------------------------------------------------------------------
      1          6           0        4.150658    0.300724   -0.339398
      2          6           0        4.580810   -1.121709    0.020655
      3          6           0        5.781693   -1.600634   -0.795621
      4          1           0        3.908684    0.343850   -1.410161
      5          1           0        4.997449    0.983180   -0.182573
      6          1           0        3.733045   -1.801069   -0.135484
      7          1           0        4.821604   -1.161499    1.090726
      8          1           0        6.644152   -0.946354   -0.632268
      9          1           0        5.549408   -1.589559   -1.865444
     10          1           0        6.072340   -2.619735   -0.522095
     11          6           0        2.951289    0.793675    0.468219
     12          6           0        2.521137    2.216108    0.108166
     13          6           0        1.320254    2.695032    0.924442
     14          1           0        2.104498    0.111219    0.311394
     15          1           0        3.193262    0.750549    1.538982
     16          1           0        2.280343    2.255897   -0.961905
     17          1           0        3.368902    2.895468    0.264305
     18          1           0        1.552539    2.683957    1.994265
     19          1           0        0.457795    2.040753    0.761089
     20          1           0        1.029606    3.714134    0.650916
     21          6           0       -0.464874   -1.280747    0.501867
     22          6           0       -1.523443   -1.501692    1.389073
     23          6           0       -2.807146   -1.033456    1.093424
     24          6           0       -2.997455   -0.345011   -0.103705
     25          6           0       -1.963119   -0.109046   -1.008004
     26          6           0       -0.687696   -0.586354   -0.691735
     27          1           0        0.529122   -1.648008    0.739545
     28          1           0       -1.353327   -2.040654    2.316773
     29          1           0       -3.644605   -1.190537    1.762309
     30          1           0       -2.163587    0.431526   -1.925071
     31          1           0        0.132521   -0.413300   -1.382634
     32          7           0       -4.352070    0.155492   -0.427610
     33          8           0       -4.493654    0.759218   -1.488790
     34          8           0       -5.246585   -0.065419    0.385828
 ---------------------------------------------------------------------

 SCF Done:  E(RHF) =  -669.534787780     A.U. after   15 cycles
 E2 =    -0.2093433184D+01 EUMP2 =    -0.67162822096360D+03

 The electronic state is 1-A.
 Alpha  occ. eigenvalues --  -20.60797 -20.60792 -15.85853 -11.31244 -11.27832
 Alpha  occ. eigenvalues --  -11.27815 -11.27549 -11.26849 -11.26816 -11.22537
 Alpha  occ. eigenvalues --  -11.22334 -11.22273 -11.22231 -11.21809 -11.21470
 Alpha  occ. eigenvalues --   -1.59873  -1.39425  -1.19431  -1.09292  -1.08813
 Alpha  occ. eigenvalues --   -1.04839  -1.04264  -0.96695  -0.95648  -0.87707
 Alpha  occ. eigenvalues --   -0.86236  -0.82478  -0.80342  -0.79134  -0.77517
 Alpha  occ. eigenvalues --   -0.72072  -0.71196  -0.70554  -0.66006  -0.65073
 Alpha  occ. eigenvalues --   -0.64790  -0.62196  -0.61647  -0.60069  -0.58318
 Alpha  occ. eigenvalues --   -0.56012  -0.55325  -0.53353  -0.53199  -0.53078
 Alpha  occ. eigenvalues --   -0.52921  -0.50636  -0.48832  -0.48824  -0.48637
 Alpha  occ. eigenvalues --   -0.47391  -0.46622  -0.46587  -0.44825  -0.44549
 Alpha  occ. eigenvalues --   -0.37353  -0.36419
 Alpha virt. eigenvalues --    0.05000   0.11099   0.16446   0.19176   0.22826
 Alpha virt. eigenvalues --    0.23376   0.25061   0.25767   0.27102   0.27886
 Alpha virt. eigenvalues --    0.30079   0.30616   0.30978   0.31259   0.32079

 Mulliken charges:
               1
     1  C   -0.298428
     2  C   -0.299487
     3  C   -0.475900
     4  H    0.148364
     5  H    0.154056
     6  H    0.143489
     7  H    0.153768
     8  H    0.158126
     9  H    0.156109
    10  H    0.161975
    11  C   -0.303915
    12  C   -0.299244
    13  C   -0.481365
    14  H    0.142353
    15  H    0.151907
    16  H    0.149150
    17  H    0.155166
    18  H    0.155069
    19  H    0.160875
    20  H    0.163170
    21  C   -0.171045
    22  C   -0.219377
    23  C   -0.170456
    24  C    0.158389
    25  C   -0.171580
    26  C   -0.218857
    27  H    0.228857
    28  H    0.224160
    29  H    0.275995
    30  H    0.276114
    31  H    0.224799
    32  N    0.488164
    33  O   -0.460223
    34  O   -0.460177
 Sum of Mulliken charges =  -0.00000

 Dipole moment (field-independent basis, Debye):
    X=              4.8349    Y=             -1.7251    Z=              1.1746  Tot=              5.2661
 Quadrupole moment (field-independent basis, Debye-Ang):
   XX=           -122.9927   YY=            -93.4634   ZZ=            -91.1976
   XY=              5.1718   XZ=             -4.7673   YZ=             -2.0920

 Normal termination of Gaussian 16 at Thu May  6 06:00:55 2021.
