 Gaussian 16, Revision A.03,
 Gaussian 16:  EM64L-G16RevA.03 25-Dec-2016

 -------------
 #p 6-31g* mp2
 -------------

 ------------------------------------------------------
 Input file generated by CHIRIPA (05-May-2021 14:51:13)
 ------------------------------------------------------
 Symbolic Z-matrix:
 Charge =  0 Multiplicity = 1

                         Standard orientation:
 ---------------------------------------------------------------------
 Center     Atomic      Atomic             Coordinates (Angstroms)
 Number     Number       Type             X           Y           Z
 ---------------------------------------------------------------------
      1          6           0       -3.087245    1.379296   -0.152747
      2          6           0       -1.731045    1.942446    0.273363
      3          6           0       -1.643802    3.460279    0.110992
      4          1           0       -3.276088    1.648817   -1.200909
      5          1           0       -3.878238    1.858527    0.440603
      6          1           0       -0.942732    1.461289   -0.319652
      7          1           0       -1.545324    1.671390    1.320574
      8          1           0       -2.409394    3.957042    0.715720
      9          1           0       -1.803379    3.745748   -0.933826
     10          1           0       -0.666020    3.841694    0.421356
     11          6           0       -3.189874   -0.136851    0.003755
     12          6           0       -4.546074   -0.700000   -0.422355
     13          6           0       -4.633317   -2.217834   -0.259984
     14          1           0       -2.398882   -0.616081   -0.589595
     15          1           0       -3.001032   -0.406371    1.051916
     16          1           0       -4.731796   -0.428944   -1.469566
     17          1           0       -5.334387   -0.218844    0.170659
     18          1           0       -4.473740   -2.503303    0.784833
     19          1           0       -3.867725   -2.714597   -0.864712
     20          1           0       -5.611099   -2.599248   -0.570349
     21          6           0        2.633996   -1.188653   -0.008389
     22          6           0        1.279770   -0.895130    0.638062
     23          6           0        0.281037   -2.039662    0.463781
     24          1           0        2.486622   -1.388836   -1.078508
     25          1           0        3.048879   -2.108104    0.427362
     26          1           0        0.868200    0.024249    0.202208
     27          1           0        1.430407   -0.695435    1.706728
     28          1           0        0.666813   -2.959618    0.914847
     29          1           0        0.101412   -2.235844   -0.598221
     30          1           0       -0.680185   -1.808723    0.933439
     31          6           0        3.643123   -0.053792    0.157382
     32          6           0        4.997350   -0.347316   -0.489070
     33          6           0        5.996081    0.797217   -0.314789
     34          1           0        3.228241    0.865658   -0.278370
     35          1           0        3.790497    0.146390    1.227500
     36          1           0        4.846712   -0.547011   -1.557735
     37          1           0        5.408919   -1.266695   -0.053216
     38          1           0        6.175707    0.993398    0.747213
     39          1           0        5.610307    1.717172   -0.765854
     40          1           0        6.957305    0.566277   -0.784446
 ---------------------------------------------------------------------

 SCF Done:  E(RHF) =  -470.732466350     A.U. after   11 cycles
 E2 =    -0.1584110856D+01 EUMP2 =    -0.47231657720543D+03

 The electronic state is 1-A.
 Alpha  occ. eigenvalues --  -11.21609 -11.21598 -11.21583 -11.21491 -11.21405
 Alpha  occ. eigenvalues --  -11.21367 -11.21339 -11.21304 -11.21090 -11.21059
 Alpha  occ. eigenvalues --  -11.21058 -11.20944  -1.08459  -1.08372  -1.03543
 Alpha  occ. eigenvalues --   -1.03476  -0.96002  -0.95916  -0.87034  -0.86919
 Alpha  occ. eigenvalues --   -0.79719  -0.79440  -0.78318  -0.78154  -0.65159
 Alpha  occ. eigenvalues --   -0.64949  -0.60992  -0.60838  -0.59357  -0.59311
 Alpha  occ. eigenvalues --   -0.57663  -0.57487  -0.55303  -0.55203  -0.52756
 Alpha  occ. eigenvalues --   -0.52640  -0.52427  -0.52261  -0.50008  -0.49818
 Alpha  occ. eigenvalues --   -0.48167  -0.47681  -0.46825  -0.46389  -0.45920
 Alpha  occ. eigenvalues --   -0.45754  -0.45709  -0.45375  -0.43793  -0.43690
 Alpha virt. eigenvalues --    0.21326   0.23157   0.23871   0.24053   0.25522
 Alpha virt. eigenvalues --    0.26244   0.27239   0.27358   0.28067   0.29837
 Alpha virt. eigenvalues --    0.30812   0.30971   0.31511   0.31706   0.32147

 Mulliken charges:
               1
     1  C   -0.297642
     2  C   -0.304842
     3  C   -0.475412
     4  H    0.149295
     5  H    0.149446
     6  H    0.156518
     7  H    0.152651
     8  H    0.155347
     9  H    0.154922
    10  H    0.160371
    11  C   -0.302948
    12  C   -0.299308
    13  C   -0.476109
    14  H    0.155740
    15  H    0.149324
    16  H    0.151744
    17  H    0.151732
    18  H    0.155029
    19  H    0.155881
    20  H    0.160284
    21  C   -0.297664
    22  C   -0.306239
    23  C   -0.479710
    24  H    0.148902
    25  H    0.149334
    26  H    0.158687
    27  H    0.151274
    28  H    0.154301
    29  H    0.152690
    30  H    0.166973
    31  C   -0.298111
    32  C   -0.299569
    33  C   -0.475680
    34  H    0.149048
    35  H    0.149609
    36  H    0.151775
    37  H    0.151940
    38  H    0.155148
    39  H    0.155094
    40  H    0.160175
 Sum of Mulliken charges =  -0.00000

 Dipole moment (field-independent basis, Debye):
    X=             -0.0424    Y=              0.0167    Z=              0.0034  Tot=              0.0457
 Quadrupole moment (field-independent basis, Debye-Ang):
   XX=            -85.4257   YY=            -86.4165   ZZ=            -83.0792
   XY=             -0.9676   XZ=             -0.0563   YZ=             -0.2154

 Normal termination of Gaussian 16 at Thu May  6 07:07:25 2021.
