 Gaussian 16, Revision A.03,
 Gaussian 16:  EM64L-G16RevA.03 25-Dec-2016

 -------------
 #p 6-31g* mp2
 -------------

 ------------------------------------------------------
 Input file generated by CHIRIPA (05-May-2021 14:55:22)
 ------------------------------------------------------
 Symbolic Z-matrix:
 Charge =  0 Multiplicity = 1

                         Standard orientation:
 ---------------------------------------------------------------------
 Center     Atomic      Atomic             Coordinates (Angstroms)
 Number     Number       Type             X           Y           Z
 ---------------------------------------------------------------------
      1          6           0       -1.654147    1.140452    0.016913
      2          6           0       -2.041689    0.389657   -1.097824
      3          6           0       -3.267891   -0.281775   -1.110221
      4          6           0       -4.085578   -0.180313    0.014227
      5          6           0       -3.727532    0.559813    1.139974
      6          6           0       -2.496819    1.222988    1.130291
      7          1           0       -0.699851    1.658830    0.017967
      8          1           0       -1.389283    0.323780   -1.963891
      9          1           0       -3.592683   -0.869994   -1.959884
     10          1           0       -4.399214    0.606743    1.988536
     11          1           0       -2.198445    1.805334    1.997408
     12          7           0       -5.386091   -0.886758    0.012791
     13          8           0       -6.088465   -0.781548    1.015906
     14          8           0       -5.678434   -1.532303   -0.991422
     15          6           0        5.250689   -0.556170    0.280053
     16          6           0        6.712090   -0.786147   -0.106472
     17          6           0        7.289152   -2.066314    0.498480
     18          1           0        5.169750   -0.514909    1.374901
     19          1           0        4.652545   -1.418584   -0.045307
     20          1           0        7.307072    0.077068    0.218290
     21          1           0        6.789587   -0.826675   -1.200532
     22          1           0        6.720613   -2.940395    0.164790
     23          1           0        7.241038   -2.031517    1.591675
     24          1           0        8.334760   -2.211111    0.209348
     25          6           0        4.659681    0.719709   -0.317081
     26          6           0        3.198280    0.949687    0.069444
     27          6           0        2.621218    2.229854   -0.535508
     28          1           0        5.257826    1.582124    0.008279
     29          1           0        4.740619    0.678448   -1.411929
     30          1           0        3.120782    0.990214    1.163505
     31          1           0        2.603297    0.086472   -0.255319
     32          1           0        2.669332    2.195056   -1.628703
     33          1           0        3.189757    3.103934   -0.201818
     34          1           0        1.575610    2.374650   -0.246376
 ---------------------------------------------------------------------

 SCF Done:  E(RHF) =  -669.535485449     A.U. after   15 cycles
 E2 =    -0.2090735579D+01 EUMP2 =    -0.67162622102863D+03

 The electronic state is 1-A.
 Alpha  occ. eigenvalues --  -20.60736 -20.60731 -15.85790 -11.31150 -11.27722
 Alpha  occ. eigenvalues --  -11.27719 -11.27445 -11.26734 -11.26724 -11.22565
 Alpha  occ. eigenvalues --  -11.22301 -11.22130 -11.22082 -11.21956 -11.21463
 Alpha  occ. eigenvalues --   -1.59812  -1.39366  -1.19323  -1.09140  -1.08718
 Alpha  occ. eigenvalues --   -1.04727  -1.04278  -0.96738  -0.95554  -0.87754
 Alpha  occ. eigenvalues --   -0.86123  -0.82389  -0.80344  -0.78906  -0.77436
 Alpha  occ. eigenvalues --   -0.72008  -0.71135  -0.70455  -0.65763  -0.64975
 Alpha  occ. eigenvalues --   -0.64734  -0.62076  -0.61662  -0.60192  -0.58353
 Alpha  occ. eigenvalues --   -0.56004  -0.55260  -0.53424  -0.53132  -0.53054
 Alpha  occ. eigenvalues --   -0.52819  -0.50657  -0.48771  -0.48763  -0.48653
 Alpha  occ. eigenvalues --   -0.47363  -0.46457  -0.46353  -0.44772  -0.44524
 Alpha  occ. eigenvalues --   -0.37299  -0.36334
 Alpha virt. eigenvalues --    0.05100   0.11320   0.16587   0.19389   0.22452
 Alpha virt. eigenvalues --    0.23746   0.25821   0.25976   0.26856   0.27324
 Alpha virt. eigenvalues --    0.28596   0.30241   0.30732   0.31417   0.32438

 Mulliken charges:
               1
     1  C   -0.177293
     2  C   -0.222282
     3  C   -0.170732
     4  C    0.158247
     5  C   -0.170618
     6  C   -0.221484
     7  H    0.237834
     8  H    0.223742
     9  H    0.275448
    10  H    0.275462
    11  H    0.223871
    12  N    0.487973
    13  O   -0.460516
    14  O   -0.460560
    15  C   -0.298856
    16  C   -0.300203
    17  C   -0.476101
    18  H    0.150585
    19  H    0.150353
    20  H    0.152618
    21  H    0.152521
    22  H    0.155916
    23  H    0.155809
    24  H    0.161711
    25  C   -0.298922
    26  C   -0.300375
    27  C   -0.480399
    28  H    0.151323
    29  H    0.150701
    30  H    0.153403
    31  H    0.151407
    32  H    0.158034
    33  H    0.161296
    34  H    0.150088
 Sum of Mulliken charges =  -0.00000

 Dipole moment (field-independent basis, Debye):
    X=              4.8295    Y=              2.4673    Z=              0.0076  Tot=              5.4233
 Quadrupole moment (field-independent basis, Debye-Ang):
   XX=           -132.0272   YY=            -96.2905   ZZ=            -90.0551
   XY=            -10.7281   XZ=             -0.9261   YZ=              2.6684

 Normal termination of Gaussian 16 at Thu May  6 17:34:45 2021.
