 Gaussian 16, Revision A.03,
 Gaussian 16:  EM64L-G16RevA.03 25-Dec-2016

 -------------
 #p 6-31g* mp2
 -------------

 ------------------------------------------------------
 Input file generated by CHIRIPA (05-May-2021 14:51:07)
 ------------------------------------------------------
 Symbolic Z-matrix:
 Charge =  0 Multiplicity = 1

                         Standard orientation:
 ---------------------------------------------------------------------
 Center     Atomic      Atomic             Coordinates (Angstroms)
 Number     Number       Type             X           Y           Z
 ---------------------------------------------------------------------
      1          6           0       -2.039954   -1.176644    0.213933
      2          6           0       -2.022019   -2.238145   -0.886466
      3          6           0       -1.284084   -3.510397   -0.468589
      4          1           0       -1.006511   -0.928293    0.491895
      5          1           0       -2.512662   -1.597576    1.112130
      6          1           0       -1.550732   -1.814891   -1.782770
      7          1           0       -3.055622   -2.483859   -1.161975
      8          1           0       -1.756904   -3.958628    0.411258
      9          1           0       -0.243463   -3.285859   -0.213064
     10          1           0       -1.283387   -4.255718   -1.270059
     11          6           0       -2.774077    0.101088   -0.188798
     12          6           0       -2.792011    1.162589    0.911601
     13          6           0       -3.529947    2.434841    0.493723
     14          1           0       -2.301369    0.522020   -1.086995
     15          1           0       -3.807520   -0.147263   -0.466760
     16          1           0       -1.758408    1.408303    1.187110
     17          1           0       -3.263299    0.739335    1.807904
     18          1           0       -4.570567    2.210303    0.238198
     19          1           0       -3.057126    2.883072   -0.386123
     20          1           0       -3.530644    3.180163    1.295194
     21          6           0        2.490513    1.286216    0.115107
     22          6           0        1.624323    2.157037   -0.795590
     23          6           0        1.802418    3.651875   -0.528133
     24          1           0        2.244097    1.504539    1.163230
     25          1           0        3.545587    1.560979   -0.021701
     26          1           0        0.571310    1.879761   -0.658123
     27          1           0        1.872694    1.936477   -1.841670
     28          1           0        2.844291    3.949725   -0.684300
     29          1           0        1.535513    3.892687    0.505972
     30          1           0        1.174038    4.255823   -1.190135
     31          6           0        2.323518   -0.210660   -0.140242
     32          6           0        3.189708   -1.081481    0.770457
     33          6           0        3.011613   -2.576319    0.502998
     34          1           0        1.268444   -0.485423   -0.003433
     35          1           0        2.569934   -0.428984   -1.188364
     36          1           0        2.941337   -0.860921    1.816535
     37          1           0        4.242721   -0.804205    0.632988
     38          1           0        3.278517   -2.817131   -0.531107
     39          1           0        1.969740   -2.874169    0.659165
     40          1           0        3.639992   -3.180267    1.165000
 ---------------------------------------------------------------------

 SCF Done:  E(RHF) =  -470.732895686     A.U. after   11 cycles
 E2 =    -0.1584778472D+01 EUMP2 =    -0.47231767415750D+03

 The electronic state is 1-A.
 Alpha  occ. eigenvalues --  -11.21676 -11.21650 -11.21649 -11.21606 -11.21467
 Alpha  occ. eigenvalues --  -11.21437 -11.21407 -11.21377 -11.21120 -11.21106
 Alpha  occ. eigenvalues --  -11.21098 -11.21052  -1.08519  -1.08442  -1.03603
 Alpha  occ. eigenvalues --   -1.03537  -0.96057  -0.95980  -0.87089  -0.86981
 Alpha  occ. eigenvalues --   -0.79697  -0.79576  -0.78403  -0.78198  -0.65400
 Alpha  occ. eigenvalues --   -0.64843  -0.61180  -0.60777  -0.59416  -0.59347
 Alpha  occ. eigenvalues --   -0.57744  -0.57547  -0.55533  -0.55106  -0.52725
 Alpha  occ. eigenvalues --   -0.52688  -0.52591  -0.52306  -0.50192  -0.49688
 Alpha  occ. eigenvalues --   -0.48156  -0.47806  -0.46894  -0.46489  -0.46314
 Alpha  occ. eigenvalues --   -0.45823  -0.45759  -0.45139  -0.43841  -0.43806
 Alpha virt. eigenvalues --    0.18851   0.21613   0.23698   0.25425   0.25490
 Alpha virt. eigenvalues --    0.26137   0.26763   0.27477   0.28868   0.29864
 Alpha virt. eigenvalues --    0.31141   0.31248   0.31536   0.31976   0.32286

 Mulliken charges:
               1
     1  C   -0.306228
     2  C   -0.299036
     3  C   -0.483386
     4  H    0.155453
     5  H    0.149866
     6  H    0.152613
     7  H    0.152073
     8  H    0.154978
     9  H    0.161956
    10  H    0.160736
    11  C   -0.298998
    12  C   -0.301227
    13  C   -0.475783
    14  H    0.150561
    15  H    0.150129
    16  H    0.152272
    17  H    0.152188
    18  H    0.155374
    19  H    0.155484
    20  H    0.160387
    21  C   -0.297689
    22  C   -0.303168
    23  C   -0.475588
    24  H    0.149613
    25  H    0.150122
    26  H    0.153887
    27  H    0.152184
    28  H    0.155492
    29  H    0.155435
    30  H    0.160397
    31  C   -0.308264
    32  C   -0.298976
    33  C   -0.482339
    34  H    0.157651
    35  H    0.149912
    36  H    0.152034
    37  H    0.152301
    38  H    0.155480
    39  H    0.161137
    40  H    0.160967
 Sum of Mulliken charges =  -0.00000

 Dipole moment (field-independent basis, Debye):
    X=              0.0140    Y=             -0.0003    Z=             -0.0050  Tot=              0.0149
 Quadrupole moment (field-independent basis, Debye-Ang):
   XX=            -83.5996   YY=            -86.7891   ZZ=            -84.1888
   XY=              0.8136   XZ=             -0.9070   YZ=             -0.0955

 Normal termination of Gaussian 16 at Thu May  6 08:25:00 2021.
