 Gaussian 16, Revision A.03,
 Gaussian 16:  EM64L-G16RevA.03 25-Dec-2016

 -------------
 #p 6-31g* mp2
 -------------

 ------------------------------------------------------
 Input file generated by CHIRIPA (05-May-2021 14:51:11)
 ------------------------------------------------------
 Symbolic Z-matrix:
 Charge =  0 Multiplicity = 1

                         Standard orientation:
 ---------------------------------------------------------------------
 Center     Atomic      Atomic             Coordinates (Angstroms)
 Number     Number       Type             X           Y           Z
 ---------------------------------------------------------------------
      1          6           0       -3.936092   -0.615723   -0.435613
      2          6           0       -5.089368   -0.959554    0.507637
      3          6           0       -5.608687   -2.384226    0.311650
      4          1           0       -4.268954   -0.746530   -1.474380
      5          1           0       -3.116753   -1.330635   -0.277561
      6          1           0       -5.905742   -0.243364    0.348826
      7          1           0       -4.753780   -0.827729    1.544275
      8          1           0       -4.811279   -3.112874    0.490008
      9          1           0       -5.969786   -2.525189   -0.712234
     10          1           0       -6.432776   -2.608829    0.995968
     11          6           0       -3.406115    0.805205   -0.251725
     12          6           0       -2.252839    1.149036   -1.194974
     13          6           0       -1.733519    2.573708   -0.998987
     14          1           0       -4.225453    1.520117   -0.409777
     15          1           0       -3.073253    0.936012    0.787043
     16          1           0       -2.588426    1.017211   -2.231613
     17          1           0       -1.436464    0.432846   -1.036163
     18          1           0       -1.372420    2.714671    0.024897
     19          1           0       -2.530928    3.302356   -1.177345
     20          1           0       -0.909431    2.798311   -1.683305
     21          6           0        4.422512   -0.231897    0.341390
     22          6           0        4.888311   -1.036717   -0.872398
     23          6           0        6.393887   -1.303069   -0.862707
     24          1           0        4.965061    0.722957    0.370385
     25          1           0        4.694075   -0.773660    1.257982
     26          1           0        4.614721   -0.494261   -1.786459
     27          1           0        4.344452   -1.989683   -0.898615
     28          1           0        6.679945   -1.864976    0.032295
     29          1           0        6.951750   -0.361057   -0.860593
     30          1           0        6.705214   -1.879758   -1.739272
     31          6           0        2.919695    0.042415    0.345948
     32          6           0        2.453895    0.847235    1.559735
     33          6           0        0.948319    1.113586    1.550045
     34          1           0        2.648131    0.584178   -0.570645
     35          1           0        2.377146   -0.912438    0.316952
     36          1           0        2.997754    1.800201    1.585952
     37          1           0        2.727485    0.304779    2.473796
     38          1           0        0.390456    0.171575    1.547929
     39          1           0        0.662261    1.675494    0.655042
     40          1           0        0.636992    1.690275    2.426609
 ---------------------------------------------------------------------

 SCF Done:  E(RHF) =  -470.732990878     A.U. after   11 cycles
 E2 =    -0.1582912404D+01 EUMP2 =    -0.47231590328204D+03

 The electronic state is 1-A.
 Alpha  occ. eigenvalues --  -11.21623 -11.21615 -11.21574 -11.21531 -11.21427
 Alpha  occ. eigenvalues --  -11.21367 -11.21359 -11.21295 -11.21081 -11.21072
 Alpha  occ. eigenvalues --  -11.21053 -11.20998  -1.08452  -1.08381  -1.03570
 Alpha  occ. eigenvalues --   -1.03469  -0.96040  -0.95907  -0.87060  -0.86925
 Alpha  occ. eigenvalues --   -0.79631  -0.79537  -0.78264  -0.78195  -0.65100
 Alpha  occ. eigenvalues --   -0.65004  -0.61081  -0.60795  -0.59383  -0.59296
 Alpha  occ. eigenvalues --   -0.57610  -0.57549  -0.55532  -0.55026  -0.52703
 Alpha  occ. eigenvalues --   -0.52644  -0.52438  -0.52318  -0.50159  -0.49653
 Alpha  occ. eigenvalues --   -0.47994  -0.47784  -0.46723  -0.46475  -0.45842
 Alpha  occ. eigenvalues --   -0.45736  -0.45671  -0.45651  -0.43804  -0.43744
 Alpha virt. eigenvalues --    0.21351   0.23001   0.23685   0.24870   0.26136
 Alpha virt. eigenvalues --    0.26568   0.27211   0.27675   0.27816   0.29105
 Alpha virt. eigenvalues --    0.30881   0.31538   0.31661   0.31885   0.31959

 Mulliken charges:
               1
     1  C   -0.298197
     2  C   -0.299643
     3  C   -0.475652
     4  H    0.149503
     5  H    0.149200
     6  H    0.151889
     7  H    0.151958
     8  H    0.155018
     9  H    0.155137
    10  H    0.160158
    11  C   -0.298849
    12  C   -0.300522
    13  C   -0.480003
    14  H    0.149211
    15  H    0.150795
    16  H    0.151471
    17  H    0.153887
    18  H    0.160119
    19  H    0.155202
    20  H    0.158447
    21  C   -0.298286
    22  C   -0.299677
    23  C   -0.475725
    24  H    0.149761
    25  H    0.149578
    26  H    0.151995
    27  H    0.151924
    28  H    0.155191
    29  H    0.155221
    30  H    0.160313
    31  C   -0.298453
    32  C   -0.299663
    33  C   -0.482648
    34  H    0.149683
    35  H    0.149303
    36  H    0.152142
    37  H    0.151772
    38  H    0.154559
    39  H    0.164297
    40  H    0.159585
 Sum of Mulliken charges =  -0.00000

 Dipole moment (field-independent basis, Debye):
    X=              0.0193    Y=              0.0132    Z=              0.0085  Tot=              0.0249
 Quadrupole moment (field-independent basis, Debye-Ang):
   XX=            -85.7579   YY=            -85.0010   ZZ=            -84.1279
   XY=             -0.2681   XZ=              0.4697   YZ=             -0.7098

 Normal termination of Gaussian 16 at Thu May  6 00:40:37 2021.
