 Gaussian 16, Revision A.03,
 Gaussian 16:  EM64L-G16RevA.03 25-Dec-2016

 -------------
 #p 6-31g* mp2
 -------------

 ------------------------------------------------------
 Input file generated by CHIRIPA (05-May-2021 14:57:27)
 ------------------------------------------------------
 Symbolic Z-matrix:
 Charge =  0 Multiplicity = 1

                         Standard orientation:
 ---------------------------------------------------------------------
 Center     Atomic      Atomic             Coordinates (Angstroms)
 Number     Number       Type             X           Y           Z
 ---------------------------------------------------------------------
      1          6           0        4.544273    1.347386    0.105455
      2          6           0        3.197774    1.717321    0.024159
      3          6           0        2.198668    0.744165   -0.072288
      4          6           0        2.583466   -0.595635   -0.084787
      5          6           0        3.916424   -0.995875   -0.005294
      6          6           0        4.898676   -0.005646    0.090496
      7          1           0        5.313857    2.109988    0.180122
      8          1           0        2.919609    2.767340    0.035555
      9          1           0        1.148672    1.002617   -0.136551
     10          1           0        4.162822   -2.050635   -0.018997
     11          1           0        5.943590   -0.295871    0.153492
     12          7           0        1.534678   -1.634909   -0.186543
     13          8           0        1.899766   -2.808478   -0.195577
     14          8           0        0.367409   -1.256243   -0.255340
     15          6           0       -3.872952   -1.835924    0.169086
     16          6           0       -3.837730   -1.125799   -1.035490
     17          6           0       -3.221741    0.127409   -1.103148
     18          6           0       -2.648367    0.642865    0.058246
     19          6           0       -2.667148   -0.040313    1.273237
     20          6           0       -3.288579   -1.291874    1.317580
     21          1           0       -4.353581   -2.808807    0.212588
     22          1           0       -4.290742   -1.545855   -1.929009
     23          1           0       -3.180080    0.698640   -2.022593
     24          1           0       -2.206937    0.404338    2.147256
     25          1           0       -3.314425   -1.841116    2.254442
     26          7           0       -1.993366    1.968708   -0.001040
     27          8           0       -1.495506    2.400944    1.036238
     28          8           0       -1.990240    2.550563   -1.083663
 ---------------------------------------------------------------------

 SCF Done:  E(RHF) =  -868.340071090     A.U. after   16 cycles
 E2 =    -0.2599994805D+01 EUMP2 =    -0.87094006589497D+03

 The electronic state is 1-A.
 Alpha  occ. eigenvalues --  -20.60685 -20.60679 -20.60566 -20.60554 -15.85714
 Alpha  occ. eigenvalues --  -15.85574 -11.30819 -11.30352 -11.27415 -11.27272
 Alpha  occ. eigenvalues --  -11.27079 -11.26923 -11.26914 -11.26596 -11.26390
 Alpha  occ. eigenvalues --  -11.26228 -11.25842 -11.25818  -1.59758  -1.59652
 Alpha  occ. eigenvalues --   -1.39320  -1.39214  -1.18976  -1.18488  -1.08428
 Alpha  occ. eigenvalues --   -1.08019  -1.04321  -1.03850  -0.95303  -0.94950
 Alpha  occ. eigenvalues --   -0.85745  -0.85302  -0.82134  -0.81831  -0.77211
 Alpha  occ. eigenvalues --   -0.76922  -0.71979  -0.71820  -0.71072  -0.70941
 Alpha  occ. eigenvalues --   -0.70077  -0.69687  -0.64627  -0.64315  -0.64198
 Alpha  occ. eigenvalues --   -0.63919  -0.61656  -0.61257  -0.54864  -0.54432
 Alpha  occ. eigenvalues --   -0.52691  -0.52406  -0.52105  -0.52002  -0.48719
 Alpha  occ. eigenvalues --   -0.48673  -0.48600  -0.48527  -0.44807  -0.44720
 Alpha  occ. eigenvalues --   -0.36971  -0.36397  -0.35912  -0.35361
 Alpha virt. eigenvalues --    0.05256   0.05617   0.11731   0.12270   0.16835
 Alpha virt. eigenvalues --    0.17207   0.21815   0.22230   0.27631   0.28101
 Alpha virt. eigenvalues --    0.28437   0.29126   0.31199   0.31762   0.32645

 Mulliken charges:
               1
     1  C   -0.170745
     2  C   -0.220573
     3  C   -0.169403
     4  C    0.156325
     5  C   -0.171722
     6  C   -0.219254
     7  H    0.225322
     8  H    0.231813
     9  H    0.280844
    10  H    0.272988
    11  H    0.221605
    12  N    0.490210
    13  O   -0.463118
    14  O   -0.466148
    15  C   -0.165132
    16  C   -0.215637
    17  C   -0.166999
    18  C    0.165083
    19  C   -0.161900
    20  C   -0.213218
    21  H    0.223902
    22  H    0.220605
    23  H    0.271291
    24  H    0.270318
    25  H    0.220894
    26  N    0.484618
    27  O   -0.468454
    28  O   -0.463516
 Sum of Mulliken charges =  -0.00000

 Dipole moment (field-independent basis, Debye):
    X=              1.3368    Y=             -1.0756    Z=              0.5614  Tot=              1.8054
 Quadrupole moment (field-independent basis, Debye-Ang):
   XX=            -72.0490   YY=           -113.7992   ZZ=           -101.1744
   XY=             16.4922   XZ=              1.3487   YZ=             -1.2437

 Normal termination of Gaussian 16 at Wed May  5 18:05:13 2021.
