 Gaussian 16, Revision A.03,
 Gaussian 16:  EM64L-G16RevA.03 25-Dec-2016

 -------------
 #p 6-31g* mp2
 -------------

 ------------------------------------------------------
 Input file generated by CHIRIPA (05-May-2021 14:53:15)
 ------------------------------------------------------
 Symbolic Z-matrix:
 Charge =  0 Multiplicity = 1

                         Standard orientation:
 ---------------------------------------------------------------------
 Center     Atomic      Atomic             Coordinates (Angstroms)
 Number     Number       Type             X           Y           Z
 ---------------------------------------------------------------------
      1          6           0        3.909057   -0.752587    0.706729
      2          6           0        2.391667   -0.898017    0.586875
      3          6           0        1.783320   -1.709169    1.731314
      4          1           0        4.365781   -1.751406    0.733342
      5          1           0        4.149848   -0.273135    1.665656
      6          1           0        2.153739   -1.375798   -0.372152
      7          1           0        1.938517    0.101266    0.560351
      8          1           0        1.991624   -1.232444    2.694613
      9          1           0        2.208068   -2.717901    1.756811
     10          1           0        0.697806   -1.800707    1.625771
     11          6           0        4.531835    0.055844   -0.430071
     12          6           0        6.049224    0.201274   -0.310216
     13          6           0        6.657571    1.012426   -1.454655
     14          1           0        4.291043   -0.423608   -1.388997
     15          1           0        4.075110    1.054663   -0.456683
     16          1           0        6.502374   -0.798009   -0.283693
     17          1           0        6.287153    0.679055    0.648811
     18          1           0        6.232823    2.021157   -1.480152
     19          1           0        6.449267    0.535701   -2.417954
     20          1           0        7.743086    1.103963   -1.349113
     21          6           0       -2.013515    2.291542    0.692013
     22          6           0       -1.351359    1.076164    0.489702
     23          6           0       -2.052552   -0.049234    0.046583
     24          6           0       -3.421327    0.076939   -0.185419
     25          6           0       -4.109346    1.273997    0.006867
     26          6           0       -3.387971    2.386412    0.450376
     27          1           0       -1.460972    3.160736    1.036390
     28          1           0       -0.283996    0.999560    0.676552
     29          1           0       -1.564901   -1.002360   -0.118230
     30          1           0       -5.173961    1.319513   -0.187918
     31          1           0       -3.904827    3.329008    0.606636
     32          7           0       -4.174332   -1.107597   -0.654736
     33          8           0       -5.379706   -0.970396   -0.851932
     34          8           0       -3.544904   -2.150808   -0.816503
 ---------------------------------------------------------------------

 SCF Done:  E(RHF) =  -669.535480499     A.U. after   15 cycles
 E2 =    -0.2091476666D+01 EUMP2 =    -0.67162695716510D+03

 The electronic state is 1-A.
 Alpha  occ. eigenvalues --  -20.60731 -20.60726 -15.85783 -11.31142 -11.27710
 Alpha  occ. eigenvalues --  -11.27698 -11.27446 -11.26730 -11.26680 -11.22540
 Alpha  occ. eigenvalues --  -11.22069 -11.22054 -11.21935 -11.21860 -11.21455
 Alpha  occ. eigenvalues --   -1.59806  -1.39360  -1.19310  -1.09082  -1.08708
 Alpha  occ. eigenvalues --   -1.04714  -1.04177  -0.96597  -0.95545  -0.87607
 Alpha  occ. eigenvalues --   -0.86113  -0.82379  -0.80265  -0.78880  -0.77423
 Alpha  occ. eigenvalues --   -0.72002  -0.71129  -0.70425  -0.65739  -0.64963
 Alpha  occ. eigenvalues --   -0.64715  -0.62146  -0.61525  -0.59961  -0.58208
 Alpha  occ. eigenvalues --   -0.55865  -0.55213  -0.53302  -0.53073  -0.52990
 Alpha  occ. eigenvalues --   -0.52808  -0.50523  -0.48772  -0.48757  -0.48550
 Alpha  occ. eigenvalues --   -0.47290  -0.46414  -0.46319  -0.44767  -0.44420
 Alpha  occ. eigenvalues --   -0.37294  -0.36310
 Alpha virt. eigenvalues --    0.05097   0.11334   0.16572   0.19166   0.22593
 Alpha virt. eigenvalues --    0.23669   0.25229   0.25897   0.26692   0.27971
 Alpha virt. eigenvalues --    0.29044   0.29512   0.31054   0.31394   0.32019

 Mulliken charges:
               1
     1  C   -0.297688
     2  C   -0.306558
     3  C   -0.478258
     4  H    0.153753
     5  H    0.150239
     6  H    0.156692
     7  H    0.142740
     8  H    0.156852
     9  H    0.162282
    10  H    0.158309
    11  C   -0.298694
    12  C   -0.300205
    13  C   -0.476031
    14  H    0.151792
    15  H    0.147213
    16  H    0.153713
    17  H    0.152065
    18  H    0.154633
    19  H    0.156473
    20  H    0.161793
    21  C   -0.172596
    22  C   -0.225014
    23  C   -0.176174
    24  C    0.159228
    25  C   -0.171125
    26  C   -0.218403
    27  H    0.225703
    28  H    0.234767
    29  H    0.276958
    30  H    0.275402
    31  H    0.223171
    32  N    0.488155
    33  O   -0.460639
    34  O   -0.460548
 Sum of Mulliken charges =  -0.00000

 Dipole moment (field-independent basis, Debye):
    X=              2.8639    Y=              4.0875    Z=              1.6584  Tot=              5.2592
 Quadrupole moment (field-independent basis, Debye-Ang):
   XX=           -109.1185   YY=            -92.4626   ZZ=            -96.4563
   XY=            -17.5669   XZ=             -5.7261   YZ=              0.1535

 Normal termination of Gaussian 16 at Thu May  6 09:01:33 2021.
