 Gaussian 16, Revision A.03,
 Gaussian 16:  EM64L-G16RevA.03 25-Dec-2016

 -------------
 #p 6-31g* mp2
 -------------

 ------------------------------------------------------
 Input file generated by CHIRIPA (05-May-2021 14:57:27)
 ------------------------------------------------------
 Symbolic Z-matrix:
 Charge =  0 Multiplicity = 1

                         Standard orientation:
 ---------------------------------------------------------------------
 Center     Atomic      Atomic             Coordinates (Angstroms)
 Number     Number       Type             X           Y           Z
 ---------------------------------------------------------------------
      1          6           0        4.976699   -2.123168   -0.630308
      2          6           0        5.691039   -0.934828   -0.814933
      3          6           0        5.116656    0.297034   -0.487599
      4          6           0        3.820098    0.303738    0.024439
      5          6           0        3.082822   -0.863104    0.219870
      6          6           0        3.677161   -2.083583   -0.114405
      7          1           0        5.430645   -3.075687   -0.887285
      8          1           0        6.700444   -0.962542   -1.215408
      9          1           0        5.647120    1.232123   -0.620396
     10          1           0        2.078348   -0.803574    0.621002
     11          1           0        3.120031   -3.004879    0.030039
     12          7           0        3.201461    1.601830    0.374647
     13          8           0        2.057715    1.580800    0.824134
     14          8           0        3.872034    2.615724    0.193023
     15          6           0       -1.528138   -0.212093    0.820754
     16          6           0       -1.948573    0.856442    0.022011
     17          6           0       -3.272593    0.934456   -0.420066
     18          6           0       -4.153493   -0.077973   -0.042851
     19          6           0       -3.764886   -1.155258    0.751966
     20          6           0       -2.436035   -1.212768    1.182544
     21          1           0       -0.497731   -0.264733    1.159703
     22          1           0       -1.245675    1.635006   -0.260510
     23          1           0       -3.624800    1.750494   -1.039300
     24          1           0       -4.488628   -1.916329    1.017268
     25          1           0       -2.112321   -2.043778    1.802766
     26          7           0       -5.557730   -0.006236   -0.504771
     27          8           0       -6.314336   -0.910885   -0.158657
     28          8           0       -5.875177    0.953283   -1.204192
 ---------------------------------------------------------------------

 SCF Done:  E(RHF) =  -868.339162727     A.U. after   16 cycles
 E2 =    -0.2599304278D+01 EUMP2 =    -0.87093846700541D+03

 The electronic state is 1-A.
 Alpha  occ. eigenvalues --  -20.61928 -20.61857 -20.60446 -20.60435 -15.86930
 Alpha  occ. eigenvalues --  -15.85491 -11.32113 -11.30779 -11.28748 -11.28596
 Alpha  occ. eigenvalues --  -11.28309 -11.27636 -11.27566 -11.27369 -11.27263
 Alpha  occ. eigenvalues --  -11.27005 -11.26399 -11.26160  -1.60948  -1.59520
 Alpha  occ. eigenvalues --   -1.40515  -1.39076  -1.20253  -1.18927  -1.09669
 Alpha  occ. eigenvalues --   -1.08328  -1.05635  -1.04308  -0.96546  -0.95182
 Alpha  occ. eigenvalues --   -0.87041  -0.85696  -0.83393  -0.82015  -0.78481
 Alpha  occ. eigenvalues --   -0.77078  -0.73166  -0.72252  -0.71710  -0.71366
 Alpha  occ. eigenvalues --   -0.70842  -0.70015  -0.65911  -0.65632  -0.64567
 Alpha  occ. eigenvalues --   -0.64276  -0.63006  -0.61644  -0.56119  -0.54803
 Alpha  occ. eigenvalues --   -0.53957  -0.53707  -0.52656  -0.52375  -0.49926
 Alpha  occ. eigenvalues --   -0.49870  -0.48472  -0.48460  -0.45957  -0.44499
 Alpha  occ. eigenvalues --   -0.38195  -0.37223  -0.36902  -0.35916
 Alpha virt. eigenvalues --    0.04056   0.05426   0.10435   0.11740   0.15595
 Alpha virt. eigenvalues --    0.16888   0.19100   0.21950   0.25074   0.26950
 Alpha virt. eigenvalues --    0.27880   0.28964   0.30632   0.30942   0.32962

 Mulliken charges:
               1
     1  C   -0.169449
     2  C   -0.218279
     3  C   -0.169241
     4  C    0.157215
     5  C   -0.170454
     6  C   -0.220064
     7  H    0.228972
     8  H    0.226809
     9  H    0.277831
    10  H    0.271083
    11  H    0.225040
    12  N    0.490525
    13  O   -0.475018
    14  O   -0.453248
    15  C   -0.179510
    16  C   -0.222440
    17  C   -0.172050
    18  C    0.158365
    19  C   -0.171804
    20  C   -0.220283
    21  H    0.235777
    22  H    0.237734
    23  H    0.275456
    24  H    0.273334
    25  H    0.218540
    26  N    0.488019
    27  O   -0.462303
    28  O   -0.460557
 Sum of Mulliken charges =  -0.00000

 Dipole moment (field-independent basis, Debye):
    X=              7.6223    Y=             -4.7075    Z=              0.2754  Tot=              8.9630
 Quadrupole moment (field-independent basis, Debye-Ang):
   XX=           -125.3460   YY=           -103.1188   ZZ=           -104.9784
   XY=            -13.5266   XZ=            -13.9593   YZ=             -3.6548

 Normal termination of Gaussian 16 at Thu May  6 03:38:52 2021.
