 Gaussian 16, Revision A.03,
 Gaussian 16:  EM64L-G16RevA.03 25-Dec-2016

 -------------
 #p 6-31g* mp2
 -------------

 ------------------------------------------------------
 Input file generated by CHIRIPA (05-May-2021 14:51:14)
 ------------------------------------------------------
 Symbolic Z-matrix:
 Charge =  0 Multiplicity = 1

                         Standard orientation:
 ---------------------------------------------------------------------
 Center     Atomic      Atomic             Coordinates (Angstroms)
 Number     Number       Type             X           Y           Z
 ---------------------------------------------------------------------
      1          6           0        4.407924    0.060761   -0.323789
      2          6           0        5.724901   -0.163895    0.419910
      3          6           0        6.930602    0.406681   -0.327433
      4          1           0        4.474014   -0.397469   -1.320083
      5          1           0        4.264692    1.138322   -0.484229
      6          1           0        5.864931   -1.240622    0.580120
      7          1           0        5.655599    0.294757    1.414622
      8          1           0        6.817383    1.485643   -0.474484
      9          1           0        7.027905   -0.058459   -1.313727
     10          1           0        7.861492    0.234997    0.221957
     11          6           0        3.193392   -0.504078    0.410783
     12          6           0        1.876415   -0.279422   -0.332916
     13          6           0        0.670714   -0.849999    0.414427
     14          1           0        3.336624   -1.581640    0.571223
     15          1           0        3.127302   -0.045849    1.407077
     16          1           0        1.945717   -0.738074   -1.327628
     17          1           0        1.736385    0.797304   -0.493126
     18          1           0        0.573411   -0.384858    1.400722
     19          1           0        0.783933   -1.928960    0.561479
     20          1           0       -0.260176   -0.678314   -0.134962
     21          6           0       -3.996015    0.928548    0.169986
     22          6           0       -2.998790    1.995870   -0.282067
     23          6           0       -3.403371    3.404845    0.152555
     24          1           0       -4.988603    1.168030   -0.235431
     25          1           0       -4.088663    0.963273    1.264338
     26          1           0       -2.907008    1.958217   -1.375125
     27          1           0       -2.008421    1.753715    0.124315
     28          1           0       -3.476173    3.465546    1.243251
     29          1           0       -4.379867    3.671208   -0.264709
     30          1           0       -2.676617    4.152099   -0.181062
     31          6           0       -3.605301   -0.485230   -0.256980
     32          6           0       -4.602526   -1.552552    0.195072
     33          6           0       -4.197945   -2.961528   -0.239550
     34          1           0       -3.512653   -0.519956   -1.351332
     35          1           0       -2.612713   -0.724712    0.148436
     36          1           0       -5.592895   -1.310397   -0.211310
     37          1           0       -4.694308   -1.514899    1.288130
     38          1           0       -3.221449   -3.227891    0.177714
     39          1           0       -4.125143   -3.022228   -1.330244
     40          1           0       -4.924699   -3.708782    0.094068
 ---------------------------------------------------------------------

 SCF Done:  E(RHF) =  -470.733276239     A.U. after   11 cycles
 E2 =    -0.1582720217D+01 EUMP2 =    -0.47231599645590D+03

 The electronic state is 1-A.
 Alpha  occ. eigenvalues --  -11.21617 -11.21608 -11.21586 -11.21571 -11.21414
 Alpha  occ. eigenvalues --  -11.21373 -11.21354 -11.21307 -11.21083 -11.21075
 Alpha  occ. eigenvalues --  -11.21066 -11.21039  -1.08443  -1.08405  -1.03543
 Alpha  occ. eigenvalues --   -1.03507  -0.96007  -0.95948  -0.87026  -0.86965
 Alpha  occ. eigenvalues --   -0.79619  -0.79564  -0.78263  -0.78216  -0.65079
 Alpha  occ. eigenvalues --   -0.65041  -0.60952  -0.60890  -0.59382  -0.59325
 Alpha  occ. eigenvalues --   -0.57663  -0.57516  -0.55284  -0.55246  -0.52786
 Alpha  occ. eigenvalues --   -0.52626  -0.52437  -0.52329  -0.49937  -0.49895
 Alpha  occ. eigenvalues --   -0.47943  -0.47881  -0.46644  -0.46598  -0.45795
 Alpha  occ. eigenvalues --   -0.45763  -0.45720  -0.45688  -0.43781  -0.43687
 Alpha virt. eigenvalues --    0.21590   0.23063   0.23903   0.24284   0.26025
 Alpha virt. eigenvalues --    0.26645   0.26978   0.27498   0.27929   0.29079
 Alpha virt. eigenvalues --    0.31007   0.31512   0.31670   0.31841   0.32141

 Mulliken charges:
               1
     1  C   -0.298245
     2  C   -0.299628
     3  C   -0.475707
     4  H    0.149712
     5  H    0.149558
     6  H    0.151940
     7  H    0.151917
     8  H    0.155196
     9  H    0.155205
    10  H    0.160267
    11  C   -0.298614
    12  C   -0.299233
    13  C   -0.483858
    14  H    0.149553
    15  H    0.149527
    16  H    0.152242
    17  H    0.152183
    18  H    0.154331
    19  H    0.155058
    20  H    0.168599
    21  C   -0.297568
    22  C   -0.301944
    23  C   -0.475636
    24  H    0.149534
    25  H    0.149406
    26  H    0.151617
    27  H    0.154110
    28  H    0.155150
    29  H    0.155244
    30  H    0.160063
    31  C   -0.306838
    32  C   -0.298898
    33  C   -0.475965
    34  H    0.148643
    35  H    0.158683
    36  H    0.151758
    37  H    0.151899
    38  H    0.155708
    39  H    0.154927
    40  H    0.160105
 Sum of Mulliken charges =  -0.00000

 Dipole moment (field-independent basis, Debye):
    X=              0.0111    Y=             -0.0062    Z=             -0.0009  Tot=              0.0128
 Quadrupole moment (field-independent basis, Debye-Ang):
   XX=            -85.5618   YY=            -85.2802   ZZ=            -84.0275
   XY=             -0.3451   XZ=              0.7956   YZ=              0.2357

 Normal termination of Gaussian 16 at Thu May  6 00:50:49 2021.
