 Gaussian 16, Revision A.03,
 Gaussian 16:  EM64L-G16RevA.03 25-Dec-2016

 -------------
 #p 6-31g* mp2
 -------------

 ------------------------------------------------------
 Input file generated by CHIRIPA (05-May-2021 14:55:22)
 ------------------------------------------------------
 Symbolic Z-matrix:
 Charge =  0 Multiplicity = 1

                         Standard orientation:
 ---------------------------------------------------------------------
 Center     Atomic      Atomic             Coordinates (Angstroms)
 Number     Number       Type             X           Y           Z
 ---------------------------------------------------------------------
      1          6           0        1.292196   -0.703937   -0.605953
      2          6           0        1.774777    0.608921   -0.599550
      3          6           0        3.114585    0.871432   -0.298633
      4          6           0        3.947730   -0.207647   -0.007517
      5          6           0        3.496775   -1.526709   -0.005778
      6          6           0        2.153217   -1.765690   -0.309569
      7          1           0        0.249944   -0.898722   -0.840828
      8          1           0        1.108382    1.435456   -0.829339
      9          1           0        3.514524    1.878070   -0.286514
     10          1           0        4.185154   -2.329953    0.227359
     11          1           0        1.781199   -2.786293   -0.313790
     12          7           0        5.368109    0.057807    0.312571
     13          8           0        6.081778   -0.910329    0.565607
     14          8           0        5.740839    1.228978    0.304360
     15          6           0       -4.322546    0.910172    0.304209
     16          6           0       -2.960752    0.967452   -0.388771
     17          6           0       -2.110234    2.149996    0.075989
     18          1           0       -4.862365    1.848319    0.116001
     19          1           0       -4.170947    0.849363    1.390815
     20          1           0       -3.114859    1.026739   -1.473830
     21          1           0       -2.424191    0.028983   -0.199051
     22          1           0       -1.927126    2.092776    1.153857
     23          1           0       -2.621718    3.096202   -0.128164
     24          1           0       -1.141086    2.171719   -0.432086
     25          6           0       -5.184357   -0.266596   -0.149914
     26          6           0       -6.546151   -0.323877    0.543066
     27          6           0       -7.396669   -1.506421    0.078306
     28          1           0       -5.335956   -0.205788   -1.236521
     29          1           0       -4.644538   -1.204743    0.038294
     30          1           0       -7.082712    0.614592    0.353347
     31          1           0       -6.392044   -0.383165    1.628124
     32          1           0       -6.885185   -2.452626    0.282460
     33          1           0       -7.579777   -1.449201   -0.999562
     34          1           0       -8.365818   -1.528144    0.586382
 ---------------------------------------------------------------------

 SCF Done:  E(RHF) =  -669.535398538     A.U. after   15 cycles
 E2 =    -0.2091215706D+01 EUMP2 =    -0.67162661424465D+03

 The electronic state is 1-A.
 Alpha  occ. eigenvalues --  -20.60730 -20.60725 -15.85783 -11.31143 -11.27715
 Alpha  occ. eigenvalues --  -11.27706 -11.27443 -11.26728 -11.26703 -11.22728
 Alpha  occ. eigenvalues --  -11.22234 -11.22230 -11.22189 -11.22092 -11.21578
 Alpha  occ. eigenvalues --   -1.59805  -1.39359  -1.19315  -1.09251  -1.08710
 Alpha  occ. eigenvalues --   -1.04720  -1.04365  -0.96804  -0.95545  -0.87824
 Alpha  occ. eigenvalues --   -0.86117  -0.82380  -0.80447  -0.79031  -0.77431
 Alpha  occ. eigenvalues --   -0.72002  -0.71128  -0.70422  -0.65874  -0.64967
 Alpha  occ. eigenvalues --   -0.64767  -0.62115  -0.61745  -0.60189  -0.58407
 Alpha  occ. eigenvalues --   -0.56061  -0.55224  -0.53588  -0.53264  -0.53042
 Alpha  occ. eigenvalues --   -0.52705  -0.50724  -0.48809  -0.48756  -0.48701
 Alpha  occ. eigenvalues --   -0.47470  -0.46579  -0.46474  -0.44766  -0.44612
 Alpha  occ. eigenvalues --   -0.37292  -0.36321
 Alpha virt. eigenvalues --    0.05105   0.11307   0.16584   0.18911   0.22418
 Alpha virt. eigenvalues --    0.23914   0.24779   0.25732   0.26289   0.27700
 Alpha virt. eigenvalues --    0.28807   0.29317   0.30814   0.31740   0.31941

 Mulliken charges:
               1
     1  C   -0.175352
     2  C   -0.222975
     3  C   -0.171964
     4  C    0.158766
     5  C   -0.171037
     6  C   -0.219005
     7  H    0.229418
     8  H    0.229824
     9  H    0.275944
    10  H    0.275387
    11  H    0.223274
    12  N    0.487965
    13  O   -0.460615
    14  O   -0.460448
    15  C   -0.298950
    16  C   -0.301997
    17  C   -0.478528
    18  H    0.152788
    19  H    0.152001
    20  H    0.153751
    21  H    0.145552
    22  H    0.160794
    23  H    0.161248
    24  H    0.151031
    25  C   -0.298687
    26  C   -0.300315
    27  C   -0.476104
    28  H    0.150305
    29  H    0.148285
    30  H    0.153373
    31  H    0.153105
    32  H    0.155149
    33  H    0.155753
    34  H    0.162266
 Sum of Mulliken charges =  -0.00000

 Dipole moment (field-independent basis, Debye):
    X=             -5.2627    Y=             -0.8905    Z=             -1.0762  Tot=              5.4449
 Quadrupole moment (field-independent basis, Debye-Ang):
   XX=           -134.1881   YY=            -89.7154   ZZ=            -95.0411
   XY=             -4.5748   XZ=             -4.3184   YZ=             -0.9978

 Normal termination of Gaussian 16 at Thu May  6 14:11:27 2021.
