 Gaussian 16, Revision A.03,
 Gaussian 16:  EM64L-G16RevA.03 25-Dec-2016

 -------------
 #p 6-31g* mp2
 -------------

 ------------------------------------------------------
 Input file generated by CHIRIPA (05-May-2021 14:57:25)
 ------------------------------------------------------
 Symbolic Z-matrix:
 Charge =  0 Multiplicity = 1

                         Standard orientation:
 ---------------------------------------------------------------------
 Center     Atomic      Atomic             Coordinates (Angstroms)
 Number     Number       Type             X           Y           Z
 ---------------------------------------------------------------------
      1          6           0       -2.464209    2.530676   -0.525964
      2          6           0       -2.136352    2.024442    0.736081
      3          6           0       -2.558641    0.748453    1.120880
      4          6           0       -3.310659    0.002551    0.214574
      5          6           0       -3.653370    0.479140   -1.049824
      6          6           0       -3.220339    1.757772   -1.413324
      7          1           0       -2.131993    3.522922   -0.816613
      8          1           0       -1.549255    2.622455    1.427270
      9          1           0       -2.318995    0.332027    2.091744
     10          1           0       -4.239917   -0.140536   -1.717193
     11          1           0       -3.476443    2.148350   -2.394092
     12          7           0       -3.763403   -1.349681    0.610669
     13          8           0       -4.424835   -1.986940   -0.206060
     14          8           0       -3.448261   -1.746695    1.730357
     15          6           0        0.959965   -0.973053   -0.940770
     16          6           0        2.069655   -1.807056   -1.112667
     17          6           0        3.335533   -1.403120   -0.678000
     18          6           0        3.456084   -0.153136   -0.072775
     19          6           0        2.369620    0.700372    0.112726
     20          6           0        1.113219    0.275797   -0.329700
     21          1           0       -0.019720   -1.294857   -1.281444
     22          1           0        1.953608   -2.777459   -1.586900
     23          1           0        4.211514   -2.028862   -0.798516
     24          1           0        2.516624    1.662139    0.588973
     25          1           0        0.253190    0.925582   -0.194886
     26          7           0        4.791196    0.285417    0.391493
     27          8           0        4.870956    1.391363    0.921737
     28          8           0        5.732617   -0.485096    0.216354
 ---------------------------------------------------------------------

 SCF Done:  E(RHF) =  -868.337509597     A.U. after   16 cycles
 E2 =    -0.2601630443D+01 EUMP2 =    -0.87093914003942D+03

 The electronic state is 1-A.
 Alpha  occ. eigenvalues --  -20.61755 -20.61743 -20.60845 -20.60833 -15.86813
 Alpha  occ. eigenvalues --  -15.85891 -11.32366 -11.31220 -11.28934 -11.28928
 Alpha  occ. eigenvalues --  -11.28679 -11.27946 -11.27918 -11.27796 -11.27749
 Alpha  occ. eigenvalues --  -11.27454 -11.26744 -11.26651  -1.60831  -1.59917
 Alpha  occ. eigenvalues --   -1.40375  -1.39473  -1.20570  -1.19369  -1.09911
 Alpha  occ. eigenvalues --   -1.08762  -1.05971  -1.04767  -0.96700  -0.95613
 Alpha  occ. eigenvalues --   -0.87335  -0.86161  -0.83511  -0.82451  -0.78539
 Alpha  occ. eigenvalues --   -0.77518  -0.73011  -0.72179  -0.72109  -0.71585
 Alpha  occ. eigenvalues --   -0.71240  -0.70472  -0.66174  -0.65913  -0.65015
 Alpha  occ. eigenvalues --   -0.64799  -0.63263  -0.62158  -0.56400  -0.55260
 Alpha  occ. eigenvalues --   -0.54417  -0.54000  -0.53099  -0.52707  -0.49792
 Alpha  occ. eigenvalues --   -0.49762  -0.48873  -0.48859  -0.45735  -0.44887
 Alpha  occ. eigenvalues --   -0.38560  -0.37643  -0.37268  -0.36354
 Alpha virt. eigenvalues --    0.03963   0.05018   0.09946   0.11286   0.15398
 Alpha virt. eigenvalues --    0.16557   0.20301   0.21602   0.26108   0.27335
 Alpha virt. eigenvalues --    0.27792   0.28009   0.30085   0.31318   0.31703

 Mulliken charges:
               1
     1  C   -0.171836
     2  C   -0.234950
     3  C   -0.169462
     4  C    0.155464
     5  C   -0.173300
     6  C   -0.218352
     7  H    0.231400
     8  H    0.229054
     9  H    0.281250
    10  H    0.278891
    11  H    0.228446
    12  N    0.487129
    13  O   -0.458591
    14  O   -0.456188
    15  C   -0.174229
    16  C   -0.217696
    17  C   -0.171515
    18  C    0.159391
    19  C   -0.175652
    20  C   -0.226252
    21  H    0.226915
    22  H    0.225311
    23  H    0.275857
    24  H    0.270888
    25  H    0.231953
    26  N    0.488156
    27  O   -0.462429
    28  O   -0.459653
 Sum of Mulliken charges =  -0.00000

 Dipole moment (field-independent basis, Debye):
    X=             -3.4559    Y=              3.1916    Z=             -3.0383  Tot=              5.6001
 Quadrupole moment (field-independent basis, Debye-Ang):
   XX=           -146.7930   YY=           -100.9493   ZZ=           -101.3368
   XY=            -22.6013   XZ=              1.1712   YZ=              3.5005

 Normal termination of Gaussian 16 at Fri May  7 08:04:44 2021.
