 Gaussian 16, Revision A.03,
 Gaussian 16:  EM64L-G16RevA.03 25-Dec-2016

 -------------
 #p 6-31g* mp2
 -------------

 ------------------------------------------------------
 Input file generated by CHIRIPA (05-May-2021 14:55:23)
 ------------------------------------------------------
 Symbolic Z-matrix:
 Charge =  0 Multiplicity = 1

                         Standard orientation:
 ---------------------------------------------------------------------
 Center     Atomic      Atomic             Coordinates (Angstroms)
 Number     Number       Type             X           Y           Z
 ---------------------------------------------------------------------
      1          6           0        2.583865   -2.456485   -0.513578
      2          6           0        3.649702   -1.962804    0.245891
      3          6           0        3.844461   -0.585377    0.384858
      4          6           0        2.950258    0.273660   -0.252124
      5          6           0        1.878883   -0.187482   -1.015533
      6          6           0        1.703410   -1.568813   -1.140760
      7          1           0        2.440063   -3.528019   -0.616194
      8          1           0        4.335046   -2.649835    0.734089
      9          1           0        4.661253   -0.176075    0.966873
     10          1           0        1.212249    0.522112   -1.490396
     11          1           0        0.874792   -1.949370   -1.731196
     12          7           0        3.146232    1.733946   -0.112278
     13          8           0        2.344463    2.469882   -0.683420
     14          8           0        4.097894    2.114933    0.565826
     15          6           0       -3.161058   -0.505766    0.550120
     16          6           0       -1.921358    0.240781    1.043878
     17          6           0       -0.781786   -0.700164    1.436041
     18          1           0       -3.504686   -1.192678    1.335624
     19          1           0       -2.885980   -1.129200   -0.311887
     20          1           0       -2.198989    0.863683    1.903838
     21          1           0       -1.580753    0.926135    0.257179
     22          1           0       -0.476586   -1.312685    0.581482
     23          1           0       -1.098334   -1.375492    2.237497
     24          1           0        0.094404   -0.145503    1.786043
     25          6           0       -4.308917    0.421320    0.154320
     26          6           0       -5.548617   -0.325228   -0.339438
     27          6           0       -6.688188    0.615718   -0.731602
     28          1           0       -4.583994    1.044754    1.016327
     29          1           0       -3.965288    1.108231   -0.631185
     30          1           0       -5.889221   -1.010582    0.447261
     31          1           0       -5.270985   -0.948129   -1.199398
     32          1           0       -6.371640    1.291046   -1.533057
     33          1           0       -6.993388    1.228239    0.122958
     34          1           0       -7.564379    0.061057   -1.081603
 ---------------------------------------------------------------------

 SCF Done:  E(RHF) =  -669.534035577     A.U. after   15 cycles
 E2 =    -0.2093180850D+01 EUMP2 =    -0.67162721642764D+03

 The electronic state is 1-A.
 Alpha  occ. eigenvalues --  -20.60795 -20.60789 -15.85848 -11.31212 -11.27778
 Alpha  occ. eigenvalues --  -11.27772 -11.27518 -11.26792 -11.26774 -11.21752
 Alpha  occ. eigenvalues --  -11.21702 -11.21600 -11.21497 -11.21169 -11.21102
 Alpha  occ. eigenvalues --   -1.59870  -1.39423  -1.19391  -1.08785  -1.08583
 Alpha  occ. eigenvalues --   -1.04808  -1.03651  -0.96109  -0.95615  -0.87126
 Alpha  occ. eigenvalues --   -0.86197  -0.82456  -0.79715  -0.78397  -0.77502
 Alpha  occ. eigenvalues --   -0.72066  -0.71196  -0.70494  -0.65236  -0.65040
 Alpha  occ. eigenvalues --   -0.64810  -0.62163  -0.61072  -0.59474  -0.57713
 Alpha  occ. eigenvalues --   -0.55526  -0.55287  -0.53297  -0.52903  -0.52606
 Alpha  occ. eigenvalues --   -0.52476  -0.50009  -0.48825  -0.48820  -0.48034
 Alpha  occ. eigenvalues --   -0.46756  -0.45935  -0.45875  -0.44827  -0.43911
 Alpha  occ. eigenvalues --   -0.37351  -0.36276
 Alpha virt. eigenvalues --    0.05031   0.11140   0.16461   0.20720   0.22834
 Alpha virt. eigenvalues --    0.24095   0.26130   0.26839   0.27567   0.28203
 Alpha virt. eigenvalues --    0.28403   0.30239   0.31403   0.31562   0.32324

 Mulliken charges:
               1
     1  C   -0.169975
     2  C   -0.218076
     3  C   -0.171389
     4  C    0.158209
     5  C   -0.165171
     6  C   -0.219515
     7  H    0.225846
     8  H    0.223611
     9  H    0.275700
    10  H    0.275528
    11  H    0.223255
    12  N    0.487784
    13  O   -0.460530
    14  O   -0.460319
    15  C   -0.297081
    16  C   -0.301602
    17  C   -0.476532
    18  H    0.149893
    19  H    0.142835
    20  H    0.155335
    21  H    0.152588
    22  H    0.151734
    23  H    0.152758
    24  H    0.162783
    25  C   -0.298451
    26  C   -0.299470
    27  C   -0.475820
    28  H    0.151599
    29  H    0.150539
    30  H    0.151816
    31  H    0.149935
    32  H    0.155825
    33  H    0.156224
    34  H    0.160136
 Sum of Mulliken charges =  -0.00000

 Dipole moment (field-independent basis, Debye):
    X=             -0.6476    Y=             -5.1100    Z=             -0.4722  Tot=              5.1724
 Quadrupole moment (field-independent basis, Debye-Ang):
   XX=            -96.4889   YY=            -98.4026   ZZ=            -92.6453
   XY=            -16.0502   XZ=              0.6931   YZ=              0.8419

 Normal termination of Gaussian 16 at Thu May  6 17:39:08 2021.
