 Gaussian 16, Revision A.03,
 Gaussian 16:  EM64L-G16RevA.03 25-Dec-2016

 -------------
 #p 6-31g* mp2
 -------------

 ------------------------------------------------------
 Input file generated by CHIRIPA (05-May-2021 14:53:12)
 ------------------------------------------------------
 Symbolic Z-matrix:
 Charge =  0 Multiplicity = 1

                         Standard orientation:
 ---------------------------------------------------------------------
 Center     Atomic      Atomic             Coordinates (Angstroms)
 Number     Number       Type             X           Y           Z
 ---------------------------------------------------------------------
      1          6           0        3.488908    0.810817    0.293985
      2          6           0        2.604637    1.567821   -0.697475
      3          6           0        2.087349    2.892671   -0.136243
      4          1           0        2.919328    0.623280    1.214503
      5          1           0        4.338922    1.447232    0.576557
      6          1           0        1.757286    0.929644   -0.979154
      7          1           0        3.176327    1.753410   -1.615813
      8          1           0        2.921289    3.551016    0.127817
      9          1           0        1.494186    2.722569    0.768093
     10          1           0        1.457459    3.417260   -0.861436
     11          6           0        4.013718   -0.515665   -0.252593
     12          6           0        4.897989   -1.272669    0.738868
     13          6           0        5.415277   -2.597518    0.177636
     14          1           0        3.163704   -1.152080   -0.535164
     15          1           0        4.583299   -0.328128   -1.173111
     16          1           0        4.326300   -1.458257    1.657206
     17          1           0        5.745340   -0.634491    1.020547
     18          1           0        6.008440   -2.427417   -0.726700
     19          1           0        4.581338   -3.255863   -0.086424
     20          1           0        6.045167   -3.122107    0.902829
     21          6           0       -4.102222   -2.348097   -0.106082
     22          6           0       -4.726735   -1.253891    0.501551
     23          6           0       -4.087030   -0.012024    0.557145
     24          6           0       -2.817456    0.100564   -0.007477
     25          6           0       -2.169139   -0.970910   -0.619779
     26          6           0       -2.827663   -2.203369   -0.663824
     27          1           0       -4.606470   -3.309155   -0.144782
     28          1           0       -5.716546   -1.363366    0.935527
     29          1           0       -4.547479    0.851579    1.021463
     30          1           0       -1.182155   -0.830979   -1.043687
     31          1           0       -2.340244   -3.051413   -1.136359
     32          7           0       -2.130267    1.410294    0.045265
     33          8           0       -1.012019    1.483480   -0.459513
     34          8           0       -2.722909    2.338873    0.590383
 ---------------------------------------------------------------------

 SCF Done:  E(RHF) =  -669.535707228     A.U. after   15 cycles
 E2 =    -0.2091773211D+01 EUMP2 =    -0.67162748043915D+03

 The electronic state is 1-A.
 Alpha  occ. eigenvalues --  -20.60967 -20.60962 -15.86000 -11.31322 -11.27890
 Alpha  occ. eigenvalues --  -11.27880 -11.27619 -11.26891 -11.26881 -11.21243
 Alpha  occ. eigenvalues --  -11.20880 -11.20858 -11.20534 -11.20309 -11.19380
 Alpha  occ. eigenvalues --   -1.60030  -1.39587  -1.19490  -1.08894  -1.07708
 Alpha  occ. eigenvalues --   -1.04887  -1.02664  -0.95744  -0.95106  -0.86289
 Alpha  occ. eigenvalues --   -0.86135  -0.82572  -0.78818  -0.77648  -0.77420
 Alpha  occ. eigenvalues --   -0.72239  -0.71347  -0.70599  -0.65154  -0.64889
 Alpha  occ. eigenvalues --   -0.64339  -0.62235  -0.60036  -0.58585  -0.56690
 Alpha  occ. eigenvalues --   -0.55390  -0.54408  -0.53217  -0.52978  -0.51778
 Alpha  occ. eigenvalues --   -0.51551  -0.49277  -0.48978  -0.48778  -0.47100
 Alpha  occ. eigenvalues --   -0.45873  -0.45062  -0.44912  -0.44838  -0.42931
 Alpha  occ. eigenvalues --   -0.37468  -0.36488
 Alpha virt. eigenvalues --    0.04892   0.11166   0.16381   0.21000   0.23359
 Alpha virt. eigenvalues --    0.24911   0.26310   0.27447   0.27788   0.28843
 Alpha virt. eigenvalues --    0.28876   0.30586   0.31659   0.32304   0.33205

 Mulliken charges:
               1
     1  C   -0.297996
     2  C   -0.302126
     3  C   -0.466270
     4  H    0.148523
     5  H    0.147218
     6  H    0.160018
     7  H    0.144490
     8  H    0.142411
     9  H    0.161179
    10  H    0.167311
    11  C   -0.295994
    12  C   -0.298918
    13  C   -0.474845
    14  H    0.143205
    15  H    0.148551
    16  H    0.150700
    17  H    0.152230
    18  H    0.154886
    19  H    0.151919
    20  H    0.158944
    21  C   -0.170542
    22  C   -0.218560
    23  C   -0.170664
    24  C    0.157474
    25  C   -0.170893
    26  C   -0.218672
    27  H    0.226140
    28  H    0.223938
    29  H    0.275944
    30  H    0.275783
    31  H    0.224052
    32  N    0.494169
    33  O   -0.464819
    34  O   -0.458787
 Sum of Mulliken charges =  -0.00000

 Dipole moment (field-independent basis, Debye):
    X=             -2.7690    Y=             -4.5278    Z=             -0.1825  Tot=              5.3105
 Quadrupole moment (field-independent basis, Debye-Ang):
   XX=            -78.7956   YY=            -96.2961   ZZ=            -94.3231
   XY=             12.0509   XZ=             -1.8627   YZ=              0.6984

 Normal termination of Gaussian 16 at Thu May  6 00:57:50 2021.
