 Gaussian 16, Revision A.03,
 Gaussian 16:  EM64L-G16RevA.03 25-Dec-2016

 -------------
 #p 6-31g* mp2
 -------------

 ------------------------------------------------------
 Input file generated by CHIRIPA (05-May-2021 14:55:24)
 ------------------------------------------------------
 Symbolic Z-matrix:
 Charge =  0 Multiplicity = 1

                         Standard orientation:
 ---------------------------------------------------------------------
 Center     Atomic      Atomic             Coordinates (Angstroms)
 Number     Number       Type             X           Y           Z
 ---------------------------------------------------------------------
      1          6           0        1.555496   -2.862776    0.556136
      2          6           0        0.814379   -2.221608   -0.441948
      3          6           0        1.143351   -0.925004   -0.848325
      4          6           0        2.224471   -0.296305   -0.232526
      5          6           0        2.982103   -0.908639    0.764635
      6          6           0        2.635089   -2.205404    1.155186
      7          1           0        1.292934   -3.870072    0.865672
      8          1           0       -0.024556   -2.729704   -0.908930
      9          1           0        0.586579   -0.405271   -1.618585
     10          1           0        3.813041   -0.376555    1.211677
     11          1           0        3.212430   -2.700894    1.930564
     12          7           0        2.582289    1.076437   -0.654362
     13          8           0        3.539277    1.608717   -0.096251
     14          8           0        1.898984    1.594119   -1.535121
     15          6           0       -2.543481    1.231414    0.672133
     16          6           0       -1.332447    1.999825    0.142111
     17          6           0       -0.887471    3.122055    1.080404
     18          1           0       -3.374973    1.932331    0.827954
     19          1           0       -2.299788    0.811454    1.657852
     20          1           0       -1.577883    2.417045   -0.842929
     21          1           0       -0.503800    1.296966   -0.012647
     22          1           0       -0.615961    2.719018    2.061446
     23          1           0       -1.696146    3.845463    1.226447
     24          1           0       -0.020445    3.658246    0.682127
     25          6           0       -3.000194    0.106313   -0.254846
     26          6           0       -4.211229   -0.662099    0.275175
     27          6           0       -4.656202   -1.784328   -0.663117
     28          1           0       -3.243888    0.526272   -1.240566
     29          1           0       -2.168702   -0.594605   -0.410666
     30          1           0       -5.039874    0.040761    0.429934
     31          1           0       -3.965792   -1.079319    1.260215
     32          1           0       -3.847528   -2.507736   -0.809160
     33          1           0       -4.927713   -1.381292   -1.644160
     34          1           0       -5.523230   -2.320519   -0.264841
 ---------------------------------------------------------------------

 SCF Done:  E(RHF) =  -669.535215338     A.U. after   15 cycles
 E2 =    -0.2094296376D+01 EUMP2 =    -0.67162951171340D+03

 The electronic state is 1-A.
 Alpha  occ. eigenvalues --  -20.60913 -20.60885 -15.85925 -11.31287 -11.27867
 Alpha  occ. eigenvalues --  -11.27847 -11.27606 -11.26873 -11.26864 -11.21845
 Alpha  occ. eigenvalues --  -11.21569 -11.21455 -11.21240 -11.21086 -11.20478
 Alpha  occ. eigenvalues --   -1.59960  -1.39515  -1.19475  -1.08865  -1.08419
 Alpha  occ. eigenvalues --   -1.04874  -1.03433  -0.95909  -0.95698  -0.86929
 Alpha  occ. eigenvalues --   -0.86271  -0.82530  -0.79546  -0.78251  -0.77526
 Alpha  occ. eigenvalues --   -0.72150  -0.71288  -0.70575  -0.65125  -0.65080
 Alpha  occ. eigenvalues --   -0.64863  -0.62213  -0.60844  -0.59301  -0.57475
 Alpha  occ. eigenvalues --   -0.55371  -0.55232  -0.53219  -0.52961  -0.52554
 Alpha  occ. eigenvalues --   -0.52328  -0.49890  -0.48948  -0.48907  -0.47833
 Alpha  occ. eigenvalues --   -0.46631  -0.45865  -0.45642  -0.44696  -0.43683
 Alpha  occ. eigenvalues --   -0.37433  -0.36421
 Alpha virt. eigenvalues --    0.04912   0.11068   0.16274   0.20479   0.22975
 Alpha virt. eigenvalues --    0.24216   0.25490   0.26871   0.27668   0.28218
 Alpha virt. eigenvalues --    0.29635   0.29917   0.31657   0.31850   0.32395

 Mulliken charges:
               1
     1  C   -0.170958
     2  C   -0.219752
     3  C   -0.173196
     4  C    0.159603
     5  C   -0.170661
     6  C   -0.218583
     7  H    0.226255
     8  H    0.224722
     9  H    0.278467
    10  H    0.276063
    11  H    0.223958
    12  N    0.488817
    13  O   -0.459303
    14  O   -0.458108
    15  C   -0.297720
    16  C   -0.301302
    17  C   -0.479674
    18  H    0.149807
    19  H    0.147516
    20  H    0.155335
    21  H    0.152589
    22  H    0.150800
    23  H    0.152661
    24  H    0.173275
    25  C   -0.299445
    26  C   -0.299387
    27  C   -0.474390
    28  H    0.150872
    29  H    0.140393
    30  H    0.154514
    31  H    0.151200
    32  H    0.147464
    33  H    0.156815
    34  H    0.161353
 Sum of Mulliken charges =  -0.00000

 Dipole moment (field-independent basis, Debye):
    X=             -1.1107    Y=             -4.7300    Z=              1.4482  Tot=              5.0699
 Quadrupole moment (field-independent basis, Debye-Ang):
   XX=            -97.6520   YY=            -92.5044   ZZ=            -93.9125
   XY=            -11.3372   XZ=              6.6404   YZ=             -0.3446

 Normal termination of Gaussian 16 at Wed May  5 20:48:44 2021.
