 Gaussian 16, Revision A.03,
 Gaussian 16:  EM64L-G16RevA.03 25-Dec-2016

 -------------
 #p 6-31g* mp2
 -------------

 ------------------------------------------------------
 Input file generated by CHIRIPA (05-May-2021 14:57:22)
 ------------------------------------------------------
 Symbolic Z-matrix:
 Charge =  0 Multiplicity = 1

                         Standard orientation:
 ---------------------------------------------------------------------
 Center     Atomic      Atomic             Coordinates (Angstroms)
 Number     Number       Type             X           Y           Z
 ---------------------------------------------------------------------
      1          6           0       -4.052726   -2.131138   -0.695677
      2          6           0       -2.745062   -2.055848   -0.204895
      3          6           0       -2.174248   -0.818577    0.107964
      4          6           0       -2.943081    0.328465   -0.083034
      5          6           0       -4.248490    0.286151   -0.570280
      6          6           0       -4.798951   -0.961959   -0.876484
      7          1           0       -4.488242   -3.096489   -0.936129
      8          1           0       -2.163189   -2.962197   -0.063474
      9          1           0       -1.164149   -0.731437    0.489440
     10          1           0       -4.803823    1.207031   -0.700676
     11          1           0       -5.814736   -1.017406   -1.257472
     12          7           0       -2.349560    1.644046    0.244654
     13          8           0       -3.047761    2.639914    0.067452
     14          8           0       -1.197395    1.654420    0.672492
     15          6           0        4.301558    0.328813   -2.003675
     16          6           0        4.327235   -0.944612   -1.425533
     17          6           0        3.632444   -1.200070   -0.239551
     18          6           0        2.919025   -0.154223    0.343998
     19          6           0        2.874138    1.125199   -0.207686
     20          6           0        3.576370    1.357841   -1.393981
     21          1           0        4.844178    0.518398   -2.925096
     22          1           0        4.889584   -1.745674   -1.896819
     23          1           0        3.635290   -2.176493    0.229499
     24          1           0        2.304689    1.903659    0.285412
     25          1           0        3.554644    2.347787   -1.840723
     26          7           0        2.179542   -0.412588    1.599710
     27          8           0        1.558510    0.525755    2.094147
     28          8           0        2.234971   -1.548544    2.065722
 ---------------------------------------------------------------------

 SCF Done:  E(RHF) =  -868.337886371     A.U. after   16 cycles
 E2 =    -0.2600247401D+01 EUMP2 =    -0.87093813377168D+03

 The electronic state is 1-A.
 Alpha  occ. eigenvalues --  -20.60541 -20.60378 -20.60298 -20.60248 -15.85483
 Alpha  occ. eigenvalues --  -15.85317 -11.30845 -11.30729 -11.27502 -11.27344
 Alpha  occ. eigenvalues --  -11.27305 -11.27251 -11.27210 -11.27089 -11.26500
 Alpha  occ. eigenvalues --  -11.26384 -11.26373 -11.26303  -1.59549  -1.59358
 Alpha  occ. eigenvalues --   -1.39084  -1.38900  -1.19037  -1.18915  -1.08446
 Alpha  occ. eigenvalues --   -1.08311  -1.04425  -1.04318  -0.95273  -0.95127
 Alpha  occ. eigenvalues --   -0.85824  -0.85717  -0.82106  -0.81929  -0.77157
 Alpha  occ. eigenvalues --   -0.76951  -0.71764  -0.71483  -0.70854  -0.70685
 Alpha  occ. eigenvalues --   -0.70134  -0.70024  -0.64685  -0.64559  -0.64426
 Alpha  occ. eigenvalues --   -0.64323  -0.61748  -0.61654  -0.54951  -0.54840
 Alpha  occ. eigenvalues --   -0.52781  -0.52658  -0.52507  -0.52408  -0.48496
 Alpha  occ. eigenvalues --   -0.48470  -0.48310  -0.48275  -0.44452  -0.44288
 Alpha  occ. eigenvalues --   -0.37048  -0.36917  -0.36030  -0.35925
 Alpha virt. eigenvalues --    0.05369   0.05534   0.11617   0.11727   0.16830
 Alpha virt. eigenvalues --    0.17012   0.21676   0.21876   0.27628   0.27684
 Alpha virt. eigenvalues --    0.28389   0.28832   0.31014   0.31490   0.32601

 Mulliken charges:
               1
     1  C   -0.171161
     2  C   -0.219482
     3  C   -0.170359
     4  C    0.157138
     5  C   -0.171557
     6  C   -0.219039
     7  H    0.223998
     8  H    0.224988
     9  H    0.280732
    10  H    0.273997
    11  H    0.221517
    12  N    0.488009
    13  O   -0.465034
    14  O   -0.455426
    15  C   -0.170929
    16  C   -0.219482
    17  C   -0.173253
    18  C    0.153166
    19  C   -0.168919
    20  C   -0.220004
    21  H    0.224370
    22  H    0.221047
    23  H    0.272322
    24  H    0.289186
    25  H    0.225214
    26  N    0.483253
    27  O   -0.444267
    28  O   -0.470026
 Sum of Mulliken charges =  -0.00000

 Dipole moment (field-independent basis, Debye):
    X=              0.5597    Y=             -3.4804    Z=             -5.4477  Tot=              6.4888
 Quadrupole moment (field-independent basis, Debye-Ang):
   XX=            -75.2327   YY=           -103.3134   ZZ=           -108.8367
   XY=             12.2781   XZ=             -7.3958   YZ=              0.5956

 Normal termination of Gaussian 16 at Thu May  6 06:32:21 2021.
