 Gaussian 16, Revision A.03,
 Gaussian 16:  EM64L-G16RevA.03 25-Dec-2016

 -------------
 #p 6-31g* mp2
 -------------

 ------------------------------------------------------
 Input file generated by CHIRIPA (05-May-2021 14:53:11)
 ------------------------------------------------------
 Symbolic Z-matrix:
 Charge =  0 Multiplicity = 1

                         Standard orientation:
 ---------------------------------------------------------------------
 Center     Atomic      Atomic             Coordinates (Angstroms)
 Number     Number       Type             X           Y           Z
 ---------------------------------------------------------------------
      1          6           0       -3.216263   -0.443571    0.868019
      2          6           0       -1.691572   -0.333831    0.832529
      3          6           0       -1.015332   -1.131926    1.947669
      4          1           0       -3.580095   -0.093643    1.843786
      5          1           0       -3.502723   -1.501417    0.788652
      6          1           0       -1.408116    0.723610    0.910547
      7          1           0       -1.331343   -0.683882   -0.143338
      8          1           0       -1.269203   -2.194031    1.869686
      9          1           0       -1.346413   -0.778542    2.929558
     10          1           0        0.074328   -1.039437    1.903528
     11          6           0       -3.906650    0.348890   -0.240629
     12          6           0       -5.431341    0.239150   -0.205139
     13          6           0       -6.107582    1.037244   -1.320279
     14          1           0       -3.620191    1.406735   -0.161262
     15          1           0       -3.542818   -0.001039   -1.216396
     16          1           0       -5.791571    0.589201    0.770728
     17          1           0       -5.714798   -0.818291   -0.283157
     18          1           0       -5.776500    0.683861   -2.302168
     19          1           0       -5.853710    2.099350   -1.242296
     20          1           0       -7.197241    0.944756   -1.276138
     21          6           0        3.345849    2.366065    0.544749
     22          6           0        3.017693    1.372400    1.472900
     23          6           0        2.703785    0.078448    1.046639
     24          6           0        2.727915   -0.188182   -0.321432
     25          6           0        3.050851    0.780310   -1.270655
     26          6           0        3.361354    2.067375   -0.821657
     27          1           0        3.588379    3.368563    0.884709
     28          1           0        3.004850    1.601502    2.534686
     29          1           0        2.446196   -0.709804    1.743578
     30          1           0        3.055191    0.521755   -2.322581
     31          1           0        3.615833    2.837078   -1.544737
     32          7           0        2.397397   -1.554386   -0.784729
     33          8           0        2.425799   -1.763812   -1.995503
     34          8           0        2.116193   -2.389921    0.071682
 ---------------------------------------------------------------------

 SCF Done:  E(RHF) =  -669.535333953     A.U. after   15 cycles
 E2 =    -0.2092299707D+01 EUMP2 =    -0.67162763366001D+03

 The electronic state is 1-A.
 Alpha  occ. eigenvalues --  -20.60850 -20.60831 -15.85881 -11.31243 -11.27806
 Alpha  occ. eigenvalues --  -11.27800 -11.27544 -11.26823 -11.26813 -11.21442
 Alpha  occ. eigenvalues --  -11.21336 -11.21202 -11.21127 -11.20946 -11.20716
 Alpha  occ. eigenvalues --   -1.59909  -1.39463  -1.19413  -1.08807  -1.08215
 Alpha  occ. eigenvalues --   -1.04818  -1.03307  -0.95773  -0.95630  -0.86784
 Alpha  occ. eigenvalues --   -0.86211  -0.82476  -0.79379  -0.78031  -0.77529
 Alpha  occ. eigenvalues --   -0.72102  -0.71229  -0.70533  -0.65067  -0.64839
 Alpha  occ. eigenvalues --   -0.64831  -0.62206  -0.60693  -0.59130  -0.57384
 Alpha  occ. eigenvalues --   -0.55317  -0.55029  -0.53170  -0.52975  -0.52376
 Alpha  occ. eigenvalues --   -0.52147  -0.49687  -0.48864  -0.48857  -0.47691
 Alpha  occ. eigenvalues --   -0.46402  -0.45572  -0.45492  -0.44856  -0.43554
 Alpha  occ. eigenvalues --   -0.37383  -0.36396
 Alpha virt. eigenvalues --    0.04978   0.11138   0.16498   0.21161   0.23090
 Alpha virt. eigenvalues --    0.24410   0.26685   0.26863   0.27670   0.27840
 Alpha virt. eigenvalues --    0.28754   0.30406   0.31579   0.31640   0.32048

 Mulliken charges:
               1
     1  C   -0.298324
     2  C   -0.300577
     3  C   -0.476510
     4  H    0.147600
     5  H    0.152132
     6  H    0.147157
     7  H    0.156000
     8  H    0.162930
     9  H    0.148744
    10  H    0.158369
    11  C   -0.298304
    12  C   -0.299555
    13  C   -0.475614
    14  H    0.147069
    15  H    0.151585
    16  H    0.150874
    17  H    0.153067
    18  H    0.155880
    19  H    0.153799
    20  H    0.159875
    21  C   -0.170753
    22  C   -0.219276
    23  C   -0.170893
    24  C    0.159984
    25  C   -0.170930
    26  C   -0.218128
    27  H    0.225804
    28  H    0.224013
    29  H    0.276622
    30  H    0.275713
    31  H    0.223675
    32  N    0.488246
    33  O   -0.460056
    34  O   -0.460221
 Sum of Mulliken charges =  -0.00000

 Dipole moment (field-independent basis, Debye):
    X=              1.2375    Y=              4.7451    Z=              1.5659  Tot=              5.1478
 Quadrupole moment (field-independent basis, Debye-Ang):
   XX=            -89.6280   YY=            -96.1907   ZZ=            -91.7436
   XY=             13.9326   XZ=              2.9408   YZ=             -2.5335

 Normal termination of Gaussian 16 at Wed May  5 18:28:19 2021.
