 Gaussian 16, Revision A.03,
 Gaussian 16:  EM64L-G16RevA.03 25-Dec-2016

 -------------
 #p 6-31g* mp2
 -------------

 ------------------------------------------------------
 Input file generated by CHIRIPA (05-May-2021 14:55:21)
 ------------------------------------------------------
 Symbolic Z-matrix:
 Charge =  0 Multiplicity = 1

                         Standard orientation:
 ---------------------------------------------------------------------
 Center     Atomic      Atomic             Coordinates (Angstroms)
 Number     Number       Type             X           Y           Z
 ---------------------------------------------------------------------
      1          6           0        4.385465    1.865088    0.512777
      2          6           0        4.512945    0.594401    1.083412
      3          6           0        3.741985   -0.474258    0.616359
      4          6           0        2.849417   -0.235562   -0.427498
      5          6           0        2.699615    1.018916   -1.016679
      6          6           0        3.480803    2.072924   -0.533602
      7          1           0        4.988338    2.689557    0.881819
      8          1           0        5.214707    0.430068    1.896167
      9          1           0        3.820565   -1.468163    1.039911
     10          1           0        1.991517    1.151912   -1.825583
     11          1           0        3.379693    3.058689   -0.978674
     12          7           0        2.027823   -1.359147   -0.930427
     13          8           0        1.248686   -1.122836   -1.851155
     14          8           0        2.178552   -2.454850   -0.394373
     15          6           0       -3.079953    0.215470    0.551149
     16          6           0       -2.379720   -0.805714    1.448278
     17          6           0       -0.898586   -0.490087    1.659035
     18          1           0       -2.569272    0.251217   -0.420897
     19          1           0       -2.976733    1.215158    0.995405
     20          1           0       -2.485419   -1.803372    1.003168
     21          1           0       -2.892243   -0.839173    2.418235
     22          1           0       -0.776714    0.493165    2.124829
     23          1           0       -0.367577   -0.476513    0.701722
     24          1           0       -0.417584   -1.232663    2.303298
     25          6           0       -4.561202   -0.086494    0.331049
     26          6           0       -5.261435    0.934690   -0.566080
     27          6           0       -6.742568    0.619063   -0.776837
     28          1           0       -4.664421   -1.086183   -0.113208
     29          1           0       -5.071882   -0.122241    1.303095
     30          1           0       -4.748912    0.968149   -1.536037
     31          1           0       -5.155736    1.932348   -0.120970
     32          1           0       -7.273577    0.605489    0.180475
     33          1           0       -6.864440   -0.364189   -1.242630
     34          1           0       -7.223570    1.361640   -1.421100
 ---------------------------------------------------------------------

 SCF Done:  E(RHF) =  -669.536022401     A.U. after   15 cycles
 E2 =    -0.2091357014D+01 EUMP2 =    -0.67162737941480D+03

 The electronic state is 1-A.
 Alpha  occ. eigenvalues --  -20.60850 -20.60838 -15.85876 -11.31201 -11.27769
 Alpha  occ. eigenvalues --  -11.27764 -11.27509 -11.26779 -11.26769 -11.21239
 Alpha  occ. eigenvalues --  -11.21047 -11.20944 -11.20852 -11.20755 -11.20575
 Alpha  occ. eigenvalues --   -1.59914  -1.39468  -1.19371  -1.08779  -1.07963
 Alpha  occ. eigenvalues --   -1.04770  -1.03081  -0.95621  -0.95543  -0.86568
 Alpha  occ. eigenvalues --   -0.86172  -0.82455  -0.79158  -0.77778  -0.77507
 Alpha  occ. eigenvalues --   -0.72105  -0.71246  -0.70486  -0.65029  -0.64777
 Alpha  occ. eigenvalues --   -0.64581  -0.62120  -0.60465  -0.58909  -0.57152
 Alpha  occ. eigenvalues --   -0.55280  -0.54822  -0.53101  -0.52866  -0.52245
 Alpha  occ. eigenvalues --   -0.51976  -0.49488  -0.48866  -0.48857  -0.47480
 Alpha  occ. eigenvalues --   -0.46180  -0.45333  -0.45236  -0.44849  -0.43333
 Alpha  occ. eigenvalues --   -0.37345  -0.36367
 Alpha virt. eigenvalues --    0.05022   0.11273   0.16503   0.21402   0.23340
 Alpha virt. eigenvalues --    0.24699   0.27038   0.27325   0.27846   0.28192
 Alpha virt. eigenvalues --    0.28436   0.30814   0.31696   0.32167   0.32299

 Mulliken charges:
               1
     1  C   -0.170576
     2  C   -0.218581
     3  C   -0.170251
     4  C    0.157743
     5  C   -0.171274
     6  C   -0.218461
     7  H    0.225619
     8  H    0.223467
     9  H    0.275631
    10  H    0.275541
    11  H    0.223487
    12  N    0.489473
    13  O   -0.461136
    14  O   -0.458384
    15  C   -0.299720
    16  C   -0.298568
    17  C   -0.478643
    18  H    0.155385
    19  H    0.145172
    20  H    0.158248
    21  H    0.148809
    22  H    0.149411
    23  H    0.157879
    24  H    0.161503
    25  C   -0.298278
    26  C   -0.299522
    27  C   -0.475518
    28  H    0.151867
    29  H    0.147832
    30  H    0.153022
    31  H    0.149676
    32  H    0.154209
    33  H    0.156065
    34  H    0.158874
 Sum of Mulliken charges =  -0.00000

 Dipole moment (field-independent basis, Debye):
    X=              2.9935    Y=              3.8737    Z=              1.7199  Tot=              5.1889
 Quadrupole moment (field-independent basis, Debye-Ang):
   XX=            -79.3223   YY=            -94.7961   ZZ=            -94.0814
   XY=              9.3371   XZ=              5.3333   YZ=             -4.1001

 Normal termination of Gaussian 16 at Thu May  6 20:46:43 2021.
