 Gaussian 16, Revision A.03,
 Gaussian 16:  EM64L-G16RevA.03 25-Dec-2016

 -------------
 #p 6-31g* mp2
 -------------

 ------------------------------------------------------
 Input file generated by CHIRIPA (05-May-2021 14:57:22)
 ------------------------------------------------------
 Symbolic Z-matrix:
 Charge =  0 Multiplicity = 1

                         Standard orientation:
 ---------------------------------------------------------------------
 Center     Atomic      Atomic             Coordinates (Angstroms)
 Number     Number       Type             X           Y           Z
 ---------------------------------------------------------------------
      1          6           0        2.245511   -1.235952    1.997565
      2          6           0        2.071417    0.133978    1.775072
      3          6           0        2.718516    0.768249    0.710407
      4          6           0        3.536103   -0.001309   -0.115802
      5          6           0        3.729617   -1.367887    0.079921
      6          6           0        3.072597   -1.981199    1.150772
      7          1           0        1.738976   -1.720529    2.827025
      8          1           0        1.429689    0.715248    2.431086
      9          1           0        2.601438    1.827319    0.515260
     10          1           0        4.375618   -1.920963   -0.591054
     11          1           0        3.209656   -3.045260    1.321163
     12          7           0        4.226409    0.659071   -1.246189
     13          8           0        4.941390   -0.041169   -1.959705
     14          8           0        4.039418    1.864412   -1.397268
     15          6           0       -2.612055    2.274841    0.941171
     16          6           0       -1.933055    1.080982    1.206085
     17          6           0       -2.373061   -0.124321    0.650940
     18          6           0       -3.500667   -0.099127   -0.168305
     19          6           0       -4.198579    1.074014   -0.451054
     20          6           0       -3.740660    2.267560    0.114904
     21          1           0       -2.263291    3.206583    1.376621
     22          1           0       -1.056274    1.083635    1.847406
     23          1           0       -1.866290   -1.062976    0.839429
     24          1           0       -5.069530    1.039746   -1.094241
     25          1           0       -4.269962    3.193216   -0.092572
     26          7           0       -3.975963   -1.368903   -0.761735
     27          8           0       -4.971976   -1.320008   -1.480209
     28          8           0       -3.343489   -2.389006   -0.497155
 ---------------------------------------------------------------------

 SCF Done:  E(RHF) =  -868.336888996     A.U. after   16 cycles
 E2 =    -0.2599852080D+01 EUMP2 =    -0.87093674107615D+03

 The electronic state is 1-A.
 Alpha  occ. eigenvalues --  -20.61144 -20.61130 -20.61081 -20.61068 -15.86201
 Alpha  occ. eigenvalues --  -15.86135 -11.31686 -11.31556 -11.28357 -11.28240
 Alpha  occ. eigenvalues --  -11.28187 -11.28112 -11.28088 -11.27919 -11.27466
 Alpha  occ. eigenvalues --  -11.27262 -11.27249 -11.27127  -1.60212  -1.60150
 Alpha  occ. eigenvalues --   -1.39763  -1.39703  -1.19891  -1.19746  -1.09267
 Alpha  occ. eigenvalues --   -1.09133  -1.05330  -1.05165  -0.96073  -0.95954
 Alpha  occ. eigenvalues --   -0.86737  -0.86560  -0.82920  -0.82787  -0.77960
 Alpha  occ. eigenvalues --   -0.77808  -0.72417  -0.72354  -0.71535  -0.71472
 Alpha  occ. eigenvalues --   -0.70997  -0.70860  -0.65552  -0.65518  -0.65407
 Alpha  occ. eigenvalues --   -0.65077  -0.62754  -0.62438  -0.55827  -0.55672
 Alpha  occ. eigenvalues --   -0.53661  -0.53528  -0.53468  -0.53152  -0.49188
 Alpha  occ. eigenvalues --   -0.49163  -0.49115  -0.49103  -0.45141  -0.45096
 Alpha  occ. eigenvalues --   -0.37884  -0.37729  -0.36975  -0.36701
 Alpha virt. eigenvalues --    0.04614   0.04735   0.10599   0.10893   0.15965
 Alpha virt. eigenvalues --    0.16246   0.18818   0.21964   0.24845   0.27437
 Alpha virt. eigenvalues --    0.28089   0.28596   0.29436   0.31556   0.32004

 Mulliken charges:
               1
     1  C   -0.172223
     2  C   -0.223013
     3  C   -0.168749
     4  C    0.159091
     5  C   -0.168548
     6  C   -0.217346
     7  H    0.226725
     8  H    0.215422
     9  H    0.274779
    10  H    0.278674
    11  H    0.227475
    12  N    0.488245
    13  O   -0.457754
    14  O   -0.460525
    15  C   -0.170909
    16  C   -0.217853
    17  C   -0.170181
    18  C    0.159027
    19  C   -0.169819
    20  C   -0.217969
    21  H    0.225729
    22  H    0.214843
    23  H    0.273677
    24  H    0.277299
    25  H    0.225467
    26  N    0.488313
    27  O   -0.458633
    28  O   -0.461248
 Sum of Mulliken charges =  -0.00000

 Dipole moment (field-independent basis, Debye):
    X=             -0.6850    Y=              2.0484    Z=              5.8902  Tot=              6.2738
 Quadrupole moment (field-independent basis, Debye-Ang):
   XX=           -129.8809   YY=           -100.9657   ZZ=           -106.6664
   XY=            -28.9625   XZ=              8.1495   YZ=             -0.8727

 Normal termination of Gaussian 16 at Wed May  5 20:59:34 2021.
