 Gaussian 16, Revision A.03,
 Gaussian 16:  EM64L-G16RevA.03 25-Dec-2016

 -------------
 #p 6-31g* mp2
 -------------

 ------------------------------------------------------
 Input file generated by CHIRIPA (05-May-2021 14:51:14)
 ------------------------------------------------------
 Symbolic Z-matrix:
 Charge =  0 Multiplicity = 1

                         Standard orientation:
 ---------------------------------------------------------------------
 Center     Atomic      Atomic             Coordinates (Angstroms)
 Number     Number       Type             X           Y           Z
 ---------------------------------------------------------------------
      1          6           0        3.759176    0.759099    0.270006
      2          6           0        4.937532    1.529993   -0.325966
      3          6           0        5.051627    2.952483    0.222941
      4          1           0        2.829531    1.307921    0.066289
      5          1           0        3.868222    0.723768    1.362826
      6          1           0        4.827018    1.562669   -1.417449
      7          1           0        5.864459    0.979176   -0.120973
      8          1           0        5.186444    2.936545    1.309298
      9          1           0        4.143108    3.523353    0.005455
     10          1           0        5.900553    3.485480   -0.216489
     11          6           0        3.631922   -0.664653   -0.268940
     12          6           0        2.453565   -1.435547    0.327033
     13          6           0        2.339470   -2.858037   -0.221874
     14          1           0        3.522876   -0.629322   -1.361760
     15          1           0        4.561566   -1.213475   -0.065222
     16          1           0        1.526638   -0.884729    0.122039
     17          1           0        2.564079   -1.468222    1.418516
     18          1           0        3.247990   -3.428907   -0.004388
     19          1           0        2.204654   -2.842099   -1.308231
     20          1           0        1.490544   -3.391033    0.217556
     21          6           0       -3.847678    0.678810   -0.182644
     22          6           0       -5.265599    1.113108    0.190008
     23          6           0       -5.554851    2.568025   -0.180593
     24          1           0       -3.125523    1.337103    0.319440
     25          1           0       -3.700518    0.819318   -1.262458
     26          1           0       -5.410498    0.970523    1.268566
     27          1           0       -5.984459    0.453586   -0.312870
     28          1           0       -5.437778    2.721651   -1.258226
     29          1           0       -4.860556    3.241524    0.332197
     30          1           0       -6.573844    2.857448    0.094631
     31          6           0       -3.543420   -0.773256    0.181578
     32          6           0       -2.125498   -1.207555   -0.191074
     33          6           0       -1.836247   -2.662472    0.179526
     34          1           0       -3.690578   -0.913765    1.261391
     35          1           0       -4.265575   -1.431549   -0.320507
     36          1           0       -1.406639   -0.548032    0.311804
     37          1           0       -1.980599   -1.064969   -1.269634
     38          1           0       -2.530541   -3.335971   -0.333264
     39          1           0       -1.953320   -2.816097    1.257159
     40          1           0       -0.817254   -2.951894   -0.095698
 ---------------------------------------------------------------------

 SCF Done:  E(RHF) =  -470.733199291     A.U. after   11 cycles
 E2 =    -0.1582752533D+01 EUMP2 =    -0.47231595182400D+03

 The electronic state is 1-A.
 Alpha  occ. eigenvalues --  -11.21607 -11.21605 -11.21605 -11.21604 -11.21410
 Alpha  occ. eigenvalues --  -11.21408 -11.21350 -11.21349 -11.21077 -11.21076
 Alpha  occ. eigenvalues --  -11.21074 -11.21022  -1.08444  -1.08423  -1.03566
 Alpha  occ. eigenvalues --   -1.03499  -0.96036  -0.95931  -0.87060  -0.86942
 Alpha  occ. eigenvalues --   -0.79643  -0.79550  -0.78269  -0.78223  -0.65087
 Alpha  occ. eigenvalues --   -0.65042  -0.60983  -0.60895  -0.59678  -0.59114
 Alpha  occ. eigenvalues --   -0.57782  -0.57368  -0.55276  -0.55252  -0.52964
 Alpha  occ. eigenvalues --   -0.52535  -0.52456  -0.52178  -0.49934  -0.49910
 Alpha  occ. eigenvalues --   -0.48028  -0.47801  -0.46697  -0.46565  -0.45853
 Alpha  occ. eigenvalues --   -0.45758  -0.45731  -0.45639  -0.43929  -0.43622
 Alpha virt. eigenvalues --    0.21093   0.23076   0.23408   0.25164   0.25852
 Alpha virt. eigenvalues --    0.26793   0.27011   0.27122   0.28008   0.28944
 Alpha virt. eigenvalues --    0.30427   0.30749   0.31533   0.31621   0.32343

 Mulliken charges:
               1
     1  C   -0.298329
     2  C   -0.299657
     3  C   -0.475724
     4  H    0.149647
     5  H    0.149449
     6  H    0.151989
     7  H    0.151960
     8  H    0.155140
     9  H    0.155196
    10  H    0.160282
    11  C   -0.298169
    12  C   -0.303223
    13  C   -0.479808
    14  H    0.149615
    15  H    0.149750
    16  H    0.155575
    17  H    0.151937
    18  H    0.155652
    19  H    0.154991
    20  H    0.163792
    21  C   -0.298287
    22  C   -0.299635
    23  C   -0.475712
    24  H    0.149551
    25  H    0.149380
    26  H    0.151992
    27  H    0.151973
    28  H    0.155130
    29  H    0.155172
    30  H    0.160290
    31  C   -0.298403
    32  C   -0.300757
    33  C   -0.483427
    34  H    0.149635
    35  H    0.149764
    36  H    0.153230
    37  H    0.151543
    38  H    0.155012
    39  H    0.154777
    40  H    0.168708
 Sum of Mulliken charges =  -0.00000

 Dipole moment (field-independent basis, Debye):
    X=              0.0111    Y=             -0.0059    Z=             -0.0003  Tot=              0.0126
 Quadrupole moment (field-independent basis, Debye-Ang):
   XX=            -84.5263   YY=            -86.7509   ZZ=            -83.4910
   XY=              0.0200   XZ=              0.6436   YZ=             -0.0777

 Normal termination of Gaussian 16 at Wed May  5 23:14:23 2021.
