 Gaussian 16, Revision A.03,
 Gaussian 16:  EM64L-G16RevA.03 25-Dec-2016

 -------------
 #p 6-31g* mp2
 -------------

 ------------------------------------------------------
 Input file generated by CHIRIPA (05-May-2021 14:51:09)
 ------------------------------------------------------
 Symbolic Z-matrix:
 Charge =  0 Multiplicity = 1

                         Standard orientation:
 ---------------------------------------------------------------------
 Center     Atomic      Atomic             Coordinates (Angstroms)
 Number     Number       Type             X           Y           Z
 ---------------------------------------------------------------------
      1          6           0        3.060710    0.801928   -0.174124
      2          6           0        3.601659    2.225862   -0.040819
      3          6           0        2.495404    3.281313   -0.045068
      4          1           0        2.479883    0.722638   -1.103262
      5          1           0        2.360984    0.604348    0.649733
      6          1           0        4.301213    2.420222   -0.863901
      7          1           0        4.181426    2.301720    0.888014
      8          1           0        1.801509    3.115434    0.785351
      9          1           0        1.921977    3.234610   -0.976519
     10          1           0        2.904359    4.291926    0.051254
     11          6           0        4.154609   -0.264424   -0.171458
     12          6           0        3.613660   -1.688358   -0.304762
     13          6           0        4.719915   -2.743809   -0.300513
     14          1           0        4.854335   -0.066844   -0.995314
     15          1           0        4.735436   -0.185133    0.757681
     16          1           0        3.033893   -1.764216   -1.233596
     17          1           0        2.914105   -1.882718    0.518320
     18          1           0        5.293342   -2.697105    0.630938
     19          1           0        5.413810   -2.577930   -1.130932
     20          1           0        4.310960   -3.754422   -0.396835
     21          6           0       -4.217681    0.181063    0.078067
     22          6           0       -5.443351   -0.563252   -0.452702
     23          6           0       -6.655666    0.350059   -0.636946
     24          1           0       -4.470801    0.654645    1.036500
     25          1           0       -3.962933    0.994780   -0.615015
     26          1           0       -5.694875   -1.376191    0.240465
     27          1           0       -5.187227   -1.035277   -1.409890
     28          1           0       -6.428501    1.153714   -1.344856
     29          1           0       -6.939034    0.810863    0.314875
     30          1           0       -7.520519   -0.202529   -1.017124
     31          6           0       -2.997638   -0.718567    0.267515
     32          6           0       -1.771968    0.025748    0.798283
     33          6           0       -0.559653   -0.887564    0.982528
     34          1           0       -3.252386   -1.532285    0.960596
     35          1           0       -2.744518   -1.192149   -0.690919
     36          1           0       -2.028092    0.497773    1.755471
     37          1           0       -1.520443    0.838688    0.105116
     38          1           0       -0.276285   -1.348367    0.030707
     39          1           0       -0.786818   -1.691219    1.690438
     40          1           0        0.305201   -0.334974    1.362705
 ---------------------------------------------------------------------

 SCF Done:  E(RHF) =  -470.733131886     A.U. after   11 cycles
 E2 =    -0.1582925465D+01 EUMP2 =    -0.47231605735110D+03

 The electronic state is 1-A.
 Alpha  occ. eigenvalues --  -11.21592 -11.21587 -11.21577 -11.21548 -11.21390
 Alpha  occ. eigenvalues --  -11.21369 -11.21331 -11.21308 -11.21072 -11.21063
 Alpha  occ. eigenvalues --  -11.21036 -11.21020  -1.08423  -1.08394  -1.03512
 Alpha  occ. eigenvalues --   -1.03502  -0.95985  -0.95934  -0.86997  -0.86957
 Alpha  occ. eigenvalues --   -0.79584  -0.79561  -0.78246  -0.78192  -0.65058
 Alpha  occ. eigenvalues --   -0.65034  -0.60907  -0.60902  -0.59368  -0.59309
 Alpha  occ. eigenvalues --   -0.57657  -0.57489  -0.55262  -0.55232  -0.52761
 Alpha  occ. eigenvalues --   -0.52607  -0.52444  -0.52293  -0.49910  -0.49890
 Alpha  occ. eigenvalues --   -0.47965  -0.47818  -0.46615  -0.46594  -0.45791
 Alpha  occ. eigenvalues --   -0.45729  -0.45692  -0.45666  -0.43775  -0.43675
 Alpha virt. eigenvalues --    0.21519   0.23077   0.23885   0.24367   0.25673
 Alpha virt. eigenvalues --    0.26379   0.26971   0.27483   0.28058   0.29455
 Alpha virt. eigenvalues --    0.30531   0.31283   0.31682   0.31868   0.32300

 Mulliken charges:
               1
     1  C   -0.303683
     2  C   -0.299231
     3  C   -0.475677
     4  H    0.149279
     5  H    0.155655
     6  H    0.151848
     7  H    0.151711
     8  H    0.154972
     9  H    0.154927
    10  H    0.160302
    11  C   -0.298009
    12  C   -0.301278
    13  C   -0.475735
    14  H    0.149271
    15  H    0.149275
    16  H    0.151367
    17  H    0.155117
    18  H    0.155033
    19  H    0.154937
    20  H    0.160227
    21  C   -0.298242
    22  C   -0.299626
    23  C   -0.475692
    24  H    0.149607
    25  H    0.149580
    26  H    0.151888
    27  H    0.151892
    28  H    0.155188
    29  H    0.155170
    30  H    0.160206
    31  C   -0.298484
    32  C   -0.300047
    33  C   -0.479757
    34  H    0.149439
    35  H    0.149600
    36  H    0.151425
    37  H    0.152657
    38  H    0.156626
    39  H    0.154298
    40  H    0.163960
 Sum of Mulliken charges =  -0.00000

 Dipole moment (field-independent basis, Debye):
    X=             -0.0016    Y=             -0.0040    Z=              0.0020  Tot=              0.0048
 Quadrupole moment (field-independent basis, Debye-Ang):
   XX=            -86.2338   YY=            -85.8534   ZZ=            -82.8384
   XY=              1.1540   XZ=             -0.4848   YZ=             -0.1763

 Normal termination of Gaussian 16 at Wed May  5 15:06:48 2021.
