 Gaussian 16, Revision A.03,
 Gaussian 16:  EM64L-G16RevA.03 25-Dec-2016

 -------------
 #p 6-31g* mp2
 -------------

 ------------------------------------------------------
 Input file generated by CHIRIPA (05-May-2021 14:55:20)
 ------------------------------------------------------
 Symbolic Z-matrix:
 Charge =  0 Multiplicity = 1

                         Standard orientation:
 ---------------------------------------------------------------------
 Center     Atomic      Atomic             Coordinates (Angstroms)
 Number     Number       Type             X           Y           Z
 ---------------------------------------------------------------------
      1          6           0        5.624489   -1.331754   -0.129332
      2          6           0        4.964362   -0.916771   -1.290600
      3          6           0        3.759241   -0.212781   -1.209185
      4          6           0        3.240363    0.060391    0.055502
      5          6           0        3.874345   -0.339616    1.230811
      6          6           0        5.078337   -1.042362    1.125455
      7          1           0        6.560218   -1.878147   -0.201877
      8          1           0        5.386174   -1.140115   -2.266426
      9          1           0        3.227263    0.120352   -2.092043
     10          1           0        3.429236   -0.102206    2.189421
     11          1           0        5.588806   -1.363399    2.029004
     12          7           0        1.965153    0.805015    0.154366
     13          8           0        1.528811    1.033211    1.280496
     14          8           0        1.426131    1.146357   -0.896148
     15          6           0       -4.041257    0.689713    0.215284
     16          6           0       -2.762844    1.001185   -0.563579
     17          6           0       -2.022912    2.224064   -0.020568
     18          1           0       -4.704438    1.565024    0.184183
     19          1           0       -3.788001    0.526834    1.272037
     20          1           0       -3.018260    1.162065   -1.618803
     21          1           0       -2.102711    0.124962   -0.530782
     22          1           0       -1.739705    2.069798    1.025662
     23          1           0       -2.660455    3.112793   -0.068542
     24          1           0       -1.112132    2.428655   -0.591955
     25          6           0       -4.792108   -0.530144   -0.315658
     26          6           0       -6.070521   -0.841616    0.463206
     27          6           0       -6.810453   -2.064495   -0.079806
     28          1           0       -5.045364   -0.367265   -1.372412
     29          1           0       -4.128927   -1.405455   -0.284557
     30          1           0       -6.730653    0.034606    0.430408
     31          1           0       -5.815105   -1.002496    1.518429
     32          1           0       -6.172910   -2.953224   -0.031833
     33          1           0       -7.093660   -1.910229   -1.126035
     34          1           0       -7.721233   -2.269086    0.491581
 ---------------------------------------------------------------------

 SCF Done:  E(RHF) =  -669.536403919     A.U. after   15 cycles
 E2 =    -0.2091370118D+01 EUMP2 =    -0.67162777403692D+03

 The electronic state is 1-A.
 Alpha  occ. eigenvalues --  -20.61025 -20.61013 -15.86037 -11.31341 -11.27898
 Alpha  occ. eigenvalues --  -11.27894 -11.27631 -11.26899 -11.26889 -11.20895
 Alpha  occ. eigenvalues --  -11.20512 -11.20489 -11.20198 -11.20030 -11.18917
 Alpha  occ. eigenvalues --   -1.60064  -1.39623  -1.19503  -1.08911  -1.07357
 Alpha  occ. eigenvalues --   -1.04896  -1.02322  -0.95758  -0.94747  -0.86297
 Alpha  occ. eigenvalues --   -0.85771  -0.82590  -0.78462  -0.77646  -0.77097
 Alpha  occ. eigenvalues --   -0.72253  -0.71376  -0.70611  -0.65159  -0.64899
 Alpha  occ. eigenvalues --   -0.64004  -0.62243  -0.59733  -0.58227  -0.56331
 Alpha  occ. eigenvalues --   -0.55397  -0.54064  -0.53229  -0.52987  -0.51442
 Alpha  occ. eigenvalues --   -0.51199  -0.49057  -0.48965  -0.48623  -0.46719
 Alpha  occ. eigenvalues --   -0.45534  -0.45042  -0.44637  -0.44531  -0.42539
 Alpha  occ. eigenvalues --   -0.37482  -0.36496
 Alpha virt. eigenvalues --    0.04881   0.11160   0.16387   0.21297   0.23829
 Alpha virt. eigenvalues --    0.25614   0.27218   0.27643   0.28180   0.28488
 Alpha virt. eigenvalues --    0.29346   0.30880   0.32376   0.32534   0.32682

 Mulliken charges:
               1
     1  C   -0.170500
     2  C   -0.218555
     3  C   -0.170723
     4  C    0.158138
     5  C   -0.170712
     6  C   -0.218590
     7  H    0.226160
     8  H    0.224003
     9  H    0.275933
    10  H    0.275896
    11  H    0.223972
    12  N    0.489081
    13  O   -0.458554
    14  O   -0.459437
    15  C   -0.297420
    16  C   -0.297330
    17  C   -0.480813
    18  H    0.146403
    19  H    0.148588
    20  H    0.145573
    21  H    0.152727
    22  H    0.159442
    23  H    0.141182
    24  H    0.183579
    25  C   -0.296992
    26  C   -0.298718
    27  C   -0.474991
    28  H    0.147408
    29  H    0.147658
    30  H    0.150846
    31  H    0.150956
    32  H    0.153762
    33  H    0.154070
    34  H    0.157955
 Sum of Mulliken charges =  -0.00000

 Dipole moment (field-independent basis, Debye):
    X=              4.9628    Y=             -2.5991    Z=             -0.3337  Tot=              5.6121
 Quadrupole moment (field-independent basis, Debye-Ang):
   XX=            -67.9259   YY=            -96.5455   ZZ=            -89.4878
   XY=             -9.3724   XZ=             -0.5232   YZ=             -1.1069

 Normal termination of Gaussian 16 at Thu May  6 12:28:01 2021.
