 Gaussian 16, Revision A.03,
 Gaussian 16:  EM64L-G16RevA.03 25-Dec-2016

 -------------
 #p 6-31g* mp2
 -------------

 ------------------------------------------------------
 Input file generated by CHIRIPA (05-May-2021 14:57:24)
 ------------------------------------------------------
 Symbolic Z-matrix:
 Charge =  0 Multiplicity = 1

                         Standard orientation:
 ---------------------------------------------------------------------
 Center     Atomic      Atomic             Coordinates (Angstroms)
 Number     Number       Type             X           Y           Z
 ---------------------------------------------------------------------
      1          6           0        5.296045    0.945210   -0.833957
      2          6           0        5.206663    0.810414    0.555418
      3          6           0        4.081912    0.221428    1.140721
      4          6           0        3.060538   -0.223701    0.302900
      5          6           0        3.120157   -0.103596   -1.084655
      6          6           0        4.254344    0.488580   -1.648124
      7          1           0        6.173444    1.403987   -1.280154
      8          1           0        6.014136    1.164131    1.190175
      9          1           0        3.986742    0.104549    2.213428
     10          1           0        2.299149   -0.465771   -1.691444
     11          1           0        4.321037    0.591950   -2.727434
     12          7           0        1.864820   -0.848922    0.910977
     13          8           0        0.978563   -1.232999    0.150931
     14          8           0        1.836515   -0.943055    2.136120
     15          6           0       -3.783201    2.528629    0.337080
     16          6           0       -4.572741    1.503669    0.868687
     17          6           0       -4.290786    0.165911    0.576364
     18          6           0       -3.206794   -0.112138   -0.254864
     19          6           0       -2.401527    0.886773   -0.799855
     20          6           0       -2.702020    2.217459   -0.494029
     21          1           0       -4.009431    3.565085    0.569407
     22          1           0       -5.413028    1.742372    1.514430
     23          1           0       -4.885585   -0.647239    0.974383
     24          1           0       -1.570500    0.617658   -1.440469
     25          1           0       -2.087130    3.011394   -0.908299
     26          7           0       -2.898488   -1.524618   -0.571480
     27          8           0       -1.937908   -1.743267   -1.306405
     28          8           0       -3.623256   -2.386326   -0.078724
 ---------------------------------------------------------------------

 SCF Done:  E(RHF) =  -868.336590874     A.U. after   16 cycles
 E2 =    -0.2600387570D+01 EUMP2 =    -0.87093697844419D+03

 The electronic state is 1-A.
 Alpha  occ. eigenvalues --  -20.60478 -20.60429 -20.59704 -20.59606 -15.85495
 Alpha  occ. eigenvalues --  -15.84710 -11.31052 -11.30322 -11.27648 -11.27624
 Alpha  occ. eigenvalues --  -11.27421 -11.26946 -11.26937 -11.26778 -11.26700
 Alpha  occ. eigenvalues --  -11.26688 -11.26052 -11.26030  -1.59538  -1.58705
 Alpha  occ. eigenvalues --   -1.39081  -1.38256  -1.19245  -1.18532  -1.08607
 Alpha  occ. eigenvalues --   -1.07887  -1.04671  -1.03991  -0.95406  -0.94682
 Alpha  occ. eigenvalues --   -0.86059  -0.85376  -0.82228  -0.81523  -0.77252
 Alpha  occ. eigenvalues --   -0.76512  -0.71721  -0.70933  -0.70878  -0.70345
 Alpha  occ. eigenvalues --   -0.69977  -0.69670  -0.64885  -0.64671  -0.64197
 Alpha  occ. eigenvalues --   -0.64022  -0.62010  -0.61344  -0.55166  -0.54512
 Alpha  occ. eigenvalues --   -0.52999  -0.52760  -0.52287  -0.52106  -0.48505
 Alpha  occ. eigenvalues --   -0.48460  -0.47726  -0.47674  -0.44454  -0.43570
 Alpha  occ. eigenvalues --   -0.37242  -0.36527  -0.36288  -0.35599
 Alpha virt. eigenvalues --    0.05263   0.06060   0.11361   0.12056   0.16725
 Alpha virt. eigenvalues --    0.17475   0.21423   0.22077   0.27200   0.27797
 Alpha virt. eigenvalues --    0.28305   0.29105   0.30829   0.31590   0.32433

 Mulliken charges:
               1
     1  C   -0.171508
     2  C   -0.218682
     3  C   -0.171518
     4  C    0.157898
     5  C   -0.173879
     6  C   -0.218925
     7  H    0.224793
     8  H    0.222724
     9  H    0.275382
    10  H    0.278830
    11  H    0.223018
    12  N    0.487454
    13  O   -0.452751
    14  O   -0.462904
    15  C   -0.171427
    16  C   -0.218632
    17  C   -0.170448
    18  C    0.162311
    19  C   -0.165675
    20  C   -0.219292
    21  H    0.221897
    22  H    0.220715
    23  H    0.274725
    24  H    0.274471
    25  H    0.218220
    26  N    0.490196
    27  O   -0.452163
    28  O   -0.464832
 Sum of Mulliken charges =  -0.00000

 Dipole moment (field-independent basis, Debye):
    X=              3.2109    Y=              6.9440    Z=             -1.0747  Tot=              7.7256
 Quadrupole moment (field-independent basis, Debye-Ang):
   XX=            -70.3176   YY=           -108.1372   ZZ=           -101.7821
   XY=             -8.1518   XZ=             -9.2820   YZ=             -0.3986

 Normal termination of Gaussian 16 at Wed May  5 21:06:39 2021.
