 Gaussian 16, Revision A.03,
 Gaussian 16:  EM64L-G16RevA.03 25-Dec-2016

 -------------
 #p 6-31g* mp2
 -------------

 ------------------------------------------------------
 Input file generated by CHIRIPA (05-May-2021 14:57:22)
 ------------------------------------------------------
 Symbolic Z-matrix:
 Charge =  0 Multiplicity = 1

                         Standard orientation:
 ---------------------------------------------------------------------
 Center     Atomic      Atomic             Coordinates (Angstroms)
 Number     Number       Type             X           Y           Z
 ---------------------------------------------------------------------
      1          6           0        1.237283   -2.202341    1.511185
      2          6           0        2.284501   -1.416037    2.002695
      3          6           0        2.867069   -0.428687    1.202506
      4          6           0        2.375443   -0.253876   -0.090179
      5          6           0        1.333453   -1.021258   -0.608515
      6          6           0        0.765932   -2.002794    0.209444
      7          1           0        0.790575   -2.967079    2.139693
      8          1           0        2.652593   -1.568787    3.013249
      9          1           0        3.679006    0.194190    1.557752
     10          1           0        0.987968   -0.845596   -1.620049
     11          1           0       -0.047223   -2.611965   -0.174918
     12          7           0        2.984217    0.788309   -0.946710
     13          8           0        2.532986    0.922567   -2.082052
     14          8           0        3.901077    1.451182   -0.466497
     15          6           0       -1.714850    2.302317    1.539648
     16          6           0       -2.524873    1.243705    1.963591
     17          6           0       -2.841790    0.198537    1.090817
     18          6           0       -2.329274    0.244211   -0.204763
     19          6           0       -1.519649    1.285095   -0.656824
     20          6           0       -1.215703    2.319603    0.233097
     21          1           0       -1.473700    3.110088    2.224300
     22          1           0       -2.913922    1.227650    2.977705
     23          1           0       -3.466606   -0.633214    1.392835
     24          1           0       -1.146643    1.273372   -1.673754
     25          1           0       -0.586391    3.140454   -0.098887
     26          7           0       -2.657914   -0.856619   -1.137807
     27          8           0       -2.193876   -0.792970   -2.274141
     28          8           0       -3.373317   -1.762255   -0.715124
 ---------------------------------------------------------------------

 SCF Done:  E(RHF) =  -868.339597530     A.U. after   16 cycles
 E2 =    -0.2602513008D+01 EUMP2 =    -0.87094211053833D+03

 The electronic state is 1-A.
 Alpha  occ. eigenvalues --  -20.61445 -20.61439 -20.60972 -20.60965 -15.86449
 Alpha  occ. eigenvalues --  -15.86010 -11.31484 -11.31178 -11.28084 -11.27960
 Alpha  occ. eigenvalues --  -11.27790 -11.27722 -11.27647 -11.27457 -11.27028
 Alpha  occ. eigenvalues --  -11.26901 -11.26762 -11.26609  -1.60523  -1.60053
 Alpha  occ. eigenvalues --   -1.40079  -1.39609  -1.19653  -1.19344  -1.09109
 Alpha  occ. eigenvalues --   -1.08782  -1.05002  -1.04712  -0.95992  -0.95643
 Alpha  occ. eigenvalues --   -0.86425  -0.86118  -0.82828  -0.82475  -0.77923
 Alpha  occ. eigenvalues --   -0.77540  -0.72668  -0.72230  -0.71867  -0.71383
 Alpha  occ. eigenvalues --   -0.70762  -0.70439  -0.65304  -0.65008  -0.64985
 Alpha  occ. eigenvalues --   -0.64688  -0.62361  -0.62012  -0.55518  -0.55227
 Alpha  occ. eigenvalues --   -0.53678  -0.53082  -0.52791  -0.52739  -0.49452
 Alpha  occ. eigenvalues --   -0.49402  -0.48995  -0.48971  -0.45541  -0.45057
 Alpha  occ. eigenvalues --   -0.37796  -0.37466  -0.36581  -0.35975
 Alpha virt. eigenvalues --    0.04512   0.04923   0.10578   0.11826   0.16032
 Alpha virt. eigenvalues --    0.16554   0.20948   0.21727   0.26552   0.27331
 Alpha virt. eigenvalues --    0.28013   0.28742   0.30815   0.30978   0.31652

 Mulliken charges:
               1
     1  C   -0.170356
     2  C   -0.219347
     3  C   -0.172108
     4  C    0.158139
     5  C   -0.176128
     6  C   -0.227210
     7  H    0.226421
     8  H    0.221772
     9  H    0.273452
    10  H    0.284598
    11  H    0.235604
    12  N    0.486931
    13  O   -0.462373
    14  O   -0.461931
    15  C   -0.169527
    16  C   -0.218596
    17  C   -0.172645
    18  C    0.159091
    19  C   -0.173881
    20  C   -0.220533
    21  H    0.227473
    22  H    0.222758
    23  H    0.272950
    24  H    0.282409
    25  H    0.231548
    26  N    0.485018
    27  O   -0.461480
    28  O   -0.462048
 Sum of Mulliken charges =  -0.00000

 Dipole moment (field-independent basis, Debye):
    X=             -1.0543    Y=              0.2885    Z=              6.2840  Tot=              6.3784
 Quadrupole moment (field-independent basis, Debye-Ang):
   XX=           -118.6616   YY=           -100.4381   ZZ=           -102.0432
   XY=            -15.0496   XZ=             -0.1603   YZ=             -1.1636

 Normal termination of Gaussian 16 at Thu May  6 14:34:50 2021.
