 Gaussian 16, Revision A.03,
 Gaussian 16:  EM64L-G16RevA.03 25-Dec-2016

 -------------
 #p 6-31g* mp2
 -------------

 ------------------------------------------------------
 Input file generated by CHIRIPA (05-May-2021 14:57:22)
 ------------------------------------------------------
 Symbolic Z-matrix:
 Charge =  0 Multiplicity = 1

                         Standard orientation:
 ---------------------------------------------------------------------
 Center     Atomic      Atomic             Coordinates (Angstroms)
 Number     Number       Type             X           Y           Z
 ---------------------------------------------------------------------
      1          6           0        2.100312    0.010602    2.203570
      2          6           0        3.142702    0.933994    2.072068
      3          6           0        3.948060    0.937630    0.929294
      4          6           0        3.681725   -0.000364   -0.066960
      5          6           0        2.650687   -0.933056    0.034715
      6          6           0        1.858059   -0.918338    1.186267
      7          1           0        1.479635    0.014906    3.094713
      8          1           0        3.333149    1.656574    2.860518
      9          1           0        4.761680    1.641288    0.801598
     10          1           0        2.485178   -1.641208   -0.768120
     11          1           0        1.049221   -1.636630    1.285679
     12          7           0        4.527583   -0.006230   -1.281410
     13          8           0        4.272394   -0.842864   -2.144867
     14          8           0        5.429740    0.825917   -1.346842
     15          6           0       -4.130574    2.431378   -0.457775
     16          6           0       -5.095067    1.442500   -0.677766
     17          6           0       -4.780298    0.091864   -0.500993
     18          6           0       -3.485446   -0.235717   -0.101817
     19          6           0       -2.502551    0.726392    0.125233
     20          6           0       -2.839670    2.070803   -0.057684
     21          1           0       -4.383775    3.478166   -0.597483
     22          1           0       -6.098404    1.719599   -0.988534
     23          1           0       -5.507611   -0.694104   -0.664360
     24          1           0       -1.510845    0.419304    0.434482
     25          1           0       -2.088601    2.836638    0.113892
     26          7           0       -3.140384   -1.662280    0.088576
     27          8           0       -1.992467   -1.924823    0.440706
     28          8           0       -4.024374   -2.490866   -0.117930
 ---------------------------------------------------------------------

 SCF Done:  E(RHF) =  -868.339756240     A.U. after   16 cycles
 E2 =    -0.2598884293D+01 EUMP2 =    -0.87093864053300D+03

 The electronic state is 1-A.
 Alpha  occ. eigenvalues --  -20.61506 -20.61445 -20.60627 -20.60614 -15.86529
 Alpha  occ. eigenvalues --  -15.85671 -11.31696 -11.31011 -11.28257 -11.28224
 Alpha  occ. eigenvalues --  -11.27939 -11.27602 -11.27477 -11.27291 -11.27216
 Alpha  occ. eigenvalues --  -11.27197 -11.26635 -11.26389  -1.60540  -1.59700
 Alpha  occ. eigenvalues --   -1.40106  -1.39253  -1.19849  -1.19170  -1.09276
 Alpha  occ. eigenvalues --   -1.08573  -1.05224  -1.04536  -0.96146  -0.95413
 Alpha  occ. eigenvalues --   -0.86632  -0.85931  -0.82993  -0.82219  -0.78066
 Alpha  occ. eigenvalues --   -0.77266  -0.72764  -0.71888  -0.71849  -0.71025
 Alpha  occ. eigenvalues --   -0.70955  -0.70272  -0.65510  -0.65225  -0.64802
 Alpha  occ. eigenvalues --   -0.64477  -0.62578  -0.61842  -0.55725  -0.55050
 Alpha  occ. eigenvalues --   -0.53562  -0.53323  -0.52905  -0.52574  -0.49516
 Alpha  occ. eigenvalues --   -0.49472  -0.48648  -0.48640  -0.45554  -0.44663
 Alpha  occ. eigenvalues --   -0.37814  -0.37186  -0.36820  -0.36151
 Alpha virt. eigenvalues --    0.04468   0.05221   0.10836   0.11395   0.16006
 Alpha virt. eigenvalues --    0.16715   0.20781   0.21828   0.26544   0.27237
 Alpha virt. eigenvalues --    0.28343   0.28642   0.30488   0.31317   0.31921

 Mulliken charges:
               1
     1  C   -0.177167
     2  C   -0.219451
     3  C   -0.172862
     4  C    0.158046
     5  C   -0.173519
     6  C   -0.229271
     7  H    0.225955
     8  H    0.221310
     9  H    0.274158
    10  H    0.279458
    11  H    0.247486
    12  N    0.487895
    13  O   -0.459101
    14  O   -0.462060
    15  C   -0.169967
    16  C   -0.218424
    17  C   -0.170336
    18  C    0.158383
    19  C   -0.171858
    20  C   -0.218716
    21  H    0.227522
    22  H    0.225285
    23  H    0.276615
    24  H    0.272224
    25  H    0.224919
    26  N    0.492415
    27  O   -0.473226
    28  O   -0.455713
 Sum of Mulliken charges =  -0.00000

 Dipole moment (field-independent basis, Debye):
    X=             -4.4619    Y=              4.9703    Z=              3.5411  Tot=              7.5599
 Quadrupole moment (field-independent basis, Debye-Ang):
   XX=           -112.7954   YY=           -104.5098   ZZ=           -105.7411
   XY=            -14.1019   XZ=             21.1291   YZ=              1.4896

 Normal termination of Gaussian 16 at Thu May  6 16:14:03 2021.
