 Gaussian 16, Revision A.03,
 Gaussian 16:  EM64L-G16RevA.03 25-Dec-2016

 -------------
 #p 6-31g* mp2
 -------------

 ------------------------------------------------------
 Input file generated by CHIRIPA (05-May-2021 14:53:16)
 ------------------------------------------------------
 Symbolic Z-matrix:
 Charge =  0 Multiplicity = 1

                         Standard orientation:
 ---------------------------------------------------------------------
 Center     Atomic      Atomic             Coordinates (Angstroms)
 Number     Number       Type             X           Y           Z
 ---------------------------------------------------------------------
      1          6           0       -3.358963   -0.612837   -0.093155
      2          6           0       -3.762497   -1.496445   -1.273995
      3          6           0       -3.666913   -2.988813   -0.955410
      4          1           0       -2.331547   -0.860017    0.207286
      5          1           0       -4.001101   -0.846903    0.767233
      6          1           0       -3.120699   -1.259808   -2.132316
      7          1           0       -4.789003   -1.247000   -1.571782
      8          1           0       -4.320320   -3.246045   -0.115475
      9          1           0       -2.642537   -3.258926   -0.679194
     10          1           0       -3.959867   -3.602034   -1.813314
     11          6           0       -3.449306    0.881731   -0.396193
     12          6           0       -3.045773    1.765338    0.784647
     13          6           0       -3.141357    3.257706    0.466062
     14          1           0       -2.807168    1.115796   -1.256580
     15          1           0       -4.476722    1.128910   -0.696634
     16          1           0       -2.019266    1.515893    1.082434
     17          1           0       -3.687570    1.528701    1.642968
     18          1           0       -4.165732    3.527819    0.189846
     19          1           0       -2.487949    3.514938   -0.373873
     20          1           0       -2.848402    3.870927    1.323966
     21          6           0        1.226460   -1.204007    1.953150
     22          6           0        0.909815    0.078427    1.493130
     23          6           0        1.696753    0.697038    0.517118
     24          6           0        2.798019    0.001208    0.020808
     25          6           0        3.139348   -1.277411    0.458894
     26          6           0        2.338255   -1.876647    1.435476
     27          1           0        0.609649   -1.677033    2.711561
     28          1           0        0.046976    0.603182    1.893362
     29          1           0        1.474425    1.689063    0.143123
     30          1           0        4.005749   -1.775503    0.040956
     31          1           0        2.586556   -2.872686    1.790862
     32          7           0        3.638608    0.645848   -1.012755
     33          8           0        4.603523    0.011707   -1.433992
     34          8           0        3.316629    1.773051   -1.382051
 ---------------------------------------------------------------------

 SCF Done:  E(RHF) =  -669.535682109     A.U. after   15 cycles
 E2 =    -0.2091633522D+01 EUMP2 =    -0.67162731563157D+03

 The electronic state is 1-A.
 Alpha  occ. eigenvalues --  -20.60796 -20.60791 -15.85850 -11.31227 -11.27802
 Alpha  occ. eigenvalues --  -11.27798 -11.27543 -11.26809 -11.26793 -11.22404
 Alpha  occ. eigenvalues --  -11.22018 -11.21957 -11.21897 -11.21651 -11.21477
 Alpha  occ. eigenvalues --   -1.59871  -1.39424  -1.19403  -1.09001  -1.08792
 Alpha  occ. eigenvalues --   -1.04808  -1.04084  -0.96505  -0.95625  -0.87523
 Alpha  occ. eigenvalues --   -0.86203  -0.82460  -0.80169  -0.78822  -0.77501
 Alpha  occ. eigenvalues --   -0.72067  -0.71195  -0.70503  -0.65673  -0.65053
 Alpha  occ. eigenvalues --   -0.64787  -0.62189  -0.61448  -0.59882  -0.58126
 Alpha  occ. eigenvalues --   -0.55783  -0.55301  -0.53220  -0.53130  -0.52962
 Alpha  occ. eigenvalues --   -0.52871  -0.50443  -0.48835  -0.48822  -0.48463
 Alpha  occ. eigenvalues --   -0.47199  -0.46349  -0.46255  -0.44827  -0.44330
 Alpha  occ. eigenvalues --   -0.37376  -0.36401
 Alpha virt. eigenvalues --    0.05027   0.11141   0.16452   0.19826   0.22755
 Alpha virt. eigenvalues --    0.23706   0.25100   0.26530   0.27452   0.28144
 Alpha virt. eigenvalues --    0.28877   0.29978   0.31176   0.31447   0.32215

 Mulliken charges:
               1
     1  C   -0.300367
     2  C   -0.300025
     3  C   -0.476101
     4  H    0.147343
     5  H    0.148268
     6  H    0.155035
     7  H    0.153355
     8  H    0.154295
     9  H    0.154187
    10  H    0.162511
    11  C   -0.298357
    12  C   -0.303855
    13  C   -0.476406
    14  H    0.153125
    15  H    0.152641
    16  H    0.142462
    17  H    0.153033
    18  H    0.158804
    19  H    0.158220
    20  H    0.160264
    21  C   -0.172351
    22  C   -0.223344
    23  C   -0.173057
    24  C    0.158472
    25  C   -0.170739
    26  C   -0.218640
    27  H    0.226847
    28  H    0.231826
    29  H    0.275607
    30  H    0.275823
    31  H    0.223693
    32  N    0.488128
    33  O   -0.460340
    34  O   -0.460358
 Sum of Mulliken charges =  -0.00000

 Dipole moment (field-independent basis, Debye):
    X=             -3.0537    Y=             -2.2629    Z=              3.5594  Tot=              5.2072
 Quadrupole moment (field-independent basis, Debye-Ang):
   XX=           -108.7018   YY=            -92.7505   ZZ=            -95.1997
   XY=             -9.3661   XZ=             10.0693   YZ=              0.0383

 Normal termination of Gaussian 16 at Thu May  6 02:46:43 2021.
