 Gaussian 16, Revision A.03,
 Gaussian 16:  EM64L-G16RevA.03 25-Dec-2016

 -------------
 #p 6-31g* mp2
 -------------

 ------------------------------------------------------
 Input file generated by CHIRIPA (05-May-2021 14:51:13)
 ------------------------------------------------------
 Symbolic Z-matrix:
 Charge =  0 Multiplicity = 1

                         Standard orientation:
 ---------------------------------------------------------------------
 Center     Atomic      Atomic             Coordinates (Angstroms)
 Number     Number       Type             X           Y           Z
 ---------------------------------------------------------------------
      1          6           0       -3.578143   -0.083366   -0.182907
      2          6           0       -4.965938   -0.257314    0.434955
      3          6           0       -5.893155    0.924055    0.147850
      4          1           0       -3.126003    0.841263    0.201249
      5          1           0       -3.681714    0.047143   -1.269017
      6          1           0       -4.859684   -0.388840    1.519403
      7          1           0       -5.414749   -1.181736    0.049431
      8          1           0       -6.028740    1.054109   -0.930716
      9          1           0       -5.470520    1.851511    0.547608
     10          1           0       -6.879803    0.778842    0.598738
     11          6           0       -2.639749   -1.256262    0.095408
     12          6           0       -1.251954   -1.082314   -0.522454
     13          6           0       -0.324737   -2.263683   -0.235349
     14          1           0       -2.536178   -1.386771    1.181518
     15          1           0       -3.091889   -2.180891   -0.288748
     16          1           0       -0.803143   -0.157892   -0.136930
     17          1           0       -1.358209   -0.950788   -1.606902
     18          1           0       -0.747372   -3.191138   -0.635107
     19          1           0       -0.189153   -2.393737    0.843217
     20          1           0        0.661910   -2.118470   -0.686237
     21          6           0        3.558660    0.184803    0.425789
     22          6           0        3.901938   -1.076584   -0.367336
     23          6           0        4.802257   -2.037088    0.410258
     24          1           0        4.488525    0.697957    0.706803
     25          1           0        3.064906   -0.103515    1.364126
     26          1           0        4.393655   -0.785910   -1.304533
     27          1           0        2.971141   -1.586692   -0.646657
     28          1           0        4.315567   -2.355649    1.337757
     29          1           0        5.746164   -1.550316    0.676143
     30          1           0        5.035170   -2.931911   -0.175321
     31          6           0        2.659233    1.154825   -0.338291
     32          6           0        2.315953    2.416212    0.454835
     33          6           0        1.415635    3.376716   -0.322759
     34          1           0        3.152986    1.443144   -1.276627
     35          1           0        1.729367    0.641672   -0.619304
     36          1           0        3.246752    2.926320    0.734157
     37          1           0        1.824238    2.125537    1.392032
     38          1           0        0.471729    2.889945   -0.588643
     39          1           0        1.902325    3.695277   -1.250257
     40          1           0        1.182723    4.271539    0.262820
 ---------------------------------------------------------------------

 SCF Done:  E(RHF) =  -470.733155843     A.U. after   11 cycles
 E2 =    -0.1583616100D+01 EUMP2 =    -0.47231677194318D+03

 The electronic state is 1-A.
 Alpha  occ. eigenvalues --  -11.21693 -11.21633 -11.21601 -11.21573 -11.21461
 Alpha  occ. eigenvalues --  -11.21398 -11.21380 -11.21320 -11.21150 -11.21091
 Alpha  occ. eigenvalues --  -11.21072 -11.21046  -1.08493  -1.08410  -1.03591
 Alpha  occ. eigenvalues --   -1.03518  -0.96040  -0.95962  -0.87063  -0.86974
 Alpha  occ. eigenvalues --   -0.79687  -0.79552  -0.78319  -0.78214  -0.65197
 Alpha  occ. eigenvalues --   -0.65000  -0.60999  -0.60922  -0.59436  -0.59303
 Alpha  occ. eigenvalues --   -0.57658  -0.57571  -0.55338  -0.55230  -0.52791
 Alpha  occ. eigenvalues --   -0.52641  -0.52465  -0.52380  -0.49996  -0.49888
 Alpha  occ. eigenvalues --   -0.48073  -0.47819  -0.46752  -0.46563  -0.45918
 Alpha  occ. eigenvalues --   -0.45793  -0.45735  -0.45546  -0.43811  -0.43759
 Alpha virt. eigenvalues --    0.19914   0.22934   0.23390   0.24522   0.25924
 Alpha virt. eigenvalues --    0.26587   0.27166   0.27173   0.28291   0.29358
 Alpha virt. eigenvalues --    0.29734   0.31439   0.31718   0.31964   0.32436

 Mulliken charges:
               1
     1  C   -0.298410
     2  C   -0.299683
     3  C   -0.475770
     4  H    0.149612
     5  H    0.149757
     6  H    0.151979
     7  H    0.152040
     8  H    0.155289
     9  H    0.155337
    10  H    0.160363
    11  C   -0.298494
    12  C   -0.302307
    13  C   -0.483909
    14  H    0.149615
    15  H    0.150062
    16  H    0.153776
    17  H    0.152528
    18  H    0.156073
    19  H    0.155157
    20  H    0.167415
    21  C   -0.297373
    22  C   -0.307147
    23  C   -0.475174
    24  H    0.149620
    25  H    0.149449
    26  H    0.151822
    27  H    0.158384
    28  H    0.155377
    29  H    0.155052
    30  H    0.160165
    31  C   -0.304908
    32  C   -0.299331
    33  C   -0.476521
    34  H    0.149432
    35  H    0.156220
    36  H    0.152069
    37  H    0.151301
    38  H    0.155609
    39  H    0.155406
    40  H    0.160118
 Sum of Mulliken charges =  -0.00000

 Dipole moment (field-independent basis, Debye):
    X=             -0.0276    Y=             -0.0179    Z=             -0.0109  Tot=              0.0346
 Quadrupole moment (field-independent basis, Debye-Ang):
   XX=            -85.0363   YY=            -85.5839   ZZ=            -84.0980
   XY=              1.6700   XZ=             -0.4116   YZ=              0.6665

 Normal termination of Gaussian 16 at Thu May  6 07:09:54 2021.
