 Gaussian 16, Revision A.03,
 Gaussian 16:  EM64L-G16RevA.03 25-Dec-2016

 -------------
 #p 6-31g* mp2
 -------------

 ------------------------------------------------------
 Input file generated by CHIRIPA (05-May-2021 14:55:25)
 ------------------------------------------------------
 Symbolic Z-matrix:
 Charge =  0 Multiplicity = 1

                         Standard orientation:
 ---------------------------------------------------------------------
 Center     Atomic      Atomic             Coordinates (Angstroms)
 Number     Number       Type             X           Y           Z
 ---------------------------------------------------------------------
      1          6           0        2.087182   -1.476263    2.081758
      2          6           0        3.135915   -1.928280    1.274070
      3          6           0        3.481982   -1.238957    0.108043
      4          6           0        2.754881   -0.096203   -0.221696
      5          6           0        1.704910    0.379214    0.562415
      6          6           0        1.376280   -0.325986    1.723984
      7          1           0        1.825122   -2.017913    2.985825
      8          1           0        3.689751   -2.821295    1.549451
      9          1           0        4.289383   -1.566780   -0.535427
     10          1           0        1.171152    1.272628    0.261860
     11          1           0        0.561349    0.027374    2.349339
     12          7           0        3.112016    0.641957   -1.453757
     13          8           0        2.455961    1.646014   -1.722271
     14          8           0        4.041232    0.202494   -2.127602
     15          6           0       -3.063748    0.551502    0.623195
     16          6           0       -2.533269    1.969387    0.408299
     17          6           0       -1.760948    2.500984    1.616074
     18          1           0       -3.713008    0.540140    1.509354
     19          1           0       -2.221126   -0.118140    0.844466
     20          1           0       -3.376494    2.635893    0.186136
     21          1           0       -1.885350    1.977416   -0.477563
     22          1           0       -0.901507    1.859597    1.836492
     23          1           0       -2.401124    2.521817    2.503961
     24          1           0       -1.390745    3.515927    1.440857
     25          6           0       -3.838064    0.006220   -0.575484
     26          6           0       -4.368544   -1.411665   -0.360588
     27          6           0       -5.140864   -1.943262   -1.568362
     28          1           0       -4.680687    0.675864   -0.796754
     29          1           0       -3.188805    0.017582   -1.461642
     30          1           0       -5.016463   -1.419693    0.525274
     31          1           0       -3.525318   -2.078171   -0.138424
     32          1           0       -4.500690   -1.964094   -2.456249
     33          1           0       -6.000306   -1.301875   -1.788781
     34          1           0       -5.511067   -2.958204   -1.393146
 ---------------------------------------------------------------------

 SCF Done:  E(RHF) =  -669.535378546     A.U. after   15 cycles
 E2 =    -0.2091963812D+01 EUMP2 =    -0.67162734235819D+03

 The electronic state is 1-A.
 Alpha  occ. eigenvalues --  -20.60777 -20.60772 -15.85830 -11.31191 -11.27769
 Alpha  occ. eigenvalues --  -11.27750 -11.27509 -11.26780 -11.26757 -11.22102
 Alpha  occ. eigenvalues --  -11.21885 -11.21875 -11.21868 -11.21664 -11.21249
 Alpha  occ. eigenvalues --   -1.59852  -1.39406  -1.19368  -1.08842  -1.08762
 Alpha  occ. eigenvalues --   -1.04779  -1.03962  -0.96432  -0.95597  -0.87448
 Alpha  occ. eigenvalues --   -0.86169  -0.82439  -0.80023  -0.78634  -0.77482
 Alpha  occ. eigenvalues --   -0.72049  -0.71176  -0.70480  -0.65497  -0.65017
 Alpha  occ. eigenvalues --   -0.64783  -0.62261  -0.61247  -0.59788  -0.58019
 Alpha  occ. eigenvalues --   -0.55760  -0.55243  -0.53120  -0.53089  -0.52956
 Alpha  occ. eigenvalues --   -0.52768  -0.50381  -0.48809  -0.48803  -0.48330
 Alpha  occ. eigenvalues --   -0.47046  -0.46176  -0.46080  -0.44812  -0.44194
 Alpha  occ. eigenvalues --   -0.37348  -0.36371
 Alpha virt. eigenvalues --    0.05043   0.11260   0.16469   0.19262   0.22821
 Alpha virt. eigenvalues --    0.23769   0.25372   0.26479   0.27202   0.28128
 Alpha virt. eigenvalues --    0.29361   0.29430   0.31296   0.31481   0.32129

 Mulliken charges:
               1
     1  C   -0.170652
     2  C   -0.218804
     3  C   -0.170551
     4  C    0.158650
     5  C   -0.174787
     6  C   -0.224433
     7  H    0.226057
     8  H    0.223517
     9  H    0.275623
    10  H    0.279176
    11  H    0.228872
    12  N    0.488250
    13  O   -0.460690
    14  O   -0.460426
    15  C   -0.299244
    16  C   -0.303128
    17  C   -0.480803
    18  H    0.149332
    19  H    0.144752
    20  H    0.156515
    21  H    0.158302
    22  H    0.143204
    23  H    0.158071
    24  H    0.167561
    25  C   -0.299089
    26  C   -0.299894
    27  C   -0.476112
    28  H    0.151216
    29  H    0.153706
    30  H    0.151160
    31  H    0.151103
    32  H    0.157198
    33  H    0.155978
    34  H    0.160369
 Sum of Mulliken charges =  -0.00000

 Dipole moment (field-independent basis, Debye):
    X=             -1.3844    Y=             -2.5512    Z=              4.2563  Tot=              5.1518
 Quadrupole moment (field-independent basis, Debye-Ang):
   XX=            -98.5564   YY=            -92.2945   ZZ=            -97.6979
   XY=            -10.8396   XZ=             10.9506   YZ=              0.5014

 Normal termination of Gaussian 16 at Thu May  6 20:56:29 2021.
