 Gaussian 16, Revision A.03,
 Gaussian 16:  EM64L-G16RevA.03 25-Dec-2016

 -------------
 #p 6-31g* mp2
 -------------

 ------------------------------------------------------
 Input file generated by CHIRIPA (05-May-2021 14:51:12)
 ------------------------------------------------------
 Symbolic Z-matrix:
 Charge =  0 Multiplicity = 1

                         Standard orientation:
 ---------------------------------------------------------------------
 Center     Atomic      Atomic             Coordinates (Angstroms)
 Number     Number       Type             X           Y           Z
 ---------------------------------------------------------------------
      1          6           0        3.358561   -0.225560    0.248817
      2          6           0        4.603830   -0.191641   -0.637827
      3          6           0        5.548606    0.958006   -0.286394
      4          1           0        2.824990    0.730416    0.157401
      5          1           0        3.667503   -0.311831    1.299772
      6          1           0        4.292593   -0.106852   -1.686902
      7          1           0        5.134396   -1.147880   -0.544437
      8          1           0        5.887508    0.874638    0.751294
      9          1           0        5.040922    1.921581   -0.397663
     10          1           0        6.432053    0.963408   -0.932422
     11          6           0        2.404371   -1.369337   -0.090331
     12          6           0        1.159101   -1.403257    0.796313
     13          6           0        0.214325   -2.552903    0.444880
     14          1           0        2.095428   -1.283066   -1.141286
     15          1           0        2.937942   -2.325313    0.001085
     16          1           0        0.628535   -0.447017    0.702923
     17          1           0        1.470338   -1.488045    1.845388
     18          1           0        0.722010   -3.516479    0.556149
     19          1           0       -0.124576   -2.469535   -0.592808
     20          1           0       -0.669122   -2.558305    1.090908
     21          6           0       -2.228514    1.138238   -0.281599
     22          6           0       -1.931240    2.404788    0.521810
     23          6           0       -0.621676    3.075209    0.105432
     24          1           0       -1.397363    0.430358   -0.158963
     25          1           0       -2.268573    1.391180   -1.350155
     26          1           0       -1.893125    2.149783    1.588644
     27          1           0       -2.763282    3.109659    0.397400
     28          1           0       -0.652672    3.357692   -0.951849
     29          1           0        0.222431    2.392363    0.246164
     30          1           0       -0.428776    3.978577    0.692439
     31          6           0       -3.534418    0.456659    0.123113
     32          6           0       -3.831692   -0.809891   -0.680296
     33          6           0       -5.141255   -1.480313   -0.263918
     34          1           0       -3.494359    0.203717    1.191669
     35          1           0       -4.365567    1.164539    0.000477
     36          1           0       -2.999648   -1.514762   -0.555887
     37          1           0       -3.869807   -0.554886   -1.747131
     38          1           0       -5.985362   -0.797465   -0.404649
     39          1           0       -5.110260   -1.762796    0.793363
     40          1           0       -5.334155   -2.383680   -0.850925
 ---------------------------------------------------------------------

 SCF Done:  E(RHF) =  -470.733215350     A.U. after   11 cycles
 E2 =    -0.1584004790D+01 EUMP2 =    -0.47231722013974D+03

 The electronic state is 1-A.
 Alpha  occ. eigenvalues --  -11.21674 -11.21619 -11.21617 -11.21557 -11.21449
 Alpha  occ. eigenvalues --  -11.21389 -11.21388 -11.21328 -11.21167 -11.21119
 Alpha  occ. eigenvalues --  -11.21074 -11.21046  -1.08491  -1.08413  -1.03584
 Alpha  occ. eigenvalues --   -1.03527  -0.96036  -0.95974  -0.87051  -0.86992
 Alpha  occ. eigenvalues --   -0.79682  -0.79557  -0.78334  -0.78200  -0.65300
 Alpha  occ. eigenvalues --   -0.64901  -0.61029  -0.60880  -0.59397  -0.59347
 Alpha  occ. eigenvalues --   -0.57662  -0.57571  -0.55390  -0.55198  -0.52738
 Alpha  occ. eigenvalues --   -0.52665  -0.52455  -0.52402  -0.50042  -0.49862
 Alpha  occ. eigenvalues --   -0.48029  -0.47890  -0.46888  -0.46487  -0.46042
 Alpha  occ. eigenvalues --   -0.45776  -0.45741  -0.45317  -0.43829  -0.43778
 Alpha virt. eigenvalues --    0.19531   0.22134   0.23617   0.24297   0.25651
 Alpha virt. eigenvalues --    0.26561   0.26934   0.27428   0.28690   0.29936
 Alpha virt. eigenvalues --    0.30767   0.31479   0.31764   0.31919   0.32156

 Mulliken charges:
               1
     1  C   -0.300740
     2  C   -0.299657
     3  C   -0.475863
     4  H    0.151502
     5  H    0.149680
     6  H    0.152210
     7  H    0.152021
     8  H    0.155148
     9  H    0.155637
    10  H    0.160323
    11  C   -0.297831
    12  C   -0.308353
    13  C   -0.477832
    14  H    0.150029
    15  H    0.149993
    16  H    0.158287
    17  H    0.152518
    18  H    0.155990
    19  H    0.156913
    20  H    0.160661
    21  C   -0.307587
    22  C   -0.299083
    23  C   -0.479542
    24  H    0.158657
    25  H    0.149207
    26  H    0.152097
    27  H    0.152252
    28  H    0.155264
    29  H    0.157006
    30  H    0.160784
    31  C   -0.297237
    32  C   -0.303720
    33  C   -0.475526
    34  H    0.149161
    35  H    0.149571
    36  H    0.156374
    37  H    0.151455
    38  H    0.155012
    39  H    0.154951
    40  H    0.160267
 Sum of Mulliken charges =  -0.00000

 Dipole moment (field-independent basis, Debye):
    X=              0.0316    Y=             -0.0208    Z=             -0.0016  Tot=              0.0379
 Quadrupole moment (field-independent basis, Debye-Ang):
   XX=            -85.7821   YY=            -85.0320   ZZ=            -83.9154
   XY=             -1.7587   XZ=              0.7284   YZ=             -0.7836

 Normal termination of Gaussian 16 at Thu May  6 05:29:48 2021.
