 Gaussian 16, Revision A.03,
 Gaussian 16:  EM64L-G16RevA.03 25-Dec-2016

 -------------
 #p 6-31g* mp2
 -------------

 ------------------------------------------------------
 Input file generated by CHIRIPA (05-May-2021 14:53:13)
 ------------------------------------------------------
 Symbolic Z-matrix:
 Charge =  0 Multiplicity = 1

                         Standard orientation:
 ---------------------------------------------------------------------
 Center     Atomic      Atomic             Coordinates (Angstroms)
 Number     Number       Type             X           Y           Z
 ---------------------------------------------------------------------
      1          6           0       -3.177001   -0.557232   -0.362621
      2          6           0       -4.060540   -1.786074   -0.580084
      3          6           0       -3.255542   -3.039419   -0.924902
      4          1           0       -2.583111   -0.375515   -1.268832
      5          1           0       -2.460638   -0.767377    0.443642
      6          1           0       -4.775936   -1.573183   -1.384759
      7          1           0       -4.652536   -1.964774    0.326681
      8          1           0       -2.552884   -3.279416   -0.120368
      9          1           0       -2.676985   -2.885599   -1.841533
     10          1           0       -3.906859   -3.905881   -1.076193
     11          6           0       -3.967279    0.703653   -0.017139
     12          6           0       -3.083739    1.932495    0.200324
     13          6           0       -3.888738    3.185839    0.545142
     14          1           0       -4.683641    0.913797   -0.823402
     15          1           0       -4.561168    0.521935    0.889072
     16          1           0       -2.491743    2.111195   -0.706441
     17          1           0       -2.368343    1.719603    1.005000
     18          1           0       -4.467295    3.032020    1.461773
     19          1           0       -4.591396    3.425836   -0.259392
     20          1           0       -3.237421    4.052301    0.696434
     21          6           0        4.908943    0.777756   -0.938841
     22          6           0        3.689395    1.408505   -1.206006
     23          6           0        2.509465    0.954418   -0.609249
     24          6           0        2.585953   -0.137915    0.253448
     25          6           0        3.785738   -0.787470    0.539608
     26          6           0        4.953144   -0.316291   -0.068422
     27          1           0        5.820677    1.137141   -1.406795
     28          1           0        3.652066    2.258370   -1.881567
     29          1           0        1.551848    1.424085   -0.798453
     30          1           0        3.791324   -1.632408    1.217448
     31          1           0        5.898848   -0.808093    0.140910
     32          7           0        1.343444   -0.627684    0.891175
     33          8           0        1.437529   -1.591931    1.647493
     34          8           0        0.299006   -0.038047    0.622632
 ---------------------------------------------------------------------

 SCF Done:  E(RHF) =  -669.536094871     A.U. after   15 cycles
 E2 =    -0.2091566355D+01 EUMP2 =    -0.67162766122671D+03

 The electronic state is 1-A.
 Alpha  occ. eigenvalues --  -20.60983 -20.60963 -15.85999 -11.31306 -11.27868
 Alpha  occ. eigenvalues --  -11.27862 -11.27604 -11.26872 -11.26862 -11.20484
 Alpha  occ. eigenvalues --  -11.20451 -11.20278 -11.20237 -11.20007 -11.19817
 Alpha  occ. eigenvalues --   -1.60035  -1.39590  -1.19474  -1.08882  -1.07212
 Alpha  occ. eigenvalues --   -1.04867  -1.02453  -0.95727  -0.94904  -0.86268
 Alpha  occ. eigenvalues --   -0.85926  -0.82562  -0.78501  -0.77628  -0.76955
 Alpha  occ. eigenvalues --   -0.72214  -0.71344  -0.70582  -0.65130  -0.64871
 Alpha  occ. eigenvalues --   -0.63847  -0.62214  -0.59861  -0.58284  -0.56509
 Alpha  occ. eigenvalues --   -0.55374  -0.54198  -0.53201  -0.52959  -0.51658
 Alpha  occ. eigenvalues --   -0.51332  -0.49058  -0.48983  -0.48802  -0.46830
 Alpha  occ. eigenvalues --   -0.45540  -0.45022  -0.44534  -0.44293  -0.42655
 Alpha  occ. eigenvalues --   -0.37452  -0.36468
 Alpha virt. eigenvalues --    0.04905   0.11188   0.16399   0.21269   0.23978
 Alpha virt. eigenvalues --    0.25274   0.27067   0.27672   0.28031   0.28860
 Alpha virt. eigenvalues --    0.29183   0.30991   0.32179   0.32523   0.32705

 Mulliken charges:
               1
     1  C   -0.303471
     2  C   -0.298890
     3  C   -0.475326
     4  H    0.143927
     5  H    0.177252
     6  H    0.145635
     7  H    0.149316
     8  H    0.162008
     9  H    0.151209
    10  H    0.154853
    11  C   -0.298085
    12  C   -0.299525
    13  C   -0.475073
    14  H    0.142866
    15  H    0.146877
    16  H    0.145291
    17  H    0.165932
    18  H    0.154063
    19  H    0.151417
    20  H    0.155381
    21  C   -0.170535
    22  C   -0.218585
    23  C   -0.170936
    24  C    0.157649
    25  C   -0.170518
    26  C   -0.218619
    27  H    0.226042
    28  H    0.223913
    29  H    0.276287
    30  H    0.275832
    31  H    0.223840
    32  N    0.491292
    33  O   -0.459735
    34  O   -0.461584
 Sum of Mulliken charges =  -0.00000

 Dipole moment (field-independent basis, Debye):
    X=              4.7495    Y=              1.6552    Z=             -2.0825  Tot=              5.4437
 Quadrupole moment (field-independent basis, Debye-Ang):
   XX=            -72.8283   YY=            -94.7941   ZZ=            -94.6659
   XY=              2.4119   XZ=             -3.8232   YZ=             -1.9782

 Normal termination of Gaussian 16 at Thu May  6 05:45:31 2021.
