 Gaussian 16, Revision A.03,
 Gaussian 16:  EM64L-G16RevA.03 25-Dec-2016

 -------------
 #p 6-31g* mp2
 -------------

 ------------------------------------------------------
 Input file generated by CHIRIPA (05-May-2021 14:57:26)
 ------------------------------------------------------
 Symbolic Z-matrix:
 Charge =  0 Multiplicity = 1

                         Standard orientation:
 ---------------------------------------------------------------------
 Center     Atomic      Atomic             Coordinates (Angstroms)
 Number     Number       Type             X           Y           Z
 ---------------------------------------------------------------------
      1          6           0       -4.624262    2.104955    0.627795
      2          6           0       -5.280952    1.314712   -0.321307
      3          6           0       -4.720291    0.108287   -0.751128
      4          6           0       -3.496093   -0.279200   -0.208466
      5          6           0       -2.817428    0.486186    0.738577
      6          6           0       -3.396760    1.688903    1.153781
      7          1           0       -5.067049    3.040695    0.956013
      8          1           0       -6.234358    1.635323   -0.731516
      9          1           0       -5.207159   -0.522862   -1.484632
     10          1           0       -1.868202    0.140237    1.129355
     11          1           0       -2.884510    2.300585    1.890998
     12          7           0       -2.892664   -1.554425   -0.655761
     13          8           0       -1.813150   -1.873557   -0.162361
     14          8           0       -3.510635   -2.210668   -1.491281
     15          6           0        5.375321    1.225355   -1.229522
     16          6           0        5.651193    0.000281   -0.613400
     17          6           0        4.672673   -0.649384    0.144875
     18          6           0        3.423484   -0.042763    0.266638
     19          6           0        3.118117    1.177066   -0.335076
     20          6           0        4.111890    1.808809   -1.088643
     21          1           0        6.141383    1.723071   -1.816740
     22          1           0        6.631502   -0.455178   -0.721089
     23          1           0        4.859325   -1.598453    0.632571
     24          1           0        2.131543    1.606421   -0.209601
     25          1           0        3.894823    2.760150   -1.566009
     26          7           0        2.379494   -0.721048    1.066898
     27          8           0        1.286853   -0.165786    1.158868
     28          8           0        2.673624   -1.795105    1.587018
 ---------------------------------------------------------------------

 SCF Done:  E(RHF) =  -868.337882991     A.U. after   16 cycles
 E2 =    -0.2599363374D+01 EUMP2 =    -0.87093724636542D+03

 The electronic state is 1-A.
 Alpha  occ. eigenvalues --  -20.60589 -20.60574 -20.59873 -20.59802 -15.85642
 Alpha  occ. eigenvalues --  -15.84893 -11.31048 -11.30367 -11.27648 -11.27602
 Alpha  occ. eigenvalues --  -11.27379 -11.27045 -11.26822 -11.26812 -11.26667
 Alpha  occ. eigenvalues --  -11.26636 -11.26089 -11.25991  -1.59627  -1.58928
 Alpha  occ. eigenvalues --   -1.39191  -1.38467  -1.19221  -1.18583  -1.08606
 Alpha  occ. eigenvalues --   -1.07976  -1.04639  -1.03991  -0.95438  -0.94773
 Alpha  occ. eigenvalues --   -0.86035  -0.85387  -0.82281  -0.81590  -0.77319
 Alpha  occ. eigenvalues --   -0.76595  -0.71879  -0.71107  -0.70925  -0.70341
 Alpha  occ. eigenvalues --   -0.70266  -0.69685  -0.64885  -0.64648  -0.64229
 Alpha  occ. eigenvalues --   -0.64000  -0.61992  -0.61298  -0.55141  -0.54531
 Alpha  occ. eigenvalues --   -0.52956  -0.52739  -0.52347  -0.52072  -0.48624
 Alpha  occ. eigenvalues --   -0.48589  -0.47905  -0.47832  -0.44580  -0.43846
 Alpha  occ. eigenvalues --   -0.37201  -0.36618  -0.36242  -0.35611
 Alpha virt. eigenvalues --    0.05237   0.05911   0.11413   0.12035   0.16712
 Alpha virt. eigenvalues --    0.17352   0.21475   0.22169   0.27403   0.27928
 Alpha virt. eigenvalues --    0.28372   0.29170   0.31027   0.31663   0.32539

 Mulliken charges:
               1
     1  C   -0.171475
     2  C   -0.219834
     3  C   -0.171675
     4  C    0.155214
     5  C   -0.178077
     6  C   -0.221912
     7  H    0.222049
     8  H    0.220000
     9  H    0.273178
    10  H    0.298454
    11  H    0.222697
    12  N    0.485882
    13  O   -0.449528
    14  O   -0.467048
    15  C   -0.170893
    16  C   -0.218406
    17  C   -0.170139
    18  C    0.159744
    19  C   -0.169828
    20  C   -0.218313
    21  H    0.225072
    22  H    0.223483
    23  H    0.276594
    24  H    0.272086
    25  H    0.222087
    26  N    0.494121
    27  O   -0.467882
    28  O   -0.455651
 Sum of Mulliken charges =  -0.00000

 Dipole moment (field-independent basis, Debye):
    X=              1.8999    Y=              6.7101    Z=             -1.1240  Tot=              7.0639
 Quadrupole moment (field-independent basis, Debye-Ang):
   XX=            -61.7523   YY=           -105.8448   ZZ=           -106.3623
   XY=             -9.2770   XZ=            -10.7927   YZ=             -1.1714

 Normal termination of Gaussian 16 at Wed May  5 22:47:48 2021.
