 Gaussian 16, Revision A.03,
 Gaussian 16:  EM64L-G16RevA.03 25-Dec-2016

 -------------
 #p 6-31g* mp2
 -------------

 ------------------------------------------------------
 Input file generated by CHIRIPA (05-May-2021 14:55:22)
 ------------------------------------------------------
 Symbolic Z-matrix:
 Charge =  0 Multiplicity = 1

                         Standard orientation:
 ---------------------------------------------------------------------
 Center     Atomic      Atomic             Coordinates (Angstroms)
 Number     Number       Type             X           Y           Z
 ---------------------------------------------------------------------
      1          6           0        0.529776   -2.334154    0.359957
      2          6           0        0.466309   -1.529019   -0.782081
      3          6           0        1.445795   -0.561171   -1.023797
      4          6           0        2.479347   -0.424852   -0.098337
      5          6           0        2.570172   -1.211788    1.048735
      6          6           0        1.579654   -2.173252    1.270115
      7          1           0       -0.235397   -3.083521    0.539829
      8          1           0       -0.347886   -1.651758   -1.490647
      9          1           0        1.421007    0.075584   -1.899780
     10          1           0        3.393953   -1.066055    1.736895
     11          1           0        1.631495   -2.797121    2.157891
     12          7           0        3.522124    0.596386   -0.343466
     13          8           0        4.422426    0.696742    0.487209
     14          8           0        3.419405    1.277138   -1.361632
     15          6           0       -3.484026    0.249784    0.280319
     16          6           0       -3.596087   -0.932423   -0.682913
     17          6           0       -4.661475   -1.943039   -0.257008
     18          1           0       -3.253590   -0.125938    1.286637
     19          1           0       -4.459383    0.751058    0.349587
     20          1           0       -2.620454   -1.430484   -0.751408
     21          1           0       -3.826094   -0.553830   -1.687095
     22          1           0       -5.646027   -1.466854   -0.206922
     23          1           0       -4.433536   -2.348490    0.734081
     24          1           0       -4.724697   -2.779859   -0.959570
     25          6           0       -2.423134    1.268718   -0.132002
     26          6           0       -2.311074    2.450925    0.831230
     27          6           0       -1.245685    3.461541    0.405324
     28          1           0       -1.447777    0.767443   -0.201270
     29          1           0       -2.653570    1.644440   -1.138320
     30          1           0       -2.081066    2.072332    1.835411
     31          1           0       -3.286706    2.948986    0.899725
     32          1           0       -1.473625    3.866991   -0.585764
     33          1           0       -0.261134    2.985355    0.355239
     34          1           0       -1.182463    4.298361    1.107888
 ---------------------------------------------------------------------

 SCF Done:  E(RHF) =  -669.535125689     A.U. after   15 cycles
 E2 =    -0.2093334808D+01 EUMP2 =    -0.67162846049706D+03

 The electronic state is 1-A.
 Alpha  occ. eigenvalues --  -20.60829 -20.60824 -15.85883 -11.31286 -11.27849
 Alpha  occ. eigenvalues --  -11.27845 -11.27592 -11.26869 -11.26842 -11.22440
 Alpha  occ. eigenvalues --  -11.21923 -11.21833 -11.21781 -11.21666 -11.21069
 Alpha  occ. eigenvalues --   -1.59904  -1.39456  -1.19463  -1.08923  -1.08829
 Alpha  occ. eigenvalues --   -1.04867  -1.03978  -0.96392  -0.95675  -0.87413
 Alpha  occ. eigenvalues --   -0.86263  -0.82505  -0.80092  -0.78700  -0.77536
 Alpha  occ. eigenvalues --   -0.72099  -0.71229  -0.70555  -0.65621  -0.65109
 Alpha  occ. eigenvalues --   -0.64816  -0.62220  -0.61360  -0.59803  -0.58006
 Alpha  occ. eigenvalues --   -0.55678  -0.55356  -0.53242  -0.53115  -0.52944
 Alpha  occ. eigenvalues --   -0.52786  -0.50344  -0.48871  -0.48853  -0.48371
 Alpha  occ. eigenvalues --   -0.47133  -0.46217  -0.46113  -0.44851  -0.44212
 Alpha  occ. eigenvalues --   -0.37427  -0.36402
 Alpha virt. eigenvalues --    0.04965   0.11045   0.16397   0.20144   0.22825
 Alpha virt. eigenvalues --    0.23826   0.25511   0.26401   0.27559   0.28016
 Alpha virt. eigenvalues --    0.29006   0.30217   0.31127   0.31578   0.31663

 Mulliken charges:
               1
     1  C   -0.172651
     2  C   -0.218842
     3  C   -0.172178
     4  C    0.158318
     5  C   -0.170901
     6  C   -0.218508
     7  H    0.226533
     8  H    0.228889
     9  H    0.277057
    10  H    0.276043
    11  H    0.223931
    12  N    0.487952
    13  O   -0.460071
    14  O   -0.459805
    15  C   -0.296866
    16  C   -0.303061
    17  C   -0.475741
    18  H    0.149208
    19  H    0.152084
    20  H    0.141529
    21  H    0.154031
    22  H    0.159586
    23  H    0.153828
    24  H    0.159475
    25  C   -0.305931
    26  C   -0.299543
    27  C   -0.476268
    28  H    0.153874
    29  H    0.148558
    30  H    0.151809
    31  H    0.151809
    32  H    0.155646
    33  H    0.158169
    34  H    0.162038
 Sum of Mulliken charges =  -0.00000

 Dipole moment (field-independent basis, Debye):
    X=             -3.6414    Y=             -3.5407    Z=              0.8905  Tot=              5.1565
 Quadrupole moment (field-independent basis, Debye-Ang):
   XX=           -112.3752   YY=            -92.2676   ZZ=            -91.2765
   XY=             -9.1626   XZ=              5.2355   YZ=             -1.5060

 Normal termination of Gaussian 16 at Thu May  6 12:34:55 2021.
