 Gaussian 16, Revision A.03,
 Gaussian 16:  EM64L-G16RevA.03 25-Dec-2016

 -------------
 #p 6-31g* mp2
 -------------

 ------------------------------------------------------
 Input file generated by CHIRIPA (05-May-2021 14:53:16)
 ------------------------------------------------------
 Symbolic Z-matrix:
 Charge =  0 Multiplicity = 1

                         Standard orientation:
 ---------------------------------------------------------------------
 Center     Atomic      Atomic             Coordinates (Angstroms)
 Number     Number       Type             X           Y           Z
 ---------------------------------------------------------------------
      1          6           0       -4.477034    0.226303   -0.228146
      2          6           0       -5.905952    0.310840    0.309470
      3          6           0       -6.906244    0.789579   -0.743155
      4          1           0       -4.173677    1.213816   -0.601961
      5          1           0       -4.456886   -0.454132   -1.090699
      6          1           0       -5.923140    0.989838    1.171607
      7          1           0       -6.205874   -0.676945    0.682223
      8          1           0       -6.918585    0.108922   -1.600567
      9          1           0       -6.634244    1.785175   -1.108402
     10          1           0       -7.921371    0.842669   -0.337497
     11          6           0       -3.465482   -0.250816    0.812454
     12          6           0       -2.036564   -0.335353    0.274839
     13          6           0       -1.036272   -0.814093    1.327464
     14          1           0       -3.485630    0.429618    1.675007
     15          1           0       -3.768840   -1.238329    1.186269
     16          1           0       -1.736642    0.652431   -0.097915
     17          1           0       -2.019377   -1.014352   -0.587299
     18          1           0       -1.308272   -1.809689    1.692711
     19          1           0       -1.023931   -0.133436    2.184875
     20          1           0       -0.021145   -0.867183    0.921806
     21          6           0        3.955526    2.331255    0.269906
     22          6           0        4.373523    1.249237    1.051595
     23          6           0        3.907386   -0.041510    0.784691
     24          6           0        3.020083   -0.214876   -0.276405
     25          6           0        2.585117    0.842956   -1.073329
     26          6           0        3.064229    2.125024   -0.788195
     27          1           0        4.322671    3.330567    0.484325
     28          1           0        5.065650    1.406428    1.873967
     29          1           0        4.214659   -0.897004    1.373870
     30          1           0        1.894472    0.654970   -1.886402
     31          1           0        2.737894    2.963465   -1.396939
     32          7           0        2.519737   -1.576738   -0.568613
     33          8           0        1.738612   -1.703056   -1.509105
     34          8           0        2.918166   -2.492060    0.148377
 ---------------------------------------------------------------------

 SCF Done:  E(RHF) =  -669.535649847     A.U. after   15 cycles
 E2 =    -0.2091484063D+01 EUMP2 =    -0.67162713390937D+03

 The electronic state is 1-A.
 Alpha  occ. eigenvalues --  -20.60829 -20.60823 -15.85869 -11.31224 -11.27792
 Alpha  occ. eigenvalues --  -11.27788 -11.27535 -11.26803 -11.26794 -11.21397
 Alpha  occ. eigenvalues --  -11.21158 -11.21129 -11.21031 -11.20909 -11.20603
 Alpha  occ. eigenvalues --   -1.59905  -1.39455  -1.19397  -1.08799  -1.08124
 Alpha  occ. eigenvalues --   -1.04794  -1.03206  -0.95663  -0.95634  -0.86684
 Alpha  occ. eigenvalues --   -0.86195  -0.82462  -0.79275  -0.77933  -0.77511
 Alpha  occ. eigenvalues --   -0.72090  -0.71253  -0.70503  -0.65049  -0.64798
 Alpha  occ. eigenvalues --   -0.64754  -0.62141  -0.60598  -0.59036  -0.57269
 Alpha  occ. eigenvalues --   -0.55299  -0.54949  -0.53131  -0.52887  -0.52354
 Alpha  occ. eigenvalues --   -0.52089  -0.49605  -0.48850  -0.48847  -0.47596
 Alpha  occ. eigenvalues --   -0.46306  -0.45482  -0.45393  -0.44849  -0.43474
 Alpha  occ. eigenvalues --   -0.37373  -0.36394
 Alpha virt. eigenvalues --    0.05011   0.11243   0.16490   0.21374   0.23133
 Alpha virt. eigenvalues --    0.24452   0.26932   0.27264   0.27679   0.28046
 Alpha virt. eigenvalues --    0.28417   0.30651   0.31679   0.31783   0.32062

 Mulliken charges:
               1
     1  C   -0.297979
     2  C   -0.299406
     3  C   -0.475519
     4  H    0.147125
     5  H    0.151214
     6  H    0.150745
     7  H    0.152574
     8  H    0.155752
     9  H    0.153915
    10  H    0.159608
    11  C   -0.298471
    12  C   -0.299431
    13  C   -0.473018
    14  H    0.146991
    15  H    0.150901
    16  H    0.145163
    17  H    0.160866
    18  H    0.159411
    19  H    0.149869
    20  H    0.157695
    21  C   -0.170571
    22  C   -0.218546
    23  C   -0.170834
    24  C    0.155381
    25  C   -0.171388
    26  C   -0.218492
    27  H    0.225724
    28  H    0.223628
    29  H    0.275999
    30  H    0.276206
    31  H    0.223574
    32  N    0.489826
    33  O   -0.459549
    34  O   -0.458963
 Sum of Mulliken charges =  -0.00000

 Dipole moment (field-independent basis, Debye):
    X=              1.8409    Y=              4.7144    Z=              0.9966  Tot=              5.1583
 Quadrupole moment (field-independent basis, Debye-Ang):
   XX=            -84.0709   YY=            -95.7660   ZZ=            -93.2216
   XY=             13.9424   XZ=              4.7090   YZ=             -2.6792

 Normal termination of Gaussian 16 at Thu May  6 05:54:48 2021.
