 Gaussian 16, Revision A.03,
 Gaussian 16:  EM64L-G16RevA.03 25-Dec-2016

 -------------
 #p 6-31g* mp2
 -------------

 ------------------------------------------------------
 Input file generated by CHIRIPA (05-May-2021 14:55:23)
 ------------------------------------------------------
 Symbolic Z-matrix:
 Charge =  0 Multiplicity = 1

                         Standard orientation:
 ---------------------------------------------------------------------
 Center     Atomic      Atomic             Coordinates (Angstroms)
 Number     Number       Type             X           Y           Z
 ---------------------------------------------------------------------
      1          6           0       -0.405779   -2.613605    0.088422
      2          6           0       -1.220621   -2.378698   -1.023950
      3          6           0       -2.103989   -1.295221   -1.040860
      4          6           0       -2.146848   -0.463063    0.076712
      5          6           0       -1.347802   -0.670813    1.199946
      6          6           0       -0.471854   -1.760417    1.194869
      7          1           0        0.277560   -3.457656    0.093018
      8          1           0       -1.171432   -3.039640   -1.884637
      9          1           0       -2.746108   -1.090163   -1.888829
     10          1           0       -1.419225    0.005486    2.043117
     11          1           0        0.159779   -1.940417    2.060135
     12          7           0       -3.078102    0.687209    0.070448
     13          8           0       -3.096959    1.405618    1.067529
     14          8           0       -3.771530    0.848603   -0.931424
     15          6           0        2.373304    1.469839   -0.485697
     16          6           0        1.661878    2.519847    0.368318
     17          6           0        1.311883    3.783370   -0.418326
     18          1           0        3.289254    1.907420   -0.905821
     19          1           0        1.733048    1.206132   -1.338883
     20          1           0        2.302697    2.780479    1.220397
     21          1           0        0.747615    2.079657    0.786614
     22          1           0        0.652831    3.543590   -1.259014
     23          1           0        2.216748    4.248395   -0.822766
     24          1           0        0.804016    4.520538    0.211369
     25          6           0        2.729712    0.200923    0.286672
     26          6           0        3.441139   -0.849084   -0.567343
     27          6           0        3.791133   -2.112608    0.219301
     28          1           0        3.369968    0.464630    1.139858
     29          1           0        1.813763   -0.236657    0.706796
     30          1           0        4.355401   -0.408894   -0.985639
     31          1           0        2.800320   -1.109716   -1.419423
     32          1           0        2.886268   -2.577631    0.623740
     33          1           0        4.450186   -1.872827    1.059988
     34          1           0        4.299000   -2.849775   -0.410395
 ---------------------------------------------------------------------

 SCF Done:  E(RHF) =  -669.534974495     A.U. after   15 cycles
 E2 =    -0.2094507642D+01 EUMP2 =    -0.67162948213644D+03

 The electronic state is 1-A.
 Alpha  occ. eigenvalues --  -20.60887 -20.60882 -15.85939 -11.31355 -11.27909
 Alpha  occ. eigenvalues --  -11.27899 -11.27640 -11.26933 -11.26920 -11.22057
 Alpha  occ. eigenvalues --  -11.21832 -11.21575 -11.21560 -11.21451 -11.20864
 Alpha  occ. eigenvalues --   -1.59959  -1.39511  -1.19528  -1.08919  -1.08627
 Alpha  occ. eigenvalues --   -1.04935  -1.03757  -0.96209  -0.95732  -0.87231
 Alpha  occ. eigenvalues --   -0.86325  -0.82564  -0.79839  -0.78437  -0.77598
 Alpha  occ. eigenvalues --   -0.72154  -0.71283  -0.70616  -0.65331  -0.65170
 Alpha  occ. eigenvalues --   -0.64897  -0.62267  -0.61164  -0.59609  -0.57806
 Alpha  occ. eigenvalues --   -0.55639  -0.55306  -0.53284  -0.53014  -0.52896
 Alpha  occ. eigenvalues --   -0.52634  -0.50171  -0.48918  -0.48908  -0.48151
 Alpha  occ. eigenvalues --   -0.46878  -0.45973  -0.45879  -0.44898  -0.43975
 Alpha  occ. eigenvalues --   -0.37462  -0.36434
 Alpha virt. eigenvalues --    0.04885   0.10952   0.16294   0.19919   0.22970
 Alpha virt. eigenvalues --    0.23878   0.25801   0.26663   0.26802   0.28471
 Alpha virt. eigenvalues --    0.28739   0.30312   0.31141   0.31448   0.31986

 Mulliken charges:
               1
     1  C   -0.169942
     2  C   -0.218862
     3  C   -0.171039
     4  C    0.158857
     5  C   -0.170464
     6  C   -0.221247
     7  H    0.228165
     8  H    0.224486
     9  H    0.276219
    10  H    0.276883
    11  H    0.226438
    12  N    0.488137
    13  O   -0.459957
    14  O   -0.459766
    15  C   -0.297450
    16  C   -0.301550
    17  C   -0.475570
    18  H    0.149447
    19  H    0.150159
    20  H    0.150485
    21  H    0.152442
    22  H    0.157478
    23  H    0.153430
    24  H    0.164395
    25  C   -0.306010
    26  C   -0.298766
    27  C   -0.475782
    28  H    0.147469
    29  H    0.154999
    30  H    0.154325
    31  H    0.150969
    32  H    0.142548
    33  H    0.157986
    34  H    0.161090
 Sum of Mulliken charges =  -0.00000

 Dipole moment (field-independent basis, Debye):
    X=              3.1507    Y=             -4.0009    Z=             -0.0109  Tot=              5.0926
 Quadrupole moment (field-independent basis, Debye-Ang):
   XX=           -108.5616   YY=            -91.9382   ZZ=            -90.7744
   XY=              8.4563   XZ=              1.8576   YZ=              1.5858

 Normal termination of Gaussian 16 at Thu May  6 06:19:43 2021.
