 Gaussian 16, Revision A.03,
 Gaussian 16:  EM64L-G16RevA.03 25-Dec-2016

 -------------
 #p 6-31g* mp2
 -------------

 ------------------------------------------------------
 Input file generated by CHIRIPA (05-May-2021 14:51:13)
 ------------------------------------------------------
 Symbolic Z-matrix:
 Charge =  0 Multiplicity = 1

                         Standard orientation:
 ---------------------------------------------------------------------
 Center     Atomic      Atomic             Coordinates (Angstroms)
 Number     Number       Type             X           Y           Z
 ---------------------------------------------------------------------
      1          6           0        3.271370   -0.314291   -0.444931
      2          6           0        4.764123   -0.165397   -0.149123
      3          6           0        5.531035    0.494314   -1.295605
      4          1           0        3.142969   -0.905534   -1.361932
      5          1           0        2.844640    0.677288   -0.650036
      6          1           0        5.187624   -1.156805    0.056722
      7          1           0        4.888981    0.425399    0.767385
      8          1           0        5.135782    1.495034   -1.497928
      9          1           0        5.436122   -0.096160   -2.212630
     10          1           0        6.596129    0.590867   -1.062984
     11          6           0        2.491179   -0.972147    0.691843
     12          6           0        0.998426   -1.121041    0.396035
     13          6           0        0.231513   -1.780752    1.542517
     14          1           0        2.917908   -1.963726    0.896948
     15          1           0        2.619580   -0.380904    1.608843
     16          1           0        0.873568   -1.711837   -0.520473
     17          1           0        0.574925   -0.129633    0.190190
     18          1           0        0.326427   -1.190278    2.459541
     19          1           0        0.626767   -2.781472    1.744840
     20          1           0       -0.833580   -1.877305    1.309896
     21          6           0       -2.160826    0.823020    0.055592
     22          6           0       -1.960532    2.311685    0.341506
     23          6           0       -0.514095    2.655752    0.698202
     24          1           0       -1.850443    0.242260    0.934981
     25          1           0       -1.497784    0.522404   -0.767451
     26          1           0       -2.624759    2.609715    1.162844
     27          1           0       -2.271608    2.888979   -0.538595
     28          1           0        0.159449    2.386150   -0.121709
     29          1           0       -0.195708    2.105299    1.589398
     30          1           0       -0.393492    3.724915    0.898720
     31          6           0       -3.601722    0.463418   -0.302504
     32          6           0       -3.802017   -1.025246   -0.588418
     33          6           0       -5.248454   -1.369315   -0.945113
     34          1           0       -4.264764    0.764034    0.520540
     35          1           0       -3.912106    1.044178   -1.181892
     36          1           0       -3.490940   -1.602541    0.291683
     37          1           0       -3.137790   -1.323277   -1.409756
     38          1           0       -5.566842   -0.818861   -1.836310
     39          1           0       -5.921999   -1.099712   -0.125203
     40          1           0       -5.369058   -2.438477   -1.145632
 ---------------------------------------------------------------------

 SCF Done:  E(RHF) =  -470.730949006     A.U. after   11 cycles
 E2 =    -0.1585778884D+01 EUMP2 =    -0.47231672788971D+03

 The electronic state is 1-A.
 Alpha  occ. eigenvalues --  -11.21644 -11.21640 -11.21556 -11.21390 -11.21371
 Alpha  occ. eigenvalues --  -11.21333 -11.21295 -11.21253 -11.21176 -11.21093
 Alpha  occ. eigenvalues --  -11.21039 -11.20985  -1.08500  -1.08314  -1.03612
 Alpha  occ. eigenvalues --   -1.03426  -0.96051  -0.95898  -0.87056  -0.86929
 Alpha  occ. eigenvalues --   -0.79746  -0.79467  -0.78468  -0.77984  -0.65106
 Alpha  occ. eigenvalues --   -0.64987  -0.60996  -0.60894  -0.59429  -0.59256
 Alpha  occ. eigenvalues --   -0.57790  -0.57398  -0.55329  -0.55209  -0.52763
 Alpha  occ. eigenvalues --   -0.52600  -0.52492  -0.52294  -0.50006  -0.49839
 Alpha  occ. eigenvalues --   -0.48197  -0.47740  -0.46776  -0.46582  -0.46057
 Alpha  occ. eigenvalues --   -0.45740  -0.45612  -0.44997  -0.43818  -0.43670
 Alpha virt. eigenvalues --    0.20994   0.22412   0.23821   0.23889   0.25399
 Alpha virt. eigenvalues --    0.26222   0.26472   0.27694   0.28348   0.29930
 Alpha virt. eigenvalues --    0.30771   0.31493   0.31565   0.31616   0.32416

 Mulliken charges:
               1
     1  C   -0.299172
     2  C   -0.299506
     3  C   -0.475699
     4  H    0.149206
     5  H    0.149615
     6  H    0.151899
     7  H    0.152054
     8  H    0.155094
     9  H    0.154962
    10  H    0.160131
    11  C   -0.297016
    12  C   -0.308818
    13  C   -0.481013
    14  H    0.148713
    15  H    0.148995
    16  H    0.149892
    17  H    0.166516
    18  H    0.153084
    19  H    0.155484
    20  H    0.163520
    21  C   -0.307907
    22  C   -0.298207
    23  C   -0.480115
    24  H    0.158587
    25  H    0.152280
    26  H    0.151938
    27  H    0.151861
    28  H    0.156038
    29  H    0.155983
    30  H    0.161330
    31  C   -0.297035
    32  C   -0.302011
    33  C   -0.475664
    34  H    0.149147
    35  H    0.149402
    36  H    0.153035
    37  H    0.152288
    38  H    0.155407
    39  H    0.155307
    40  H    0.160394
 Sum of Mulliken charges =  -0.00000

 Dipole moment (field-independent basis, Debye):
    X=             -0.0583    Y=              0.0376    Z=             -0.0085  Tot=              0.0699
 Quadrupole moment (field-independent basis, Debye-Ang):
   XX=            -86.3443   YY=            -84.3792   ZZ=            -84.2986
   XY=             -0.7863   XZ=             -0.0573   YZ=              0.5074

 Normal termination of Gaussian 16 at Wed May  5 21:36:54 2021.
