 Gaussian 16, Revision A.03,
 Gaussian 16:  EM64L-G16RevA.03 25-Dec-2016

 -------------
 #p 6-31g* mp2
 -------------

 ------------------------------------------------------
 Input file generated by CHIRIPA (05-May-2021 14:51:09)
 ------------------------------------------------------
 Symbolic Z-matrix:
 Charge =  0 Multiplicity = 1

                         Standard orientation:
 ---------------------------------------------------------------------
 Center     Atomic      Atomic             Coordinates (Angstroms)
 Number     Number       Type             X           Y           Z
 ---------------------------------------------------------------------
      1          6           0        4.580045    0.328321   -0.336631
      2          6           0        5.414299   -0.791532    0.286212
      3          6           0        6.732178   -1.027607   -0.452204
      4          1           0        4.374295    0.082588   -1.387453
      5          1           0        5.169551    1.255600   -0.342115
      6          1           0        4.822889   -1.716096    0.291781
      7          1           0        5.617924   -0.543196    1.335727
      8          1           0        7.345027   -0.120424   -0.446142
      9          1           0        6.545475   -1.299989   -1.496019
     10          1           0        7.312661   -1.832266    0.009775
     11          6           0        3.259592    0.576206    0.390476
     12          6           0        2.425337    1.696059   -0.232367
     13          6           0        1.107458    1.932135    0.506049
     14          1           0        2.670085   -0.351073    0.395960
     15          1           0        3.465341    0.821939    1.441298
     16          1           0        2.221712    1.447723   -1.281882
     17          1           0        3.016747    2.620624   -0.237936
     18          1           0        1.294162    2.204517    1.549864
     19          1           0        0.494610    1.024951    0.499987
     20          1           0        0.526975    2.736793    0.044070
     21          6           0       -3.381325   -0.910171    0.262521
     22          6           0       -1.983123   -0.624349   -0.286407
     23          6           0       -0.916677   -1.548544    0.302109
     24          1           0       -3.367225   -0.806467    1.356136
     25          1           0       -3.643935   -1.955984    0.051082
     26          1           0       -1.723788    0.421002   -0.075215
     27          1           0       -2.000599   -0.728558   -1.378859
     28          1           0       -1.148403   -2.595106    0.079372
     29          1           0       -0.870019   -1.439014    1.390423
     30          1           0        0.075173   -1.326824   -0.104011
     31          6           0       -4.458311    0.005644   -0.316367
     32          6           0       -5.856513   -0.280178    0.232562
     33          6           0       -6.922960    0.644017   -0.355954
     34          1           0       -4.195701    1.051456   -0.104927
     35          1           0       -4.472411   -0.098060   -1.409980
     36          1           0       -5.839038   -0.175969    1.325014
     37          1           0       -6.115849   -1.325530    0.021370
     38          1           0       -6.969616    0.534487   -1.444267
     39          1           0       -6.691233    1.690578   -0.133216
     40          1           0       -7.914810    0.422296    0.050166
 ---------------------------------------------------------------------

 SCF Done:  E(RHF) =  -470.732516269     A.U. after   11 cycles
 E2 =    -0.1583528675D+01 EUMP2 =    -0.47231604494429D+03

 The electronic state is 1-A.
 Alpha  occ. eigenvalues --  -11.21600 -11.21597 -11.21587 -11.21576 -11.21408
 Alpha  occ. eigenvalues --  -11.21391 -11.21348 -11.21332 -11.21137 -11.21069
 Alpha  occ. eigenvalues --  -11.21059 -11.20966  -1.08451  -1.08403  -1.03593
 Alpha  occ. eigenvalues --   -1.03471  -0.96054  -0.95915  -0.87031  -0.86969
 Alpha  occ. eigenvalues --   -0.79631  -0.79557  -0.78261  -0.78216  -0.65152
 Alpha  occ. eigenvalues --   -0.64996  -0.61187  -0.60771  -0.59422  -0.59267
 Alpha  occ. eigenvalues --   -0.57713  -0.57484  -0.55445  -0.55064  -0.52723
 Alpha  occ. eigenvalues --   -0.52648  -0.52458  -0.52331  -0.49946  -0.49889
 Alpha  occ. eigenvalues --   -0.47928  -0.47875  -0.46738  -0.46490  -0.45808
 Alpha  occ. eigenvalues --   -0.45766  -0.45726  -0.45594  -0.43803  -0.43747
 Alpha virt. eigenvalues --    0.21017   0.22986   0.23619   0.25145   0.26023
 Alpha virt. eigenvalues --    0.26467   0.27202   0.27332   0.27866   0.29158
 Alpha virt. eigenvalues --    0.30651   0.31302   0.31559   0.31864   0.32074

 Mulliken charges:
               1
     1  C   -0.298138
     2  C   -0.299691
     3  C   -0.475697
     4  H    0.149492
     5  H    0.149583
     6  H    0.152085
     7  H    0.151950
     8  H    0.155141
     9  H    0.155143
    10  H    0.160248
    11  C   -0.301715
    12  C   -0.298905
    13  C   -0.486452
    14  H    0.151930
    15  H    0.149811
    16  H    0.151479
    17  H    0.151816
    18  H    0.154468
    19  H    0.169049
    20  H    0.159191
    21  C   -0.297746
    22  C   -0.305145
    23  C   -0.481931
    24  H    0.149820
    25  H    0.149380
    26  H    0.157477
    27  H    0.151893
    28  H    0.156888
    29  H    0.156398
    30  H    0.161930
    31  C   -0.298409
    32  C   -0.299671
    33  C   -0.475724
    34  H    0.149915
    35  H    0.149586
    36  H    0.152018
    37  H    0.151883
    38  H    0.155144
    39  H    0.155255
    40  H    0.160252
 Sum of Mulliken charges =  -0.00000

 Dipole moment (field-independent basis, Debye):
    X=             -0.0269    Y=             -0.0145    Z=              0.0091  Tot=              0.0319
 Quadrupole moment (field-independent basis, Debye-Ang):
   XX=            -86.3565   YY=            -84.3867   ZZ=            -84.1287
   XY=              1.1784   XZ=              0.5349   YZ=              1.0045

 Normal termination of Gaussian 16 at Thu May  6 06:54:12 2021.
