 Gaussian 16, Revision A.03,
 Gaussian 16:  EM64L-G16RevA.03 25-Dec-2016

 -------------
 #p 6-31g* mp2
 -------------

 ------------------------------------------------------
 Input file generated by CHIRIPA (05-May-2021 14:55:20)
 ------------------------------------------------------
 Symbolic Z-matrix:
 Charge =  0 Multiplicity = 1

                         Standard orientation:
 ---------------------------------------------------------------------
 Center     Atomic      Atomic             Coordinates (Angstroms)
 Number     Number       Type             X           Y           Z
 ---------------------------------------------------------------------
      1          6           0        5.246449   -1.567136    0.095467
      2          6           0        4.012072   -2.099876   -0.290566
      3          6           0        2.879321   -1.284046   -0.367023
      4          6           0        3.017596    0.066152   -0.049007
      5          6           0        4.233647    0.626564    0.338871
      6          6           0        5.353109   -0.208013    0.408402
      7          1           0        6.121236   -2.208174    0.152171
      8          1           0        3.926278   -3.155025   -0.534172
      9          1           0        1.911540   -1.670331   -0.662997
     10          1           0        4.287977    1.682219    0.575636
     11          1           0        6.310468    0.208461    0.708502
     12          7           0        1.825438    0.939758   -0.126282
     13          8           0        1.973593    2.126050    0.159018
     14          8           0        0.765442    0.421655   -0.470688
     15          6           0       -4.105156    0.855450   -0.063465
     16          6           0       -2.714766    1.473741    0.086586
     17          6           0       -2.713291    2.986412   -0.136167
     18          1           0       -4.493122    1.080194   -1.066420
     19          1           0       -4.790143    1.332862    0.650863
     20          1           0       -2.032280    0.994338   -0.626857
     21          1           0       -2.329986    1.247336    1.089232
     22          1           0       -3.371863    3.482508    0.584092
     23          1           0       -3.072466    3.228074   -1.141749
     24          1           0       -1.709399    3.407727   -0.024125
     25          6           0       -4.122884   -0.656209    0.156318
     26          6           0       -5.513274   -1.274500    0.006267
     27          6           0       -5.514749   -2.787171    0.229019
     28          1           0       -3.437897   -1.133621   -0.558011
     29          1           0       -3.734918   -0.880953    1.159272
     30          1           0       -5.898055   -1.048094   -0.996380
     31          1           0       -6.195760   -0.795097    0.719710
     32          1           0       -5.155575   -3.028833    1.234600
     33          1           0       -4.856177   -3.283268   -0.491240
     34          1           0       -6.518642   -3.208486    0.116978
 ---------------------------------------------------------------------

 SCF Done:  E(RHF) =  -669.536086495     A.U. after   15 cycles
 E2 =    -0.2091092537D+01 EUMP2 =    -0.67162717903148D+03

 The electronic state is 1-A.
 Alpha  occ. eigenvalues --  -20.60966 -20.60955 -15.85993 -11.31309 -11.27870
 Alpha  occ. eigenvalues --  -11.27867 -11.27607 -11.26876 -11.26867 -11.20890
 Alpha  occ. eigenvalues --  -11.20542 -11.20434 -11.20156 -11.19800 -11.19462
 Alpha  occ. eigenvalues --   -1.60020  -1.39577  -1.19476  -1.08881  -1.07326
 Alpha  occ. eigenvalues --   -1.04871  -1.02362  -0.95725  -0.94872  -0.86272
 Alpha  occ. eigenvalues --   -0.85904  -0.82561  -0.78486  -0.77613  -0.77025
 Alpha  occ. eigenvalues --   -0.72211  -0.71333  -0.70584  -0.65132  -0.64874
 Alpha  occ. eigenvalues --   -0.63974  -0.62218  -0.59772  -0.58288  -0.56416
 Alpha  occ. eigenvalues --   -0.55373  -0.54200  -0.53203  -0.52963  -0.51560
 Alpha  occ. eigenvalues --   -0.51291  -0.49025  -0.48966  -0.48846  -0.46762
 Alpha  occ. eigenvalues --   -0.45539  -0.45005  -0.44576  -0.44408  -0.42623
 Alpha  occ. eigenvalues --   -0.37455  -0.36472
 Alpha virt. eigenvalues --    0.04921   0.11183   0.16422   0.21315   0.23845
 Alpha virt. eigenvalues --    0.25481   0.27237   0.27682   0.28149   0.28675
 Alpha virt. eigenvalues --    0.29082   0.30890   0.32362   0.32485   0.32773

 Mulliken charges:
               1
     1  C   -0.170580
     2  C   -0.218546
     3  C   -0.170797
     4  C    0.157617
     5  C   -0.170510
     6  C   -0.218602
     7  H    0.226041
     8  H    0.223897
     9  H    0.275741
    10  H    0.275876
    11  H    0.223853
    12  N    0.491374
    13  O   -0.459831
    14  O   -0.461668
    15  C   -0.298393
    16  C   -0.300814
    17  C   -0.478049
    18  H    0.145673
    19  H    0.144359
    20  H    0.173758
    21  H    0.148904
    22  H    0.146572
    23  H    0.148764
    24  H    0.172253
    25  C   -0.296554
    26  C   -0.298609
    27  C   -0.474809
    28  H    0.149568
    29  H    0.147751
    30  H    0.150556
    31  H    0.150466
    32  H    0.153671
    33  H    0.153324
    34  H    0.157743
 Sum of Mulliken charges =  -0.00000

 Dipole moment (field-independent basis, Debye):
    X=              4.6150    Y=             -3.0629    Z=              0.2302  Tot=              5.5437
 Quadrupole moment (field-independent basis, Debye-Ang):
   XX=            -69.9235   YY=            -93.9360   ZZ=            -94.3192
   XY=             -6.8507   XZ=              1.5659   YZ=              1.7903

 Normal termination of Gaussian 16 at Thu May  6 01:21:22 2021.
