 Gaussian 16, Revision A.03,
 Gaussian 16:  EM64L-G16RevA.03 25-Dec-2016

 -------------
 #p 6-31g* mp2
 -------------

 ------------------------------------------------------
 Input file generated by CHIRIPA (05-May-2021 14:53:14)
 ------------------------------------------------------
 Symbolic Z-matrix:
 Charge =  0 Multiplicity = 1

                         Standard orientation:
 ---------------------------------------------------------------------
 Center     Atomic      Atomic             Coordinates (Angstroms)
 Number     Number       Type             X           Y           Z
 ---------------------------------------------------------------------
      1          6           0        3.000972   -0.301969   -0.195210
      2          6           0        4.149552   -0.948029   -0.970681
      3          6           0        4.128049   -2.475036   -0.895963
      4          1           0        3.051659   -0.619852    0.855184
      5          1           0        2.045786   -0.675862   -0.589186
      6          1           0        5.102257   -0.571977   -0.576279
      7          1           0        4.096237   -0.628418   -2.019310
      8          1           0        3.192865   -2.867764   -1.308027
      9          1           0        4.204600   -2.811001    0.143203
     10          1           0        4.957726   -2.916162   -1.457125
     11          6           0        3.008925    1.224271   -0.260451
     12          6           0        1.860345    1.870332    0.515021
     13          6           0        1.881849    3.397338    0.440303
     14          1           0        3.964112    1.598165    0.133526
     15          1           0        2.958238    1.542155   -1.310844
     16          1           0        1.913660    1.550721    1.563650
     17          1           0        0.907640    1.494279    0.120619
     18          1           0        1.805297    3.733304   -0.598864
     19          1           0        2.817033    3.790067    0.852366
     20          1           0        1.052171    3.838465    1.001465
     21          6           0       -3.985588    0.816486   -1.337992
     22          6           0       -4.017306   -0.576953   -1.220336
     23          6           0       -3.114548   -1.239551   -0.383354
     24          6           0       -2.189263   -0.474040    0.324552
     25          6           0       -2.132602    0.915513    0.228524
     26          6           0       -3.044994    1.556967   -0.614462
     27          1           0       -4.690614    1.322996   -1.990512
     28          1           0       -4.746686   -1.154586   -1.781040
     29          1           0       -3.116992   -2.317215   -0.273566
     30          1           0       -1.393970    1.464281    0.800097
     31          1           0       -3.018044    2.639244   -0.703874
     32          7           0       -1.228454   -1.164310    1.213806
     33          8           0       -0.423027   -0.467058    1.826803
     34          8           0       -1.298990   -2.389525    1.280967
 ---------------------------------------------------------------------

 SCF Done:  E(RHF) =  -669.535115308     A.U. after   15 cycles
 E2 =    -0.2093050960D+01 EUMP2 =    -0.67162816626787D+03

 The electronic state is 1-A.
 Alpha  occ. eigenvalues --  -20.60861 -20.60836 -15.85883 -11.31253 -11.27816
 Alpha  occ. eigenvalues --  -11.27787 -11.27557 -11.26835 -11.26821 -11.20996
 Alpha  occ. eigenvalues --  -11.20971 -11.20882 -11.20823 -11.20574 -11.20413
 Alpha  occ. eigenvalues --   -1.59916  -1.39470  -1.19424  -1.08819  -1.07809
 Alpha  occ. eigenvalues --   -1.04824  -1.02999  -0.95656  -0.95467  -0.86479
 Alpha  occ. eigenvalues --   -0.86222  -0.82488  -0.79064  -0.77729  -0.77361
 Alpha  occ. eigenvalues --   -0.72102  -0.71231  -0.70534  -0.65074  -0.64856
 Alpha  occ. eigenvalues --   -0.64437  -0.62193  -0.60392  -0.58841  -0.57066
 Alpha  occ. eigenvalues --   -0.55325  -0.54760  -0.53154  -0.52916  -0.52192
 Alpha  occ. eigenvalues --   -0.51877  -0.49398  -0.48909  -0.48867  -0.47318
 Alpha  occ. eigenvalues --   -0.46068  -0.45393  -0.45034  -0.44534  -0.43226
 Alpha  occ. eigenvalues --   -0.37403  -0.36415
 Alpha virt. eigenvalues --    0.04967   0.11119   0.16465   0.20969   0.23424
 Alpha virt. eigenvalues --    0.24334   0.26653   0.27294   0.27683   0.28300
 Alpha virt. eigenvalues --    0.29268   0.30806   0.31586   0.31796   0.32393

 Mulliken charges:
               1
     1  C   -0.295479
     2  C   -0.299898
     3  C   -0.474966
     4  H    0.160353
     5  H    0.147394
     6  H    0.149951
     7  H    0.147826
     8  H    0.155609
     9  H    0.158619
    10  H    0.156802
    11  C   -0.299309
    12  C   -0.299543
    13  C   -0.477146
    14  H    0.147762
    15  H    0.144383
    16  H    0.166499
    17  H    0.146704
    18  H    0.150973
    19  H    0.156789
    20  H    0.152704
    21  C   -0.170645
    22  C   -0.218405
    23  C   -0.170931
    24  C    0.157149
    25  C   -0.173080
    26  C   -0.220123
    27  H    0.225875
    28  H    0.223697
    29  H    0.275720
    30  H    0.281264
    31  H    0.224280
    32  N    0.488769
    33  O   -0.459585
    34  O   -0.460012
 Sum of Mulliken charges =  -0.00000

 Dipole moment (field-independent basis, Debye):
    X=             -3.4593    Y=              2.2756    Z=             -2.9540  Tot=              5.0864
 Quadrupole moment (field-independent basis, Debye-Ang):
   XX=            -79.5393   YY=            -95.1553   ZZ=            -96.5220
   XY=             -1.7950   XZ=              7.6438   YZ=              3.5011

 Normal termination of Gaussian 16 at Thu May  6 17:08:03 2021.
