 Gaussian 16, Revision A.03,
 Gaussian 16:  EM64L-G16RevA.03 25-Dec-2016

 -------------
 #p 6-31g* mp2
 -------------

 ------------------------------------------------------
 Input file generated by CHIRIPA (05-May-2021 14:57:25)
 ------------------------------------------------------
 Symbolic Z-matrix:
 Charge =  0 Multiplicity = 1

                         Standard orientation:
 ---------------------------------------------------------------------
 Center     Atomic      Atomic             Coordinates (Angstroms)
 Number     Number       Type             X           Y           Z
 ---------------------------------------------------------------------
      1          6           0        1.963496    1.774792   -0.704779
      2          6           0        1.871172    0.401007   -0.951176
      3          6           0        2.941585   -0.447363   -0.652793
      4          6           0        4.094502    0.114356   -0.106402
      5          6           0        4.216959    1.478989    0.150640
      6          6           0        3.134031    2.308458   -0.155626
      7          1           0        1.127113    2.426485   -0.939632
      8          1           0        0.963350   -0.016221   -1.377587
      9          1           0        2.896997   -1.514522   -0.833353
     10          1           0        5.134897    1.865651    0.576432
     11          1           0        3.208550    3.374978    0.036797
     12          7           0        5.234325   -0.773771    0.213655
     13          8           0        6.239090   -0.254200    0.694414
     14          8           0        5.101369   -1.972638   -0.022304
     15          6           0       -6.253389    0.543823   -0.300646
     16          6           0       -5.662491    0.783641    0.944282
     17          6           0       -4.362792    0.342438    1.210122
     18          6           0       -3.679771   -0.338511    0.203603
     19          6           0       -4.241239   -0.592802   -1.046749
     20          6           0       -5.542131   -0.142423   -1.290444
     21          1           0       -7.263489    0.890125   -0.498556
     22          1           0       -6.212494    1.316333    1.714856
     23          1           0       -3.881287    0.514549    2.165083
     24          1           0       -3.667997   -1.126519   -1.795052
     25          1           0       -5.998508   -0.330089   -2.258197
     26          7           0       -2.303207   -0.810449    0.473314
     27          8           0       -1.722547   -1.408084   -0.430182
     28          8           0       -1.830981   -0.573785    1.583102
 ---------------------------------------------------------------------

 SCF Done:  E(RHF) =  -868.339309795     A.U. after   16 cycles
 E2 =    -0.2598565223D+01 EUMP2 =    -0.87093787501799D+03

 The electronic state is 1-A.
 Alpha  occ. eigenvalues --  -20.61673 -20.61622 -20.59940 -20.59926 -15.86677
 Alpha  occ. eigenvalues --  -15.84980 -11.31873 -11.30204 -11.28427 -11.28404
 Alpha  occ. eigenvalues --  -11.28114 -11.27388 -11.27373 -11.26796 -11.26651
 Alpha  occ. eigenvalues --  -11.26486 -11.25836 -11.25577  -1.60714  -1.59012
 Alpha  occ. eigenvalues --   -1.40271  -1.38570  -1.20027  -1.18350  -1.09451
 Alpha  occ. eigenvalues --   -1.07786  -1.05400  -1.03711  -0.96313  -0.94649
 Alpha  occ. eigenvalues --   -0.86804  -0.85131  -0.83148  -0.81468  -0.78220
 Alpha  occ. eigenvalues --   -0.76526  -0.72895  -0.72031  -0.71207  -0.71123
 Alpha  occ. eigenvalues --   -0.70330  -0.69501  -0.65677  -0.65393  -0.64005
 Alpha  occ. eigenvalues --   -0.63703  -0.62746  -0.61053  -0.55896  -0.54278
 Alpha  occ. eigenvalues --   -0.53744  -0.53483  -0.52069  -0.51798  -0.49662
 Alpha  occ. eigenvalues --   -0.49628  -0.47967  -0.47950  -0.45705  -0.44007
 Alpha  occ. eigenvalues --   -0.37996  -0.36998  -0.36349  -0.35292
 Alpha virt. eigenvalues --    0.04268   0.05975   0.10659   0.12345   0.15787
 Alpha virt. eigenvalues --    0.17508   0.20840   0.22463   0.26768   0.27671
 Alpha virt. eigenvalues --    0.28510   0.29205   0.30430   0.31796   0.32157

 Mulliken charges:
               1
     1  C   -0.171329
     2  C   -0.217117
     3  C   -0.170571
     4  C    0.158153
     5  C   -0.172854
     6  C   -0.218327
     7  H    0.220452
     8  H    0.237079
     9  H    0.277298
    10  H    0.272070
    11  H    0.218754
    12  N    0.488146
    13  O   -0.463877
    14  O   -0.460685
    15  C   -0.170159
    16  C   -0.218585
    17  C   -0.171046
    18  C    0.156974
    19  C   -0.171714
    20  C   -0.218513
    21  H    0.227813
    22  H    0.225547
    23  H    0.276869
    24  H    0.274896
    25  H    0.225241
    26  N    0.487845
    27  O   -0.467400
    28  O   -0.454958
 Sum of Mulliken charges =  -0.00000

 Dipole moment (field-independent basis, Debye):
    X=             -9.3318    Y=              4.6893    Z=             -2.0405  Tot=             10.6412
 Quadrupole moment (field-independent basis, Debye-Ang):
   XX=           -101.8860   YY=           -102.7010   ZZ=           -100.9030
   XY=              9.4932   XZ=             -1.0561   YZ=              3.8189

 Normal termination of Gaussian 16 at Thu May  6 09:52:07 2021.
