 Gaussian 16, Revision A.03,
 Gaussian 16:  EM64L-G16RevA.03 25-Dec-2016

 -------------
 #p 6-31g* mp2
 -------------

 ------------------------------------------------------
 Input file generated by CHIRIPA (05-May-2021 14:51:09)
 ------------------------------------------------------
 Symbolic Z-matrix:
 Charge =  0 Multiplicity = 1

                         Standard orientation:
 ---------------------------------------------------------------------
 Center     Atomic      Atomic             Coordinates (Angstroms)
 Number     Number       Type             X           Y           Z
 ---------------------------------------------------------------------
      1          6           0       -3.128444   -0.669651   -0.097309
      2          6           0       -4.519796   -0.257235   -0.579010
      3          6           0       -5.050892   -1.159114   -1.693616
      4          1           0       -2.432970   -0.652407   -0.947582
      5          1           0       -3.163804   -1.709331    0.256542
      6          1           0       -4.482133    0.781807   -0.930561
      7          1           0       -5.211997   -0.275279    0.272547
      8          1           0       -5.117145   -2.196777   -1.350882
      9          1           0       -4.383134   -1.133685   -2.560826
     10          1           0       -6.046686   -0.846358   -2.022916
     11          6           0       -2.583970    0.222489    1.016856
     12          6           0       -1.192618   -0.189928    1.498557
     13          6           0       -0.661521    0.711951    2.613162
     14          1           0       -2.548610    1.262168    0.663005
     15          1           0       -3.279444    0.205244    1.867128
     16          1           0       -0.500417   -0.171884    0.647000
     17          1           0       -1.230281   -1.228970    1.850108
     18          1           0       -1.329280    0.686522    3.480372
     19          1           0       -0.595269    1.749614    2.270429
     20          1           0        0.334272    0.399195    2.942462
     21          6           0        2.873695   -0.504008   -0.227956
     22          6           0        4.242806   -1.162621   -0.400440
     23          6           0        4.261875   -2.618030    0.067763
     24          1           0        2.580283   -0.554352    0.829550
     25          1           0        2.124220   -1.080183   -0.788050
     26          1           0        4.989713   -0.584585    0.158685
     27          1           0        4.533079   -1.110533   -1.457626
     28          1           0        3.538109   -3.214063   -0.497488
     29          1           0        3.997337   -2.685127    1.128008
     30          1           0        5.250110   -3.069408   -0.064551
     31          6           0        2.838719    0.951172   -0.691590
     32          6           0        1.469608    1.609783   -0.519106
     33          6           0        1.450540    3.065193   -0.987310
     34          1           0        3.588194    1.527345   -0.131496
     35          1           0        3.132131    1.001514   -1.749097
     36          1           0        1.179335    1.557696    0.538080
     37          1           0        0.722700    1.031748   -1.078231
     38          1           0        1.715076    3.132290   -2.047554
     39          1           0        2.174305    3.661226   -0.422059
     40          1           0        0.462304    3.516570   -0.854995
 ---------------------------------------------------------------------

 SCF Done:  E(RHF) =  -470.731748977     A.U. after   11 cycles
 E2 =    -0.1584803774D+01 EUMP2 =    -0.47231655275165D+03

 The electronic state is 1-A.
 Alpha  occ. eigenvalues --  -11.21625 -11.21585 -11.21575 -11.21435 -11.21421
 Alpha  occ. eigenvalues --  -11.21375 -11.21367 -11.21297 -11.21111 -11.21084
 Alpha  occ. eigenvalues --  -11.21065 -11.21063  -1.08496  -1.08357  -1.03617
 Alpha  occ. eigenvalues --   -1.03440  -0.96014  -0.95959  -0.87028  -0.86975
 Alpha  occ. eigenvalues --   -0.79705  -0.79518  -0.78397  -0.78089  -0.65141
 Alpha  occ. eigenvalues --   -0.64997  -0.61138  -0.60808  -0.59399  -0.59259
 Alpha  occ. eigenvalues --   -0.57635  -0.57550  -0.55367  -0.55198  -0.52712
 Alpha  occ. eigenvalues --   -0.52641  -0.52436  -0.52378  -0.50045  -0.49828
 Alpha  occ. eigenvalues --   -0.48123  -0.47760  -0.46787  -0.46519  -0.46051
 Alpha  occ. eigenvalues --   -0.45731  -0.45677  -0.45205  -0.43808  -0.43743
 Alpha virt. eigenvalues --    0.20982   0.22888   0.23689   0.24464   0.24810
 Alpha virt. eigenvalues --    0.26162   0.26690   0.28173   0.28473   0.29586
 Alpha virt. eigenvalues --    0.30827   0.31337   0.31649   0.31873   0.32105

 Mulliken charges:
               1
     1  C   -0.298231
     2  C   -0.299589
     3  C   -0.475662
     4  H    0.148786
     5  H    0.149604
     6  H    0.151825
     7  H    0.152001
     8  H    0.155168
     9  H    0.154951
    10  H    0.160207
    11  C   -0.297874
    12  C   -0.307036
    13  C   -0.480096
    14  H    0.148888
    15  H    0.149254
    16  H    0.163216
    17  H    0.150986
    18  H    0.156573
    19  H    0.155290
    20  H    0.159158
    21  C   -0.300464
    22  C   -0.299655
    23  C   -0.475691
    24  H    0.150992
    25  H    0.149752
    26  H    0.152019
    27  H    0.152064
    28  H    0.155357
    29  H    0.155208
    30  H    0.160308
    31  C   -0.297258
    32  C   -0.310425
    33  C   -0.474795
    34  H    0.149469
    35  H    0.149338
    36  H    0.165030
    37  H    0.151468
    38  H    0.155162
    39  H    0.155378
    40  H    0.159321
 Sum of Mulliken charges =  -0.00000

 Dipole moment (field-independent basis, Debye):
    X=              0.0417    Y=              0.0044    Z=             -0.0021  Tot=              0.0420
 Quadrupole moment (field-independent basis, Debye-Ang):
   XX=            -84.9043   YY=            -85.7937   ZZ=            -84.2483
   XY=              0.2312   XZ=             -0.4756   YZ=             -0.2379

 Normal termination of Gaussian 16 at Thu May  6 06:53:50 2021.
