 Gaussian 16, Revision A.03,
 Gaussian 16:  EM64L-G16RevA.03 25-Dec-2016

 -------------
 #p 6-31g* mp2
 -------------

 ------------------------------------------------------
 Input file generated by CHIRIPA (05-May-2021 14:53:17)
 ------------------------------------------------------
 Symbolic Z-matrix:
 Charge =  0 Multiplicity = 1

                         Standard orientation:
 ---------------------------------------------------------------------
 Center     Atomic      Atomic             Coordinates (Angstroms)
 Number     Number       Type             X           Y           Z
 ---------------------------------------------------------------------
      1          6           0        3.474587   -0.063106    0.251929
      2          6           0        4.297973   -1.191247   -0.370419
      3          6           0        4.969031   -2.080442    0.676867
      4          1           0        4.126263    0.548389    0.890942
      5          1           0        2.709415   -0.497216    0.910304
      6          1           0        5.060472   -0.755195   -1.028499
      7          1           0        3.644302   -1.800014   -1.008175
      8          1           0        4.219371   -2.542467    1.327362
      9          1           0        5.643588   -1.491711    1.306923
     10          1           0        5.552406   -2.880240    0.210117
     11          6           0        2.797556    0.834436   -0.782370
     12          6           0        1.974170    1.962576   -0.160022
     13          6           0        1.303112    2.851771   -1.207308
     14          1           0        3.562728    1.268545   -1.440745
     15          1           0        2.145880    0.222940   -1.421383
     16          1           0        2.627841    2.571344    0.477734
     17          1           0        1.211670    1.526524    0.498058
     18          1           0        0.628555    2.263040   -1.837364
     19          1           0        2.052772    3.313797   -1.857803
     20          1           0        0.719736    3.651569   -0.740558
     21          6           0       -2.767901   -2.644393   -0.673034
     22          6           0       -3.537410   -1.594165   -1.184305
     23          6           0       -3.369796   -0.291927   -0.704065
     24          6           0       -2.419328   -0.074779    0.292301
     25          6           0       -1.637415   -1.100183    0.821874
     26          6           0       -1.822026   -2.394490    0.326662
     27          1           0       -2.904710   -3.652922   -1.051911
     28          1           0       -4.272736   -1.785297   -1.960715
     29          1           0       -3.952083    0.539622   -1.082068
     30          1           0       -0.912271   -0.878627    1.595501
     31          1           0       -1.223008   -3.208172    0.725589
     32          7           0       -2.232885    1.299644    0.808636
     33          8           0       -1.388881    1.464757    1.686720
     34          8           0       -2.934284    2.185778    0.325477
 ---------------------------------------------------------------------

 SCF Done:  E(RHF) =  -669.536278023     A.U. after   15 cycles
 E2 =    -0.2091857537D+01 EUMP2 =    -0.67162813556050D+03

 The electronic state is 1-A.
 Alpha  occ. eigenvalues --  -20.60968 -20.60963 -15.85983 -11.31310 -11.27875
 Alpha  occ. eigenvalues --  -11.27865 -11.27605 -11.26880 -11.26869 -11.21559
 Alpha  occ. eigenvalues --  -11.21204 -11.21115 -11.20984 -11.20769 -11.20300
 Alpha  occ. eigenvalues --   -1.60016  -1.39575  -1.19476  -1.08879  -1.08111
 Alpha  occ. eigenvalues --   -1.04873  -1.03146  -0.95722  -0.95625  -0.86646
 Alpha  occ. eigenvalues --   -0.86273  -0.82556  -0.79240  -0.77880  -0.77597
 Alpha  occ. eigenvalues --   -0.72208  -0.71329  -0.70584  -0.65134  -0.64879
 Alpha  occ. eigenvalues --   -0.64752  -0.62221  -0.60553  -0.59011  -0.57192
 Alpha  occ. eigenvalues --   -0.55375  -0.54945  -0.53202  -0.52964  -0.52290
 Alpha  occ. eigenvalues --   -0.52044  -0.49611  -0.48979  -0.48964  -0.47548
 Alpha  occ. eigenvalues --   -0.46339  -0.45550  -0.45407  -0.44671  -0.43403
 Alpha  occ. eigenvalues --   -0.37453  -0.36474
 Alpha virt. eigenvalues --    0.04882   0.11149   0.16350   0.21017   0.22962
 Alpha virt. eigenvalues --    0.24594   0.25990   0.27292   0.27611   0.28233
 Alpha virt. eigenvalues --    0.28957   0.30815   0.31716   0.31929   0.32648

 Mulliken charges:
               1
     1  C   -0.296045
     2  C   -0.299166
     3  C   -0.474858
     4  H    0.151444
     5  H    0.144123
     6  H    0.152817
     7  H    0.148692
     8  H    0.151645
     9  H    0.156713
    10  H    0.159191
    11  C   -0.298030
    12  C   -0.307651
    13  C   -0.476329
    14  H    0.148007
    15  H    0.145223
    16  H    0.151352
    17  H    0.166365
    18  H    0.149075
    19  H    0.150784
    20  H    0.171132
    21  C   -0.170616
    22  C   -0.218506
    23  C   -0.170860
    24  C    0.158672
    25  C   -0.171905
    26  C   -0.218525
    27  H    0.226135
    28  H    0.223970
    29  H    0.276006
    30  H    0.275911
    31  H    0.223966
    32  N    0.488489
    33  O   -0.459014
    34  O   -0.458206
 Sum of Mulliken charges =  -0.00000

 Dipole moment (field-independent basis, Debye):
    X=             -0.8413    Y=             -4.7408    Z=             -1.7453  Tot=              5.1214
 Quadrupole moment (field-independent basis, Debye-Ang):
   XX=            -89.2382   YY=            -93.9675   ZZ=            -94.9782
   XY=             11.5963   XZ=              6.7232   YZ=             -1.7518

 Normal termination of Gaussian 16 at Thu May  6 07:34:51 2021.
