 Gaussian 16, Revision A.03,
 Gaussian 16:  EM64L-G16RevA.03 25-Dec-2016

 -------------
 #p 6-31g* mp2
 -------------

 ------------------------------------------------------
 Input file generated by CHIRIPA (05-May-2021 14:53:18)
 ------------------------------------------------------
 Symbolic Z-matrix:
 Charge =  0 Multiplicity = 1

                         Standard orientation:
 ---------------------------------------------------------------------
 Center     Atomic      Atomic             Coordinates (Angstroms)
 Number     Number       Type             X           Y           Z
 ---------------------------------------------------------------------
      1          6           0        3.311547    0.586684   -0.485166
      2          6           0        3.125228    2.016495    0.023668
      3          6           0        3.487588    3.068944   -1.024589
      4          1           0        4.355253    0.449161   -0.799347
      5          1           0        2.693377    0.440520   -1.381770
      6          1           0        3.742503    2.159494    0.919848
      7          1           0        2.081890    2.150573    0.336852
      8          1           0        2.863468    2.954832   -1.916807
      9          1           0        4.533516    2.963803   -1.330498
     10          1           0        3.347042    4.083849   -0.639784
     11          6           0        2.953341   -0.476750    0.551426
     12          6           0        3.139659   -1.906561    0.042592
     13          6           0        2.777299   -2.959009    1.090848
     14          1           0        3.571510   -0.330586    1.448029
     15          1           0        1.909634   -0.339227    0.865606
     16          1           0        4.182998   -2.040638   -0.270593
     17          1           0        2.522384   -2.049559   -0.853589
     18          1           0        1.731371   -2.853869    1.396758
     19          1           0        3.401420   -2.844897    1.983066
     20          1           0        2.917846   -3.973914    0.706044
     21          6           0       -1.798813   -2.350806   -0.812813
     22          6           0       -3.132962   -1.936482   -0.882857
     23          6           0       -3.503672   -0.659969   -0.449688
     24          6           0       -2.509907    0.180173    0.050195
     25          6           0       -1.172288   -0.203556    0.132765
     26          6           0       -0.824453   -1.484548   -0.306118
     27          1           0       -1.519721   -3.344172   -1.151528
     28          1           0       -3.891788   -2.607109   -1.275904
     29          1           0       -4.529136   -0.313561   -0.492633
     30          1           0       -0.438253    0.487307    0.529397
     31          1           0        0.212438   -1.803628   -0.250540
     32          7           0       -2.890254    1.533931    0.511796
     33          8           0       -1.995833    2.255227    0.948122
     34          8           0       -4.075589    1.848075    0.428534
 ---------------------------------------------------------------------

 SCF Done:  E(RHF) =  -669.534512760     A.U. after   15 cycles
 E2 =    -0.2093736203D+01 EUMP2 =    -0.67162824896225D+03

 The electronic state is 1-A.
 Alpha  occ. eigenvalues --  -20.60765 -20.60760 -15.85816 -11.31170 -11.27742
 Alpha  occ. eigenvalues --  -11.27727 -11.27469 -11.26752 -11.26673 -11.22652
 Alpha  occ. eigenvalues --  -11.22313 -11.22077 -11.21976 -11.21883 -11.21191
 Alpha  occ. eigenvalues --   -1.59839  -1.39393  -1.19340  -1.09197  -1.08732
 Alpha  occ. eigenvalues --   -1.04753  -1.04184  -0.96632  -0.95574  -0.87643
 Alpha  occ. eigenvalues --   -0.86145  -0.82419  -0.80289  -0.78926  -0.77472
 Alpha  occ. eigenvalues --   -0.72036  -0.71161  -0.70463  -0.66103  -0.64986
 Alpha  occ. eigenvalues --   -0.64705  -0.62218  -0.61327  -0.60027  -0.58205
 Alpha  occ. eigenvalues --   -0.55961  -0.55232  -0.53298  -0.53078  -0.53047
 Alpha  occ. eigenvalues --   -0.52757  -0.50600  -0.48800  -0.48793  -0.48542
 Alpha  occ. eigenvalues --   -0.47389  -0.46437  -0.46351  -0.44801  -0.44442
 Alpha  occ. eigenvalues --   -0.37317  -0.36339
 Alpha virt. eigenvalues --    0.05063   0.11239   0.16502   0.18694   0.22576
 Alpha virt. eigenvalues --    0.23481   0.24818   0.26148   0.27178   0.28538
 Alpha virt. eigenvalues --    0.29673   0.30956   0.30970   0.31461   0.32438

 Mulliken charges:
               1
     1  C   -0.299447
     2  C   -0.303627
     3  C   -0.475964
     4  H    0.152537
     5  H    0.148888
     6  H    0.153987
     7  H    0.157460
     8  H    0.156364
     9  H    0.154399
    10  H    0.165207
    11  C   -0.303513
    12  C   -0.308532
    13  C   -0.479912
    14  H    0.156924
    15  H    0.142709
    16  H    0.161010
    17  H    0.145022
    18  H    0.151527
    19  H    0.162421
    20  H    0.162426
    21  C   -0.173661
    22  C   -0.218668
    23  C   -0.170594
    24  C    0.160038
    25  C   -0.181615
    26  C   -0.229267
    27  H    0.226157
    28  H    0.223398
    29  H    0.275511
    30  H    0.280815
    31  H    0.241168
    32  N    0.488406
    33  O   -0.461181
    34  O   -0.460394
 Sum of Mulliken charges =  -0.00000

 Dipole moment (field-independent basis, Debye):
    X=              1.5571    Y=             -4.6797    Z=             -1.5973  Tot=              5.1841
 Quadrupole moment (field-independent basis, Debye-Ang):
   XX=            -95.1208   YY=            -97.2994   ZZ=            -95.7016
   XY=             13.2651   XZ=              6.2079   YZ=              0.2425

 Normal termination of Gaussian 16 at Thu May  6 02:49:48 2021.
