 Gaussian 16, Revision A.03,
 Gaussian 16:  EM64L-G16RevA.03 25-Dec-2016

 -------------
 #p 6-31g* mp2
 -------------

 ------------------------------------------------------
 Input file generated by CHIRIPA (05-May-2021 14:51:07)
 ------------------------------------------------------
 Symbolic Z-matrix:
 Charge =  0 Multiplicity = 1

                         Standard orientation:
 ---------------------------------------------------------------------
 Center     Atomic      Atomic             Coordinates (Angstroms)
 Number     Number       Type             X           Y           Z
 ---------------------------------------------------------------------
      1          6           0        3.852390    0.642507   -0.365742
      2          6           0        2.841260    1.158189    0.658794
      3          6           0        1.652945    1.869084    0.010465
      4          1           0        4.213264    1.485039   -0.971428
      5          1           0        3.345368   -0.044848   -1.057021
      6          1           0        3.350346    1.843295    1.348778
      7          1           0        2.482894    0.314362    1.262239
      8          1           0        1.119491    1.191149   -0.663651
      9          1           0        1.991872    2.728770   -0.576620
     10          1           0        0.942600    2.229623    0.760986
     11          6           0        5.046053   -0.070544    0.267072
     12          6           0        6.057183   -0.586226   -0.757464
     13          6           0        7.245497   -1.297121   -0.109135
     14          1           0        5.553074    0.616811    0.958351
     15          1           0        4.685179   -0.913075    0.872758
     16          1           0        6.415548    0.257602   -1.360909
     17          1           0        5.548097   -1.271332   -1.447448
     18          1           0        6.906571   -2.156807    0.477950
     19          1           0        7.778951   -0.619186    0.564981
     20          1           0        7.955842   -1.657660   -0.859656
     21          6           0       -3.863235   -0.562507    0.453792
     22          6           0       -2.498833   -0.116209   -0.072716
     23          6           0       -1.336483   -0.677539    0.746822
     24          1           0       -3.965713   -0.247863    1.501380
     25          1           0       -3.908183   -1.660401    0.451357
     26          1           0       -2.456983    0.980541   -0.070589
     27          1           0       -2.399669   -0.431785   -1.119231
     28          1           0       -1.350062   -1.772198    0.735032
     29          1           0       -1.407701   -0.351848    1.789633
     30          1           0       -0.370630   -0.345973    0.353054
     31          6           0       -5.035208   -0.009456   -0.355122
     32          6           0       -6.399609   -0.455755    0.171386
     33          6           0       -7.561960    0.105577   -0.648152
     34          1           0       -4.990260    1.088437   -0.352686
     35          1           0       -4.932729   -0.324101   -1.402710
     36          1           0       -6.498774   -0.140178    1.217901
     37          1           0       -6.441460   -1.552504    0.169260
     38          1           0       -7.490740   -0.220116   -1.690962
     39          1           0       -7.548382    1.200235   -0.636362
     40          1           0       -8.527812   -0.225989   -0.254385
 ---------------------------------------------------------------------

 SCF Done:  E(RHF) =  -470.733033152     A.U. after   11 cycles
 E2 =    -0.1582557153D+01 EUMP2 =    -0.47231559030491D+03

 The electronic state is 1-A.
 Alpha  occ. eigenvalues --  -11.21607 -11.21599 -11.21587 -11.21567 -11.21406
 Alpha  occ. eigenvalues --  -11.21383 -11.21346 -11.21323 -11.21076 -11.21068
 Alpha  occ. eigenvalues --  -11.21059 -11.20985  -1.08436  -1.08403  -1.03558
 Alpha  occ. eigenvalues --   -1.03481  -0.96038  -0.95903  -0.87059  -0.86914
 Alpha  occ. eigenvalues --   -0.79604  -0.79557  -0.78245  -0.78217  -0.65078
 Alpha  occ. eigenvalues --   -0.65034  -0.61027  -0.60892  -0.59413  -0.59242
 Alpha  occ. eigenvalues --   -0.57597  -0.57580  -0.55307  -0.55211  -0.52750
 Alpha  occ. eigenvalues --   -0.52567  -0.52438  -0.52318  -0.49915  -0.49873
 Alpha  occ. eigenvalues --   -0.47942  -0.47842  -0.46622  -0.46597  -0.45785
 Alpha  occ. eigenvalues --   -0.45761  -0.45709  -0.45685  -0.43790  -0.43734
 Alpha virt. eigenvalues --    0.21380   0.23022   0.23532   0.25184   0.26463
 Alpha virt. eigenvalues --    0.26631   0.27221   0.27508   0.27685   0.29182
 Alpha virt. eigenvalues --    0.30099   0.31256   0.31545   0.31826   0.32155

 Mulliken charges:
               1
     1  C   -0.298154
     2  C   -0.302056
     3  C   -0.478220
     4  H    0.149693
     5  H    0.149329
     6  H    0.152261
     7  H    0.153715
     8  H    0.156118
     9  H    0.155817
    10  H    0.161448
    11  C   -0.298353
    12  C   -0.299666
    13  C   -0.475718
    14  H    0.149530
    15  H    0.149892
    16  H    0.151910
    17  H    0.151947
    18  H    0.155242
    19  H    0.155176
    20  H    0.160238
    21  C   -0.298188
    22  C   -0.299474
    23  C   -0.482715
    24  H    0.149560
    25  H    0.149394
    26  H    0.152558
    27  H    0.151294
    28  H    0.154075
    29  H    0.154530
    30  H    0.168946
    31  C   -0.298244
    32  C   -0.299630
    33  C   -0.475691
    34  H    0.149568
    35  H    0.149572
    36  H    0.151901
    37  H    0.151862
    38  H    0.155150
    39  H    0.155190
    40  H    0.160191
 Sum of Mulliken charges =  -0.00000

 Dipole moment (field-independent basis, Debye):
    X=              0.0252    Y=              0.0180    Z=              0.0011  Tot=              0.0310
 Quadrupole moment (field-independent basis, Debye-Ang):
   XX=            -86.3469   YY=            -83.7184   ZZ=            -84.7753
   XY=              1.2002   XZ=             -0.7218   YZ=              0.9191

 Normal termination of Gaussian 16 at Thu May  6 03:39:00 2021.
