 Gaussian 16, Revision A.03,
 Gaussian 16:  EM64L-G16RevA.03 25-Dec-2016

 -------------
 #p 6-31g* mp2
 -------------

 ------------------------------------------------------
 Input file generated by CHIRIPA (05-May-2021 14:53:15)
 ------------------------------------------------------
 Symbolic Z-matrix:
 Charge =  0 Multiplicity = 1

                         Standard orientation:
 ---------------------------------------------------------------------
 Center     Atomic      Atomic             Coordinates (Angstroms)
 Number     Number       Type             X           Y           Z
 ---------------------------------------------------------------------
      1          6           0       -1.780721    1.087682    0.081835
      2          6           0       -1.467357    2.559205    0.354617
      3          6           0        0.033927    2.845361    0.399947
      4          1           0       -1.311429    0.469235    0.859160
      5          1           0       -1.321357    0.792858   -0.871820
      6          1           0       -1.928340    2.851539    1.306799
      7          1           0       -1.937609    3.174235   -0.423340
      8          1           0        0.505392    2.581083   -0.552145
      9          1           0        0.514714    2.256554    1.187824
     10          1           0        0.235261    3.903108    0.596153
     11          6           0       -3.277488    0.785876    0.033562
     12          6           0       -3.590852   -0.685647   -0.239219
     13          6           0       -5.092136   -0.971803   -0.284549
     14          1           0       -3.736851    1.080701    0.987218
     15          1           0       -3.746779    1.404323   -0.743762
     16          1           0       -3.120599   -1.300677    0.538738
     17          1           0       -3.129868   -0.977980   -1.191402
     18          1           0       -5.572922   -0.382995   -1.072427
     19          1           0       -5.563601   -0.707525    0.667543
     20          1           0       -5.293469   -2.029549   -0.480756
     21          6           0        0.659126   -2.830602    0.431791
     22          6           0        0.815314   -2.386331   -0.885308
     23          6           0        1.542826   -1.224815   -1.161273
     24          6           0        2.103160   -0.528960   -0.091179
     25          6           0        1.965221   -0.946078    1.231801
     26          6           0        1.233565   -2.110328    1.484286
     27          1           0        0.092367   -3.733957    0.637048
     28          1           0        0.370306   -2.943690   -1.704674
     29          1           0        1.679340   -0.858356   -2.171466
     30          1           0        2.420518   -0.369255    2.027664
     31          1           0        1.113901   -2.452995    2.508154
     32          7           0        2.875539    0.702132   -0.370903
     33          8           0        3.359323    1.297267    0.589515
     34          8           0        2.982518    1.048615   -1.545272
 ---------------------------------------------------------------------

 SCF Done:  E(RHF) =  -669.536167072     A.U. after   15 cycles
 E2 =    -0.2094314234D+01 EUMP2 =    -0.67163048130607D+03

 The electronic state is 1-A.
 Alpha  occ. eigenvalues --  -20.60854 -20.60842 -15.85854 -11.31222 -11.27803
 Alpha  occ. eigenvalues --  -11.27790 -11.27541 -11.26831 -11.26809 -11.21867
 Alpha  occ. eigenvalues --  -11.21446 -11.21342 -11.21305 -11.21238 -11.20474
 Alpha  occ. eigenvalues --   -1.59894  -1.39454  -1.19397  -1.08792  -1.08409
 Alpha  occ. eigenvalues --   -1.04806  -1.03466  -0.95888  -0.95631  -0.86904
 Alpha  occ. eigenvalues --   -0.86203  -0.82471  -0.79563  -0.78210  -0.77518
 Alpha  occ. eigenvalues --   -0.72098  -0.71199  -0.70510  -0.65070  -0.65040
 Alpha  occ. eigenvalues --   -0.64812  -0.62159  -0.60865  -0.59303  -0.57498
 Alpha  occ. eigenvalues --   -0.55307  -0.55175  -0.53189  -0.52902  -0.52549
 Alpha  occ. eigenvalues --   -0.52268  -0.49854  -0.48863  -0.48851  -0.47854
 Alpha  occ. eigenvalues --   -0.46636  -0.45708  -0.45692  -0.44746  -0.43702
 Alpha  occ. eigenvalues --   -0.37348  -0.36381
 Alpha virt. eigenvalues --    0.04987   0.11167   0.16463   0.21272   0.22844
 Alpha virt. eigenvalues --    0.24213   0.26382   0.27113   0.27419   0.27854
 Alpha virt. eigenvalues --    0.28414   0.30846   0.31051   0.31750   0.32362

 Mulliken charges:
               1
     1  C   -0.299895
     2  C   -0.300093
     3  C   -0.482204
     4  H    0.148945
     5  H    0.148043
     6  H    0.149618
     7  H    0.151597
     8  H    0.161744
     9  H    0.154882
    10  H    0.164045
    11  C   -0.298075
    12  C   -0.297829
    13  C   -0.475458
    14  H    0.149225
    15  H    0.150498
    16  H    0.147803
    17  H    0.148599
    18  H    0.156657
    19  H    0.155837
    20  H    0.157529
    21  C   -0.170060
    22  C   -0.216947
    23  C   -0.171132
    24  C    0.162047
    25  C   -0.172606
    26  C   -0.218975
    27  H    0.225978
    28  H    0.223717
    29  H    0.275343
    30  H    0.275574
    31  H    0.223571
    32  N    0.490111
    33  O   -0.457903
    34  O   -0.460185
 Sum of Mulliken charges =  -0.00000

 Dipole moment (field-independent basis, Debye):
    X=             -2.5594    Y=             -4.3044    Z=              0.9723  Tot=              5.1013
 Quadrupole moment (field-independent basis, Debye-Ang):
   XX=           -108.1640   YY=            -90.6253   ZZ=            -89.1858
   XY=             -7.9328   XZ=              3.2905   YZ=              0.2398

 Normal termination of Gaussian 16 at Thu May  6 17:09:10 2021.
