 Gaussian 16, Revision A.03,
 Gaussian 16:  EM64L-G16RevA.03 25-Dec-2016

 -------------
 #p 6-31g* mp2
 -------------

 ------------------------------------------------------
 Input file generated by CHIRIPA (05-May-2021 14:57:21)
 ------------------------------------------------------
 Symbolic Z-matrix:
 Charge =  0 Multiplicity = 1

                         Standard orientation:
 ---------------------------------------------------------------------
 Center     Atomic      Atomic             Coordinates (Angstroms)
 Number     Number       Type             X           Y           Z
 ---------------------------------------------------------------------
      1          6           0       -1.535967    2.271010    0.601477
      2          6           0       -1.941293    2.024779   -0.714427
      3          6           0       -2.839029    0.991595   -0.999292
      4          6           0       -3.313687    0.220729    0.060782
      5          6           0       -2.928717    0.441289    1.382312
      6          6           0       -2.030101    1.479874    1.643809
      7          1           0       -0.838242    3.075710    0.813690
      8          1           0       -1.559175    2.637580   -1.525911
      9          1           0       -3.169467    0.779120   -2.008788
     10          1           0       -3.326842   -0.186502    2.170215
     11          1           0       -1.717064    1.668809    2.666724
     12          7           0       -4.264545   -0.875915   -0.228422
     13          8           0       -4.668188   -1.540763    0.723254
     14          8           0       -4.588180   -1.049852   -1.401300
     15          6           0        0.928994   -1.580580   -0.216755
     16          6           0        2.046581   -2.242152    0.302711
     17          6           0        3.286020   -1.598621    0.367573
     18          6           0        3.372366   -0.287478   -0.097976
     19          6           0        2.277206    0.398379   -0.620961
     20          6           0        1.047665   -0.264745   -0.676123
     21          1           0       -0.029987   -2.088100   -0.263374
     22          1           0        1.957368   -3.264059    0.660190
     23          1           0        4.167380   -2.087215    0.764936
     24          1           0        2.397213    1.416925   -0.969645
     25          1           0        0.181426    0.251511   -1.080049
     26          7           0        4.679266    0.404171   -0.034443
     27          8           0        4.729101    1.559410   -0.451066
     28          8           0        5.629033   -0.222052    0.430773
 ---------------------------------------------------------------------

 SCF Done:  E(RHF) =  -868.337461951     A.U. after   16 cycles
 E2 =    -0.2601904203D+01 EUMP2 =    -0.87093936615381D+03

 The electronic state is 1-A.
 Alpha  occ. eigenvalues --  -20.61717 -20.61712 -20.61027 -20.61012 -15.86776
 Alpha  occ. eigenvalues --  -15.86071 -11.32264 -11.31388 -11.28856 -11.28794
 Alpha  occ. eigenvalues --  -11.28504 -11.27945 -11.27901 -11.27828 -11.27747
 Alpha  occ. eigenvalues --  -11.27570 -11.26900 -11.26785  -1.60798  -1.60099
 Alpha  occ. eigenvalues --   -1.40344  -1.39655  -1.20447  -1.19524  -1.09793
 Alpha  occ. eigenvalues --   -1.08914  -1.05847  -1.04916  -0.96601  -0.95770
 Alpha  occ. eigenvalues --   -0.87213  -0.86307  -0.83420  -0.82608  -0.78467
 Alpha  occ. eigenvalues --   -0.77684  -0.72975  -0.72289  -0.72142  -0.71462
 Alpha  occ. eigenvalues --   -0.71423  -0.70612  -0.66056  -0.65790  -0.65163
 Alpha  occ. eigenvalues --   -0.64941  -0.63151  -0.62312  -0.56259  -0.55397
 Alpha  occ. eigenvalues --   -0.54347  -0.53880  -0.53236  -0.52787  -0.49749
 Alpha  occ. eigenvalues --   -0.49732  -0.49054  -0.49035  -0.45721  -0.45072
 Alpha  occ. eigenvalues --   -0.38452  -0.37526  -0.37389  -0.36470
 Alpha virt. eigenvalues --    0.04004   0.04864   0.10123   0.11125   0.15430
 Alpha virt. eigenvalues --    0.16417   0.20326   0.21576   0.26155   0.27216
 Alpha virt. eigenvalues --    0.27808   0.28237   0.30062   0.31402   0.31709

 Mulliken charges:
               1
     1  C   -0.166782
     2  C   -0.234570
     3  C   -0.175941
     4  C    0.156391
     5  C   -0.171441
     6  C   -0.216188
     7  H    0.232121
     8  H    0.227553
     9  H    0.278741
    10  H    0.278653
    11  H    0.229282
    12  N    0.487107
    13  O   -0.458049
    14  O   -0.458396
    15  C   -0.174888
    16  C   -0.218539
    17  C   -0.172273
    18  C    0.159168
    19  C   -0.177924
    20  C   -0.219943
    21  H    0.228967
    22  H    0.225155
    23  H    0.275715
    24  H    0.269684
    25  H    0.230542
    26  N    0.488057
    27  O   -0.462797
    28  O   -0.459406
 Sum of Mulliken charges =  -0.00000

 Dipole moment (field-independent basis, Debye):
    X=             -1.5324    Y=              1.4506    Z=              0.9752  Tot=              2.3245
 Quadrupole moment (field-independent basis, Debye-Ang):
   XX=           -158.5171   YY=            -98.5538   ZZ=            -99.5830
   XY=            -21.2285   XZ=             -2.8822   YZ=             -2.2069

 Normal termination of Gaussian 16 at Wed May  5 20:55:01 2021.
