 Gaussian 16, Revision A.03,
 Gaussian 16:  EM64L-G16RevA.03 25-Dec-2016

 -------------
 #p 6-31g* mp2
 -------------

 ------------------------------------------------------
 Input file generated by CHIRIPA (05-May-2021 14:57:22)
 ------------------------------------------------------
 Symbolic Z-matrix:
 Charge =  0 Multiplicity = 1

                         Standard orientation:
 ---------------------------------------------------------------------
 Center     Atomic      Atomic             Coordinates (Angstroms)
 Number     Number       Type             X           Y           Z
 ---------------------------------------------------------------------
      1          6           0       -1.725630    0.015413    0.504467
      2          6           0       -2.457639    1.184873    0.274145
      3          6           0       -3.822251    1.121393   -0.023097
      4          6           0       -4.425587   -0.133906   -0.082244
      5          6           0       -3.723342   -1.317002    0.142317
      6          6           0       -2.359700   -1.229597    0.437935
      7          1           0       -0.665944    0.074018    0.734741
      8          1           0       -1.967839    2.153139    0.325154
      9          1           0       -4.412836    2.010926   -0.205742
     10          1           0       -4.239280   -2.267730    0.084510
     11          1           0       -1.793717   -2.139473    0.616352
     12          7           0       -5.869726   -0.213774   -0.396061
     13          8           0       -6.377895   -1.331926   -0.442295
     14          8           0       -6.466129    0.843290   -0.589855
     15          6           0        2.222379    1.534471    0.741370
     16          6           0        3.177537    2.055060   -0.137938
     17          6           0        4.270485    1.280779   -0.538566
     18          6           0        4.377562   -0.015931   -0.038199
     19          6           0        3.442488   -0.562934    0.839133
     20          6           0        2.357664    0.229436    1.226243
     21          1           0        1.376506    2.142976    1.047336
     22          1           0        3.075036    3.068241   -0.516095
     23          1           0        5.024560    1.658806   -1.218188
     24          1           0        3.571673   -1.576362    1.199263
     25          1           0        1.617408   -0.177481    1.909241
     26          7           0        5.530318   -0.845202   -0.455170
     27          8           0        5.601853   -1.984702   -0.000134
     28          8           0        6.340484   -0.339983   -1.229136
 ---------------------------------------------------------------------

 SCF Done:  E(RHF) =  -868.336311038     A.U. after   16 cycles
 E2 =    -0.2600590240D+01 EUMP2 =    -0.87093690127815D+03

 The electronic state is 1-A.
 Alpha  occ. eigenvalues --  -20.61510 -20.61502 -20.61211 -20.61204 -15.86570
 Alpha  occ. eigenvalues --  -15.86269 -11.32147 -11.31757 -11.28782 -11.28708
 Alpha  occ. eigenvalues --  -11.28634 -11.28362 -11.28322 -11.28175 -11.27921
 Alpha  occ. eigenvalues --  -11.27769 -11.27471 -11.27387  -1.60579  -1.60283
 Alpha  occ. eigenvalues --   -1.40127  -1.39833  -1.20360  -1.19956  -1.09742
 Alpha  occ. eigenvalues --   -1.09345  -1.05792  -1.05378  -0.96532  -0.96154
 Alpha  occ. eigenvalues --   -0.87202  -0.86786  -0.83348  -0.82984  -0.78344
 Alpha  occ. eigenvalues --   -0.77992  -0.72788  -0.72486  -0.71904  -0.71607
 Alpha  occ. eigenvalues --   -0.71574  -0.71076  -0.66024  -0.65831  -0.65620
 Alpha  occ. eigenvalues --   -0.65392  -0.63128  -0.62724  -0.56352  -0.55983
 Alpha  occ. eigenvalues --   -0.54072  -0.53877  -0.53696  -0.53486  -0.49562
 Alpha  occ. eigenvalues --   -0.49525  -0.49255  -0.49231  -0.45485  -0.45210
 Alpha  occ. eigenvalues --   -0.38382  -0.37961  -0.37379  -0.36974
 Alpha virt. eigenvalues --    0.04184   0.04547   0.10037   0.10669   0.15594
 Alpha virt. eigenvalues --    0.15968   0.18152   0.22130   0.24653   0.25441
 Alpha virt. eigenvalues --    0.27621   0.29162   0.30047   0.30697   0.32857

 Mulliken charges:
               1
     1  C   -0.174183
     2  C   -0.219988
     3  C   -0.169649
     4  C    0.158897
     5  C   -0.169524
     6  C   -0.220115
     7  H    0.223022
     8  H    0.217873
     9  H    0.276834
    10  H    0.277898
    11  H    0.224548
    12  N    0.487927
    13  O   -0.458510
    14  O   -0.459374
    15  C   -0.172072
    16  C   -0.217562
    17  C   -0.168861
    18  C    0.159449
    19  C   -0.169881
    20  C   -0.223798
    21  H    0.221430
    22  H    0.226662
    23  H    0.279331
    24  H    0.277941
    25  H    0.219478
    26  N    0.487984
    27  O   -0.458460
    28  O   -0.457295
 Sum of Mulliken charges =  -0.00000

 Dipole moment (field-independent basis, Debye):
    X=              1.2090    Y=              3.1491    Z=              2.4396  Tot=              4.1630
 Quadrupole moment (field-independent basis, Debye-Ang):
   XX=           -183.8852   YY=            -97.1739   ZZ=           -105.0186
   XY=             12.4914   XZ=              0.0496   YZ=             -3.3048

 Normal termination of Gaussian 16 at Thu May  6 08:07:32 2021.
