 Gaussian 16, Revision A.03,
 Gaussian 16:  EM64L-G16RevA.03 25-Dec-2016

 -------------
 #p 6-31g* mp2
 -------------

 ------------------------------------------------------
 Input file generated by CHIRIPA (05-May-2021 14:57:26)
 ------------------------------------------------------
 Symbolic Z-matrix:
 Charge =  0 Multiplicity = 1

                         Standard orientation:
 ---------------------------------------------------------------------
 Center     Atomic      Atomic             Coordinates (Angstroms)
 Number     Number       Type             X           Y           Z
 ---------------------------------------------------------------------
      1          6           0        1.887867   -2.157037    1.507843
      2          6           0        2.251025   -2.136394    0.157209
      3          6           0        2.528118   -0.925933   -0.485093
      4          6           0        2.431883    0.250314    0.256845
      5          6           0        2.072585    0.262471    1.603710
      6          6           0        1.799961   -0.959650    2.225517
      7          1           0        1.674350   -3.101881    1.998838
      8          1           0        2.320094   -3.064752   -0.402634
      9          1           0        2.811491   -0.881076   -1.529653
     10          1           0        2.012166    1.204219    2.135574
     11          1           0        1.518161   -0.972655    3.274548
     12          7           0        2.722863    1.537946   -0.412283
     13          8           0        2.630960    2.560448    0.263498
     14          8           0        3.037327    1.500310   -1.599858
     15          6           0       -3.872128    1.395799    1.080329
     16          6           0       -2.862520    1.986317    0.313191
     17          6           0       -2.032016    1.201611   -0.492444
     18          6           0       -2.240052   -0.176720   -0.507060
     19          6           0       -3.237288   -0.794650    0.245916
     20          6           0       -4.055965    0.009643    1.044306
     21          1           0       -4.512690    2.012985    1.703351
     22          1           0       -2.717449    3.062572    0.339199
     23          1           0       -1.242769    1.632669   -1.096344
     24          1           0       -3.357661   -1.870174    0.199256
     25          1           0       -4.839239   -0.451698    1.639026
     26          7           0       -1.367095   -1.017821   -1.356114
     27          8           0       -1.570840   -2.229887   -1.351487
     28          8           0       -0.495655   -0.449085   -2.010154
 ---------------------------------------------------------------------

 SCF Done:  E(RHF) =  -868.339379476     A.U. after   16 cycles
 E2 =    -0.2601102160D+01 EUMP2 =    -0.87094048163679D+03

 The electronic state is 1-A.
 Alpha  occ. eigenvalues --  -20.61044 -20.61001 -20.60272 -20.60205 -15.86036
 Alpha  occ. eigenvalues --  -15.85286 -11.31284 -11.30461 -11.27876 -11.27775
 Alpha  occ. eigenvalues --  -11.27568 -11.27156 -11.26939 -11.26870 -11.26815
 Alpha  occ. eigenvalues --  -11.26776 -11.26130 -11.25908  -1.60080  -1.59322
 Alpha  occ. eigenvalues --   -1.39641  -1.38876  -1.19447  -1.18660  -1.08870
 Alpha  occ. eigenvalues --   -1.08094  -1.04825  -1.04025  -0.95726  -0.94950
 Alpha  occ. eigenvalues --   -0.86232  -0.85435  -0.82557  -0.81781  -0.77617
 Alpha  occ. eigenvalues --   -0.76837  -0.72288  -0.71516  -0.71403  -0.70627
 Alpha  occ. eigenvalues --   -0.70554  -0.69781  -0.65101  -0.64824  -0.64312
 Alpha  occ. eigenvalues --   -0.64032  -0.62165  -0.61370  -0.55343  -0.54574
 Alpha  occ. eigenvalues --   -0.53174  -0.52909  -0.52388  -0.52116  -0.49044
 Alpha  occ. eigenvalues --   -0.49035  -0.48282  -0.48248  -0.45090  -0.44316
 Alpha  occ. eigenvalues --   -0.37450  -0.36657  -0.36420  -0.35543
 Alpha virt. eigenvalues --    0.04874   0.05704   0.11201   0.12079   0.16430
 Alpha virt. eigenvalues --    0.17190   0.21386   0.22117   0.27318   0.28062
 Alpha virt. eigenvalues --    0.28236   0.29003   0.30912   0.31600   0.32463

 Mulliken charges:
               1
     1  C   -0.171925
     2  C   -0.217414
     3  C   -0.153768
     4  C    0.153794
     5  C   -0.174540
     6  C   -0.221335
     7  H    0.223751
     8  H    0.227982
     9  H    0.280885
    10  H    0.270295
    11  H    0.218442
    12  N    0.487429
    13  O   -0.469396
    14  O   -0.455675
    15  C   -0.171201
    16  C   -0.219172
    17  C   -0.172022
    18  C    0.159333
    19  C   -0.172140
    20  C   -0.219271
    21  H    0.225981
    22  H    0.227797
    23  H    0.281243
    24  H    0.273223
    25  H    0.222425
    26  N    0.489572
    27  O   -0.465133
    28  O   -0.459160
 Sum of Mulliken charges =  -0.00000

 Dipole moment (field-independent basis, Debye):
    X=             -4.1129    Y=             -1.6423    Z=              5.0305  Tot=              6.7022
 Quadrupole moment (field-independent basis, Debye-Ang):
   XX=            -96.0634   YY=           -104.3104   ZZ=           -103.6777
   XY=            -16.5420   XZ=             -2.2487   YZ=             -1.5982

 Normal termination of Gaussian 16 at Thu May  6 09:57:57 2021.
