 Gaussian 16, Revision A.03,
 Gaussian 16:  EM64L-G16RevA.03 25-Dec-2016

 -------------
 #p 6-31g* mp2
 -------------

 ------------------------------------------------------
 Input file generated by CHIRIPA (05-May-2021 14:55:25)
 ------------------------------------------------------
 Symbolic Z-matrix:
 Charge =  0 Multiplicity = 1

                         Standard orientation:
 ---------------------------------------------------------------------
 Center     Atomic      Atomic             Coordinates (Angstroms)
 Number     Number       Type             X           Y           Z
 ---------------------------------------------------------------------
      1          6           0        1.146021   -0.532302    2.275278
      2          6           0        0.638159   -1.030094    1.070787
      3          6           0        1.391206   -0.949914   -0.104389
      4          6           0        2.653937   -0.363001   -0.038554
      5          6           0        3.187506    0.142045    1.146150
      6          6           0        2.416834    0.051150    2.309056
      7          1           0        0.554190   -0.598750    3.183418
      8          1           0       -0.348455   -1.483729    1.041578
      9          1           0        1.022365   -1.327273   -1.050420
     10          1           0        4.174336    0.588788    1.143903
     11          1           0        2.813797    0.438582    3.243059
     12          7           0        3.460483   -0.272446   -1.276165
     13          8           0        4.570144    0.249235   -1.191684
     14          8           0        2.967721   -0.724866   -2.307251
     15          6           0       -3.076091    1.174271   -0.501334
     16          6           0       -2.019858    1.946261    0.290112
     17          6           0       -1.729029    3.325802   -0.301561
     18          1           0       -2.738800    1.065149   -1.541176
     19          1           0       -4.003146    1.763273   -0.533618
     20          1           0       -1.095504    1.355360    0.322070
     21          1           0       -2.359617    2.053391    1.328236
     22          1           0       -2.637214    3.936960   -0.318512
     23          1           0       -1.365918    3.234963   -1.330396
     24          1           0       -0.971215    3.860304    0.279718
     25          6           0       -3.377689   -0.206781    0.077859
     26          6           0       -4.433923   -0.978770   -0.713587
     27          6           0       -4.724751   -2.358313   -0.121913
     28          1           0       -2.450635   -0.795783    0.110143
     29          1           0       -3.714981   -0.097658    1.117701
     30          1           0       -4.094164   -1.085901   -1.751712
     31          1           0       -5.358277   -0.387871   -0.745545
     32          1           0       -5.087863   -2.267473    0.906920
     33          1           0       -3.816567   -2.969470   -0.104962
     34          1           0       -5.482566   -2.892814   -0.703194
 ---------------------------------------------------------------------

 SCF Done:  E(RHF) =  -669.535196569     A.U. after   15 cycles
 E2 =    -0.2092762484D+01 EUMP2 =    -0.67162795905312D+03

 The electronic state is 1-A.
 Alpha  occ. eigenvalues --  -20.60805 -20.60800 -15.85860 -11.31241 -11.27820
 Alpha  occ. eigenvalues --  -11.27805 -11.27544 -11.26820 -11.26803 -11.22195
 Alpha  occ. eigenvalues --  -11.22131 -11.21915 -11.21829 -11.21675 -11.21291
 Alpha  occ. eigenvalues --   -1.59880  -1.39434  -1.19420  -1.08984  -1.08801
 Alpha  occ. eigenvalues --   -1.04829  -1.03990  -0.96460  -0.95636  -0.87468
 Alpha  occ. eigenvalues --   -0.86219  -0.82475  -0.80072  -0.78824  -0.77510
 Alpha  occ. eigenvalues --   -0.72077  -0.71204  -0.70512  -0.65675  -0.65067
 Alpha  occ. eigenvalues --   -0.64788  -0.62174  -0.61388  -0.59831  -0.58070
 Alpha  occ. eigenvalues --   -0.55765  -0.55306  -0.53228  -0.53090  -0.52973
 Alpha  occ. eigenvalues --   -0.52803  -0.50393  -0.48841  -0.48832  -0.48380
 Alpha  occ. eigenvalues --   -0.47110  -0.46320  -0.46246  -0.44835  -0.44276
 Alpha  occ. eigenvalues --   -0.37371  -0.36379
 Alpha virt. eigenvalues --    0.05007   0.11173   0.16412   0.20054   0.22801
 Alpha virt. eigenvalues --    0.23740   0.25103   0.26538   0.27438   0.28313
 Alpha virt. eigenvalues --    0.29270   0.30313   0.31243   0.31564   0.31812

 Mulliken charges:
               1
     1  C   -0.171228
     2  C   -0.220320
     3  C   -0.173672
     4  C    0.158990
     5  C   -0.170742
     6  C   -0.218435
     7  H    0.226784
     8  H    0.230647
     9  H    0.275401
    10  H    0.275871
    11  H    0.223753
    12  N    0.488148
    13  O   -0.460199
    14  O   -0.460461
    15  C   -0.298377
    16  C   -0.306781
    17  C   -0.475711
    18  H    0.152476
    19  H    0.151662
    20  H    0.157862
    21  H    0.147805
    22  H    0.155127
    23  H    0.158471
    24  H    0.160725
    25  C   -0.301021
    26  C   -0.299874
    27  C   -0.475687
    28  H    0.140243
    29  H    0.148926
    30  H    0.154634
    31  H    0.155067
    32  H    0.155021
    33  H    0.151049
    34  H    0.163847
 Sum of Mulliken charges =  -0.00000

 Dipole moment (field-independent basis, Debye):
    X=             -2.8677    Y=             -0.2812    Z=              4.3334  Tot=              5.2039
 Quadrupole moment (field-independent basis, Debye-Ang):
   XX=           -106.6270   YY=            -95.0469   ZZ=            -93.8804
   XY=              1.4866   XZ=             13.8980   YZ=              0.2238

 Normal termination of Gaussian 16 at Thu May  6 04:49:43 2021.
