 Gaussian 16, Revision A.03,
 Gaussian 16:  EM64L-G16RevA.03 25-Dec-2016

 -------------
 #p 6-31g* mp2
 -------------

 ------------------------------------------------------
 Input file generated by CHIRIPA (05-May-2021 14:55:18)
 ------------------------------------------------------
 Symbolic Z-matrix:
 Charge =  0 Multiplicity = 1

                         Standard orientation:
 ---------------------------------------------------------------------
 Center     Atomic      Atomic             Coordinates (Angstroms)
 Number     Number       Type             X           Y           Z
 ---------------------------------------------------------------------
      1          6           0        1.706018    1.371726    0.844397
      2          6           0        2.651292    1.862063   -0.062547
      3          6           0        3.718836    1.060714   -0.478165
      4          6           0        3.810864   -0.231923    0.035557
      5          6           0        2.885081   -0.749106    0.940398
      6          6           0        1.825718    0.070001    1.342097
      7          1           0        0.879902    2.001130    1.161852
      8          1           0        2.560850    2.872601   -0.450719
      9          1           0        4.464768    1.415039   -1.179205
     10          1           0        3.001778   -1.760654    1.309951
     11          1           0        1.093088   -0.313451    2.046556
     12          7           0        4.936694   -1.089675   -0.397072
     13          8           0        4.995365   -2.224949    0.070205
     14          8           0        5.739131   -0.610466   -1.195251
     15          6           0       -4.991232   -0.509894    0.125361
     16          6           0       -6.339902   -0.774607   -0.544716
     17          6           0       -7.029549   -2.029962   -0.009681
     18          1           0       -4.337918   -1.380524   -0.023396
     19          1           0       -5.141081   -0.413180    1.209605
     20          1           0       -6.187747   -0.869417   -1.627526
     21          1           0       -6.990015    0.096833   -0.394510
     22          1           0       -7.210258   -1.941241    1.066457
     23          1           0       -6.403432   -2.912981   -0.173564
     24          1           0       -7.991891   -2.200251   -0.502388
     25          6           0       -4.289571    0.741715   -0.398920
     26          6           0       -2.940902    1.006427    0.271156
     27          6           0       -2.251254    2.261783   -0.263878
     28          1           0       -4.139722    0.645001   -1.483165
     29          1           0       -4.942885    1.612345   -0.250163
     30          1           0       -2.290788    0.134988    0.120950
     31          1           0       -3.093056    1.101238    1.353966
     32          1           0       -2.877371    3.144802   -0.099995
     33          1           0       -2.070545    2.173062   -1.340016
     34          1           0       -1.288913    2.432072    0.228828
 ---------------------------------------------------------------------

 SCF Done:  E(RHF) =  -669.535440411     A.U. after   15 cycles
 E2 =    -0.2090923296D+01 EUMP2 =    -0.67162636370726D+03

 The electronic state is 1-A.
 Alpha  occ. eigenvalues --  -20.60755 -20.60750 -15.85809 -11.31175 -11.27742
 Alpha  occ. eigenvalues --  -11.27738 -11.27473 -11.26758 -11.26748 -11.22457
 Alpha  occ. eigenvalues --  -11.22092 -11.22036 -11.22021 -11.21896 -11.21422
 Alpha  occ. eigenvalues --   -1.59831  -1.39384  -1.19347  -1.09051  -1.08741
 Alpha  occ. eigenvalues --   -1.04748  -1.04178  -0.96633  -0.95576  -0.87651
 Alpha  occ. eigenvalues --   -0.86145  -0.82410  -0.80250  -0.78834  -0.77454
 Alpha  occ. eigenvalues --   -0.72026  -0.71154  -0.70483  -0.65670  -0.64998
 Alpha  occ. eigenvalues --   -0.64753  -0.62095  -0.61558  -0.60076  -0.58258
 Alpha  occ. eigenvalues --   -0.55894  -0.55289  -0.53337  -0.53103  -0.52979
 Alpha  occ. eigenvalues --   -0.52839  -0.50551  -0.48788  -0.48781  -0.48560
 Alpha  occ. eigenvalues --   -0.47266  -0.46382  -0.46281  -0.44789  -0.44430
 Alpha  occ. eigenvalues --   -0.37316  -0.36353
 Alpha virt. eigenvalues --    0.05056   0.11290   0.16465   0.19965   0.22488
 Alpha virt. eigenvalues --    0.23898   0.26013   0.26099   0.26724   0.27462
 Alpha virt. eigenvalues --    0.28547   0.30282   0.30827   0.31459   0.32509

 Mulliken charges:
               1
     1  C   -0.172097
     2  C   -0.219696
     3  C   -0.171036
     4  C    0.158614
     5  C   -0.171062
     6  C   -0.220098
     7  H    0.230097
     8  H    0.223727
     9  H    0.275575
    10  H    0.275516
    11  H    0.224034
    12  N    0.488031
    13  O   -0.460487
    14  O   -0.460443
    15  C   -0.298858
    16  C   -0.300169
    17  C   -0.476086
    18  H    0.150372
    19  H    0.149366
    20  H    0.153097
    21  H    0.152472
    22  H    0.155286
    23  H    0.155928
    24  H    0.161724
    25  C   -0.298759
    26  C   -0.301060
    27  C   -0.476421
    28  H    0.151825
    29  H    0.150973
    30  H    0.152563
    31  H    0.150458
    32  H    0.158501
    33  H    0.160111
    34  H    0.148004
 Sum of Mulliken charges =  -0.00000

 Dipole moment (field-independent basis, Debye):
    X=             -4.1380    Y=              2.9933    Z=              1.4643  Tot=              5.3130
 Quadrupole moment (field-independent basis, Debye-Ang):
   XX=           -124.5703   YY=            -94.2212   ZZ=            -93.0825
   XY=             13.2106   XZ=              4.5372   YZ=             -2.1834

 Normal termination of Gaussian 16 at Thu May  6 10:45:24 2021.
