 Gaussian 16, Revision A.03,
 Gaussian 16:  EM64L-G16RevA.03 25-Dec-2016

 -------------
 #p 6-31g* mp2
 -------------

 ------------------------------------------------------
 Input file generated by CHIRIPA (05-May-2021 14:53:13)
 ------------------------------------------------------
 Symbolic Z-matrix:
 Charge =  0 Multiplicity = 1

                         Standard orientation:
 ---------------------------------------------------------------------
 Center     Atomic      Atomic             Coordinates (Angstroms)
 Number     Number       Type             X           Y           Z
 ---------------------------------------------------------------------
      1          6           0       -3.678006   -0.391007   -0.187746
      2          6           0       -3.031909   -1.761009   -0.396648
      3          6           0       -4.029285   -2.819056   -0.869479
      4          1           0       -4.491063   -0.484051    0.545211
      5          1           0       -4.141549   -0.064606   -1.129014
      6          1           0       -2.568526   -2.084108    0.544363
      7          1           0       -2.220170   -1.664656   -1.129050
      8          1           0       -4.483449   -2.522631   -1.820515
      9          1           0       -4.833784   -2.944466   -0.137595
     10          1           0       -3.546216   -3.790684   -1.012463
     11          6           0       -2.693622    0.677296    0.284951
     12          6           0       -3.339719    2.047297    0.493852
     13          6           0       -2.342342    3.105345    0.966684
     14          1           0       -2.230078    0.350894    1.226219
     15          1           0       -1.880565    0.770339   -0.448006
     16          1           0       -4.151457    1.950944    1.226254
     17          1           0       -3.803101    2.370396   -0.447158
     18          1           0       -1.537844    3.230755    0.234800
     19          1           0       -1.888179    2.808920    1.917720
     20          1           0       -2.825411    4.076972    1.109668
     21          6           0        2.561293   -2.487167    0.809653
     22          6           0        1.331800   -1.843590    0.634508
     23          6           0        1.279713   -0.527605    0.165448
     24          6           0        2.481920    0.117807   -0.119916
     25          6           0        3.722508   -0.496432    0.044219
     26          6           0        3.750626   -1.812724    0.514469
     27          1           0        2.592446   -3.509575    1.174492
     28          1           0        0.406553   -2.364916    0.862944
     29          1           0        0.341658   -0.005568    0.020712
     30          1           0        4.628034    0.049129   -0.192009
     31          1           0        4.706911   -2.310040    0.649529
     32          7           0        2.439465    1.511143   -0.617119
     33          8           0        3.512800    2.057905   -0.861337
     34          8           0        1.333659    2.030097   -0.753193
 ---------------------------------------------------------------------

 SCF Done:  E(RHF) =  -669.536128391     A.U. after   15 cycles
 E2 =    -0.2092622592D+01 EUMP2 =    -0.67162875098264D+03

 The electronic state is 1-A.
 Alpha  occ. eigenvalues --  -20.60782 -20.60777 -15.85826 -11.31111 -11.27697
 Alpha  occ. eigenvalues --  -11.27610 -11.27430 -11.26704 -11.26656 -11.22247
 Alpha  occ. eigenvalues --  -11.21729 -11.21635 -11.21562 -11.21468 -11.20511
 Alpha  occ. eigenvalues --   -1.59849  -1.39405  -1.19287  -1.08706  -1.08698
 Alpha  occ. eigenvalues --   -1.04675  -1.03676  -0.96090  -0.95545  -0.87111
 Alpha  occ. eigenvalues --   -0.86081  -0.82378  -0.79803  -0.78566  -0.77392
 Alpha  occ. eigenvalues --   -0.72048  -0.71165  -0.70403  -0.65338  -0.64940
 Alpha  occ. eigenvalues --   -0.64672  -0.62034  -0.61055  -0.59532  -0.57710
 Alpha  occ. eigenvalues --   -0.55352  -0.55191  -0.53020  -0.52869  -0.52781
 Alpha  occ. eigenvalues --   -0.52404  -0.50028  -0.48811  -0.48795  -0.48072
 Alpha  occ. eigenvalues --   -0.46841  -0.46003  -0.45894  -0.44820  -0.43961
 Alpha  occ. eigenvalues --   -0.37278  -0.36277
 Alpha virt. eigenvalues --    0.05077   0.11361   0.16566   0.19984   0.22978
 Alpha virt. eigenvalues --    0.23752   0.24965   0.25530   0.27916   0.28242
 Alpha virt. eigenvalues --    0.29865   0.30619   0.31454   0.31659   0.32313

 Mulliken charges:
               1
     1  C   -0.296533
     2  C   -0.304083
     3  C   -0.475164
     4  H    0.151245
     5  H    0.153536
     6  H    0.144338
     7  H    0.151538
     8  H    0.158883
     9  H    0.157018
    10  H    0.158747
    11  C   -0.310367
    12  C   -0.298100
    13  C   -0.482512
    14  H    0.144285
    15  H    0.158634
    16  H    0.150092
    17  H    0.153692
    18  H    0.176078
    19  H    0.151722
    20  H    0.159236
    21  C   -0.170578
    22  C   -0.225785
    23  C   -0.179389
    24  C    0.156030
    25  C   -0.169920
    26  C   -0.219230
    27  H    0.225376
    28  H    0.227031
    29  H    0.291295
    30  H    0.275221
    31  H    0.223049
    32  N    0.488869
    33  O   -0.459884
    34  O   -0.464368
 Sum of Mulliken charges =  -0.00000

 Dipole moment (field-independent basis, Debye):
    X=              0.0519    Y=             -4.7613    Z=              1.6546  Tot=              5.0409
 Quadrupole moment (field-independent basis, Debye-Ang):
   XX=            -89.0040   YY=            -96.9770   ZZ=            -95.2810
   XY=            -12.7946   XZ=              4.0391   YZ=              0.1401

 Normal termination of Gaussian 16 at Thu May  6 04:11:51 2021.
