 Gaussian 16, Revision A.03,
 Gaussian 16:  EM64L-G16RevA.03 25-Dec-2016

 -------------
 #p 6-31g* mp2
 -------------

 ------------------------------------------------------
 Input file generated by CHIRIPA (05-May-2021 14:53:13)
 ------------------------------------------------------
 Symbolic Z-matrix:
 Charge =  0 Multiplicity = 1

                         Standard orientation:
 ---------------------------------------------------------------------
 Center     Atomic      Atomic             Coordinates (Angstroms)
 Number     Number       Type             X           Y           Z
 ---------------------------------------------------------------------
      1          6           0       -3.140086   -0.202453    0.929753
      2          6           0       -1.754972    0.435317    1.042412
      3          6           0       -0.981476   -0.044313    2.271010
      4          1           0       -3.715501    0.022900    1.838080
      5          1           0       -3.030970   -1.295183    0.891932
      6          1           0       -1.866582    1.526577    1.078615
      7          1           0       -1.182855    0.208580    0.133627
      8          1           0       -0.840723   -1.129537    2.238161
      9          1           0       -1.528334    0.195949    3.188518
     10          1           0        0.005789    0.424146    2.331955
     11          6           0       -3.925565    0.267103   -0.293467
     12          6           0       -5.310680   -0.370667   -0.406126
     13          6           0       -6.084175    0.108963   -1.634725
     14          1           0       -4.034681    1.359833   -0.255646
     15          1           0       -3.350151    0.041750   -1.201795
     16          1           0       -5.882796   -0.143930    0.502658
     17          1           0       -5.199069   -1.461927   -0.442329
     18          1           0       -5.537317   -0.131299   -2.552233
     19          1           0       -6.224929    1.194187   -1.601876
     20          1           0       -7.071440   -0.359496   -1.695669
     21          6           0        2.801177    2.497487   -0.246183
     22          6           0        2.521039    1.800857    0.933966
     23          6           0        2.495572    0.403076    0.944355
     24          6           0        2.756041   -0.269143   -0.248778
     25          6           0        3.038336    0.396459   -1.440656
     26          6           0        3.058478    1.794305   -1.427644
     27          1           0        2.818892    3.583343   -0.245164
     28          1           0        2.320835    2.344333    1.852985
     29          1           0        2.281510   -0.161351    1.843809
     30          1           0        3.233900   -0.172962   -2.341173
     31          1           0        3.276332    2.332684   -2.345649
     32          7           0        2.731899   -1.748946   -0.250166
     33          8           0        2.964758   -2.317822   -1.314493
     34          8           0        2.480575   -2.311918    0.813100
 ---------------------------------------------------------------------

 SCF Done:  E(RHF) =  -669.534874351     A.U. after   15 cycles
 E2 =    -0.2092408739D+01 EUMP2 =    -0.67162728309024D+03

 The electronic state is 1-A.
 Alpha  occ. eigenvalues --  -20.60797 -20.60791 -15.85849 -11.31209 -11.27793
 Alpha  occ. eigenvalues --  -11.27769 -11.27533 -11.26797 -11.26787 -11.21672
 Alpha  occ. eigenvalues --  -11.21572 -11.21401 -11.21340 -11.21161 -11.21058
 Alpha  occ. eigenvalues --   -1.59871  -1.39423  -1.19394  -1.08784  -1.08438
 Alpha  occ. eigenvalues --   -1.04807  -1.03555  -0.96024  -0.95614  -0.87045
 Alpha  occ. eigenvalues --   -0.86188  -0.82456  -0.79624  -0.78244  -0.77501
 Alpha  occ. eigenvalues --   -0.72067  -0.71195  -0.70511  -0.65065  -0.65049
 Alpha  occ. eigenvalues --   -0.64802  -0.62209  -0.60940  -0.59397  -0.57643
 Alpha  occ. eigenvalues --   -0.55327  -0.55252  -0.53245  -0.52946  -0.52586
 Alpha  occ. eigenvalues --   -0.52358  -0.49930  -0.48826  -0.48820  -0.47938
 Alpha  occ. eigenvalues --   -0.46636  -0.45789  -0.45703  -0.44827  -0.43827
 Alpha  occ. eigenvalues --   -0.37369  -0.36346
 Alpha virt. eigenvalues --    0.05005   0.11234   0.16412   0.20971   0.22919
 Alpha virt. eigenvalues --    0.24271   0.26439   0.26649   0.27474   0.27969
 Alpha virt. eigenvalues --    0.28811   0.30653   0.31401   0.31786   0.32298

 Mulliken charges:
               1
     1  C   -0.299206
     2  C   -0.298292
     3  C   -0.478631
     4  H    0.149018
     5  H    0.153637
     6  H    0.147828
     7  H    0.153570
     8  H    0.166500
     9  H    0.154149
    10  H    0.148489
    11  C   -0.298258
    12  C   -0.299880
    13  C   -0.475735
    14  H    0.147546
    15  H    0.150431
    16  H    0.151593
    17  H    0.153815
    18  H    0.155530
    19  H    0.154050
    20  H    0.160609
    21  C   -0.170377
    22  C   -0.218331
    23  C   -0.168159
    24  C    0.156020
    25  C   -0.171259
    26  C   -0.218647
    27  H    0.225838
    28  H    0.223807
    29  H    0.277915
    30  H    0.275641
    31  H    0.223548
    32  N    0.488088
    33  O   -0.460573
    34  O   -0.460277
 Sum of Mulliken charges =  -0.00000

 Dipole moment (field-independent basis, Debye):
    X=              0.0887    Y=              5.1399    Z=             -0.0334  Tot=              5.1408
 Quadrupole moment (field-independent basis, Debye-Ang):
   XX=            -95.1361   YY=            -97.6411   ZZ=            -90.5879
   XY=             14.6175   XZ=             -2.0736   YZ=             -0.8231

 Normal termination of Gaussian 16 at Thu May  6 04:09:51 2021.
