 Gaussian 16, Revision A.03,
 Gaussian 16:  EM64L-G16RevA.03 25-Dec-2016

 -------------
 #p 6-31g* mp2
 -------------

 ------------------------------------------------------
 Input file generated by CHIRIPA (05-May-2021 14:51:10)
 ------------------------------------------------------
 Symbolic Z-matrix:
 Charge =  0 Multiplicity = 1

                         Standard orientation:
 ---------------------------------------------------------------------
 Center     Atomic      Atomic             Coordinates (Angstroms)
 Number     Number       Type             X           Y           Z
 ---------------------------------------------------------------------
      1          6           0       -3.564476    0.097273   -0.074940
      2          6           0       -3.686099   -1.055130   -1.072517
      3          6           0       -4.838493   -2.004064   -0.741902
      4          1           0       -3.425240   -0.313192    0.934553
      5          1           0       -4.509023    0.658424   -0.056656
      6          1           0       -2.741127   -1.613109   -1.089931
      7          1           0       -3.824870   -0.641871   -2.079779
      8          1           0       -5.792493   -1.466959   -0.743976
      9          1           0       -4.702592   -2.443715    0.251495
     10          1           0       -4.907176   -2.820389   -1.467683
     11          6           0       -2.416940    1.054513   -0.392086
     12          6           0       -2.295317    2.206916    0.605491
     13          6           0       -1.142922    3.155850    0.274876
     14          1           0       -1.472393    0.493361   -0.410370
     15          1           0       -2.556176    1.464978   -1.401579
     16          1           0       -2.156545    1.793657    1.612752
     17          1           0       -3.240288    2.764895    0.622905
     18          1           0       -1.278824    3.595501   -0.718522
     19          1           0       -0.188923    2.618745    0.276950
     20          1           0       -1.074240    3.972175    1.000656
     21          6           0        2.586538   -0.694445    0.870713
     22          6           0        1.175889   -1.221097    0.604829
     23          6           0        0.379705   -1.453307    1.889339
     24          1           0        3.122412   -1.407457    1.512116
     25          1           0        2.519038    0.245212    1.436296
     26          1           0        1.245988   -2.158764    0.038718
     27          1           0        0.643375   -0.506841   -0.036172
     28          1           0        0.280164   -0.521087    2.454721
     29          1           0        0.886202   -2.182396    2.530037
     30          1           0       -0.625619   -1.829715    1.676033
     31          6           0        3.394879   -0.457341   -0.403687
     32          6           0        4.805527    0.069312   -0.137803
     33          6           0        5.601710    0.301522   -1.422313
     34          1           0        3.462378   -1.396998   -0.969269
     35          1           0        2.859004    0.255671   -1.045089
     36          1           0        5.338042   -0.644945    0.503199
     37          1           0        4.735428    1.006978    0.428309
     38          1           0        5.095214    1.030609   -2.063010
     39          1           0        5.701252   -0.630699   -1.987695
     40          1           0        6.607035    0.677930   -1.209006
 ---------------------------------------------------------------------

 SCF Done:  E(RHF) =  -470.733361896     A.U. after   11 cycles
 E2 =    -0.1583589428D+01 EUMP2 =    -0.47231695132426D+03

 The electronic state is 1-A.
 Alpha  occ. eigenvalues --  -11.21678 -11.21623 -11.21609 -11.21598 -11.21455
 Alpha  occ. eigenvalues --  -11.21391 -11.21389 -11.21328 -11.21174 -11.21116
 Alpha  occ. eigenvalues --  -11.21083 -11.21069  -1.08493  -1.08419  -1.03591
 Alpha  occ. eigenvalues --   -1.03533  -0.96041  -0.95980  -0.87048  -0.87004
 Alpha  occ. eigenvalues --   -0.79670  -0.79584  -0.78348  -0.78189  -0.65274
 Alpha  occ. eigenvalues --   -0.64933  -0.61097  -0.60819  -0.59404  -0.59352
 Alpha  occ. eigenvalues --   -0.57664  -0.57582  -0.55372  -0.55216  -0.52728
 Alpha  occ. eigenvalues --   -0.52684  -0.52456  -0.52415  -0.49985  -0.49934
 Alpha  occ. eigenvalues --   -0.48036  -0.47875  -0.46871  -0.46557  -0.46027
 Alpha  occ. eigenvalues --   -0.45794  -0.45756  -0.45323  -0.43833  -0.43786
 Alpha virt. eigenvalues --    0.19294   0.22467   0.23855   0.24947   0.25749
 Alpha virt. eigenvalues --    0.26408   0.26678   0.27837   0.28593   0.29507
 Alpha virt. eigenvalues --    0.30111   0.31477   0.31772   0.31808   0.32638

 Mulliken charges:
               1
     1  C   -0.298312
     2  C   -0.300478
     3  C   -0.475652
     4  H    0.150350
     5  H    0.149480
     6  H    0.152350
     7  H    0.151995
     8  H    0.155244
     9  H    0.155028
    10  H    0.160269
    11  C   -0.307588
    12  C   -0.299538
    13  C   -0.476415
    14  H    0.159047
    15  H    0.149354
    16  H    0.152548
    17  H    0.152048
    18  H    0.155381
    19  H    0.154302
    20  H    0.160432
    21  C   -0.297900
    22  C   -0.307618
    23  C   -0.477123
    24  H    0.149968
    25  H    0.149626
    26  H    0.152445
    27  H    0.157912
    28  H    0.155565
    29  H    0.156008
    30  H    0.160657
    31  C   -0.298559
    32  C   -0.299721
    33  C   -0.475783
    34  H    0.149697
    35  H    0.149916
    36  H    0.151971
    37  H    0.152129
    38  H    0.155413
    39  H    0.155191
    40  H    0.160362
 Sum of Mulliken charges =  -0.00000

 Dipole moment (field-independent basis, Debye):
    X=              0.0192    Y=             -0.0101    Z=              0.0009  Tot=              0.0217
 Quadrupole moment (field-independent basis, Debye-Ang):
   XX=            -85.3503   YY=            -84.1867   ZZ=            -85.1520
   XY=             -1.4908   XZ=              1.0516   YZ=             -0.1205

 Normal termination of Gaussian 16 at Thu May  6 05:25:05 2021.
