 Gaussian 16, Revision A.03,
 Gaussian 16:  EM64L-G16RevA.03 25-Dec-2016

 -------------
 #p 6-31g* mp2
 -------------

 ------------------------------------------------------
 Input file generated by CHIRIPA (05-May-2021 14:57:22)
 ------------------------------------------------------
 Symbolic Z-matrix:
 Charge =  0 Multiplicity = 1

                         Standard orientation:
 ---------------------------------------------------------------------
 Center     Atomic      Atomic             Coordinates (Angstroms)
 Number     Number       Type             X           Y           Z
 ---------------------------------------------------------------------
      1          6           0       -5.396553   -1.892809    0.032425
      2          6           0       -5.797587   -0.658191   -0.488545
      3          6           0       -4.896333    0.408079   -0.561734
      4          6           0       -3.595940    0.203801   -0.102888
      5          6           0       -3.166245   -1.014307    0.421389
      6          6           0       -4.084475   -2.066620    0.484932
      7          1           0       -6.103262   -2.715693    0.085533
      8          1           0       -6.815929   -0.520330   -0.840707
      9          1           0       -5.180210    1.374445   -0.960443
     10          1           0       -2.144422   -1.121418    0.764643
     11          1           0       -3.770239   -3.024334    0.890007
     12          7           0       -2.632837    1.325226   -0.175264
     13          8           0       -1.492836    1.119662    0.235564
     14          8           0       -3.036194    2.388528   -0.641449
     15          6           0        2.295148    1.891210    0.857055
     16          6           0        1.990018    0.580506    1.238460
     17          6           0        2.791683   -0.485637    0.819864
     18          6           0        3.895772   -0.203646    0.016896
     19          6           0        4.225870    1.091325   -0.379807
     20          6           0        3.410135    2.141995    0.050560
     21          1           0        1.666930    2.713405    1.186802
     22          1           0        1.124733    0.382771    1.864742
     23          1           0        2.578482   -1.509972    1.100399
     24          1           0        5.095055    1.257126   -1.004664
     25          1           0        3.649516    3.158896   -0.247189
     26          7           0        4.751907   -1.324133   -0.432484
     27          8           0        5.719019   -1.049265   -1.139435
     28          8           0        4.439623   -2.456023   -0.069246
 ---------------------------------------------------------------------

 SCF Done:  E(RHF) =  -868.339589885     A.U. after   16 cycles
 E2 =    -0.2598708941D+01 EUMP2 =    -0.87093829882558D+03

 The electronic state is 1-A.
 Alpha  occ. eigenvalues --  -20.61590 -20.61550 -20.60157 -20.60148 -15.86610
 Alpha  occ. eigenvalues --  -15.85201 -11.31763 -11.30326 -11.28332 -11.28286
 Alpha  occ. eigenvalues --  -11.27987 -11.27267 -11.27251 -11.26878 -11.26867
 Alpha  occ. eigenvalues --  -11.26421 -11.25803 -11.25721  -1.60637  -1.59236
 Alpha  occ. eigenvalues --   -1.40200  -1.38797  -1.19911  -1.18453  -1.09341
 Alpha  occ. eigenvalues --   -1.07855  -1.05283  -1.03832  -0.96216  -0.94744
 Alpha  occ. eigenvalues --   -0.86691  -0.85217  -0.83058  -0.81604  -0.78136
 Alpha  occ. eigenvalues --   -0.76710  -0.72853  -0.71940  -0.71425  -0.71016
 Alpha  occ. eigenvalues --   -0.70556  -0.69497  -0.65570  -0.65281  -0.64093
 Alpha  occ. eigenvalues --   -0.63803  -0.62640  -0.61200  -0.55781  -0.54233
 Alpha  occ. eigenvalues --   -0.53619  -0.53373  -0.52148  -0.51914  -0.49609
 Alpha  occ. eigenvalues --   -0.49569  -0.48195  -0.48155  -0.45649  -0.44259
 Alpha  occ. eigenvalues --   -0.37868  -0.36875  -0.36335  -0.35431
 Alpha virt. eigenvalues --    0.04390   0.05828   0.10783   0.12232   0.15930
 Alpha virt. eigenvalues --    0.17414   0.20762   0.22369   0.26445   0.27302
 Alpha virt. eigenvalues --    0.28635   0.29331   0.30490   0.31441   0.32769

 Mulliken charges:
               1
     1  C   -0.169949
     2  C   -0.218320
     3  C   -0.170512
     4  C    0.158404
     5  C   -0.169667
     6  C   -0.218090
     7  H    0.227994
     8  H    0.225385
     9  H    0.276333
    10  H    0.271071
    11  H    0.225574
    12  N    0.491708
    13  O   -0.471176
    14  O   -0.457829
    15  C   -0.164268
    16  C   -0.210288
    17  C   -0.174834
    18  C    0.157613
    19  C   -0.172405
    20  C   -0.219794
    21  H    0.232916
    22  H    0.226097
    23  H    0.268860
    24  H    0.272382
    25  H    0.221644
    26  N    0.488350
    27  O   -0.462583
    28  O   -0.464616
 Sum of Mulliken charges =  -0.00000

 Dipole moment (field-independent basis, Debye):
    X=             -6.8989    Y=              0.1428    Z=              1.8538  Tot=              7.1450
 Quadrupole moment (field-independent basis, Debye-Ang):
   XX=           -100.7762   YY=           -104.7995   ZZ=           -104.1979
   XY=             30.2920   XZ=              5.7971   YZ=             -2.9065

 Normal termination of Gaussian 16 at Thu May  6 11:14:07 2021.
