 Gaussian 16, Revision A.03,
 Gaussian 16:  EM64L-G16RevA.03 25-Dec-2016

 -------------
 #p 6-31g* mp2
 -------------

 ------------------------------------------------------
 Input file generated by CHIRIPA (05-May-2021 14:53:13)
 ------------------------------------------------------
 Symbolic Z-matrix:
 Charge =  0 Multiplicity = 1

                         Standard orientation:
 ---------------------------------------------------------------------
 Center     Atomic      Atomic             Coordinates (Angstroms)
 Number     Number       Type             X           Y           Z
 ---------------------------------------------------------------------
      1          6           0        4.161254   -0.341184   -0.017297
      2          6           0        4.057350   -1.742797   -0.619518
      3          6           0        5.107018   -2.704883   -0.062401
      4          1           0        5.166159    0.059536   -0.208436
      5          1           0        4.054505   -0.409803    1.074166
      6          1           0        4.162880   -1.671396   -1.709647
      7          1           0        3.052513   -2.140150   -0.427090
      8          1           0        4.999929   -2.805729    1.022479
      9          1           0        6.116605   -2.334312   -0.267366
     10          1           0        5.014566   -3.700929   -0.506479
     11          6           0        3.118522    0.632051   -0.564335
     12          6           0        3.222427    2.033664    0.037886
     13          6           0        2.172758    2.995750   -0.519231
     14          1           0        3.225271    0.700670   -1.655798
     15          1           0        2.113617    0.231331   -0.373196
     16          1           0        4.227264    2.431017   -0.154543
     17          1           0        3.116896    1.962263    1.128015
     18          1           0        1.163171    2.625179   -0.314266
     19          1           0        2.279847    3.096596   -1.604111
     20          1           0        2.265210    3.991796   -0.075153
     21          6           0       -1.311088    0.467516    2.145381
     22          6           0       -1.397453    1.315873    1.036619
     23          6           0       -2.243272    1.003879   -0.031930
     24          6           0       -2.991826   -0.169802    0.041758
     25          6           0       -2.927649   -1.035304    1.132664
     26          6           0       -2.075115   -0.703301    2.189787
     27          1           0       -0.651426    0.717652    2.971017
     28          1           0       -0.805270    2.225807    0.999411
     29          1           0       -2.329430    1.642770   -0.902454
     30          1           0       -3.530309   -1.935386    1.141060
     31          1           0       -2.010065   -1.364020    3.049591
     32          7           0       -3.890812   -0.510688   -1.083419
     33          8           0       -4.539869   -1.550598   -0.994274
     34          8           0       -3.929357    0.268492   -2.033172
 ---------------------------------------------------------------------

 SCF Done:  E(RHF) =  -669.535567681     A.U. after   15 cycles
 E2 =    -0.2091323923D+01 EUMP2 =    -0.67162689160339D+03

 The electronic state is 1-A.
 Alpha  occ. eigenvalues --  -20.60787 -20.60782 -15.85842 -11.31228 -11.27810
 Alpha  occ. eigenvalues --  -11.27804 -11.27560 -11.26822 -11.26805 -11.22260
 Alpha  occ. eigenvalues --  -11.21917 -11.21874 -11.21859 -11.21780 -11.21355
 Alpha  occ. eigenvalues --   -1.59862  -1.39415  -1.19410  -1.08909  -1.08798
 Alpha  occ. eigenvalues --   -1.04817  -1.04034  -0.96491  -0.95629  -0.87513
 Alpha  occ. eigenvalues --   -0.86211  -0.82462  -0.80099  -0.78693  -0.77504
 Alpha  occ. eigenvalues --   -0.72059  -0.71186  -0.70514  -0.65568  -0.65061
 Alpha  occ. eigenvalues --   -0.64823  -0.62211  -0.61401  -0.59858  -0.58083
 Alpha  occ. eigenvalues --   -0.55816  -0.55301  -0.53195  -0.53151  -0.53028
 Alpha  occ. eigenvalues --   -0.52774  -0.50424  -0.48821  -0.48813  -0.48405
 Alpha  occ. eigenvalues --   -0.47127  -0.46239  -0.46154  -0.44816  -0.44271
 Alpha  occ. eigenvalues --   -0.37388  -0.36407
 Alpha virt. eigenvalues --    0.05025   0.11151   0.16423   0.20285   0.22660
 Alpha virt. eigenvalues --    0.23873   0.25728   0.26411   0.27201   0.28284
 Alpha virt. eigenvalues --    0.28512   0.30324   0.31123   0.31536   0.32082

 Mulliken charges:
               1
     1  C   -0.298139
     2  C   -0.300193
     3  C   -0.475870
     4  H    0.150658
     5  H    0.147074
     6  H    0.153887
     7  H    0.152688
     8  H    0.153975
     9  H    0.155754
    10  H    0.161889
    11  C   -0.300264
    12  C   -0.298892
    13  C   -0.480127
    14  H    0.152341
    15  H    0.151182
    16  H    0.155211
    17  H    0.147468
    18  H    0.147717
    19  H    0.160997
    20  H    0.160722
    21  C   -0.171959
    22  C   -0.221550
    23  C   -0.171773
    24  C    0.158463
    25  C   -0.170598
    26  C   -0.218749
    27  H    0.225943
    28  H    0.228717
    29  H    0.276330
    30  H    0.275866
    31  H    0.223578
    32  N    0.488126
    33  O   -0.460409
    34  O   -0.460065
 Sum of Mulliken charges =  -0.00000

 Dipole moment (field-independent basis, Debye):
    X=              3.2389    Y=              1.1540    Z=              3.9048  Tot=              5.2029
 Quadrupole moment (field-independent basis, Debye-Ang):
   XX=           -113.7998   YY=            -92.5238   ZZ=            -93.2733
   XY=             -2.0504   XZ=            -13.5107   YZ=             -2.9774

 Normal termination of Gaussian 16 at Wed May  5 23:23:52 2021.
