 Gaussian 16, Revision A.03,
 Gaussian 16:  EM64L-G16RevA.03 25-Dec-2016

 -------------
 #p 6-31g* mp2
 -------------

 ------------------------------------------------------
 Input file generated by CHIRIPA (05-May-2021 14:53:15)
 ------------------------------------------------------
 Symbolic Z-matrix:
 Charge =  0 Multiplicity = 1

                         Standard orientation:
 ---------------------------------------------------------------------
 Center     Atomic      Atomic             Coordinates (Angstroms)
 Number     Number       Type             X           Y           Z
 ---------------------------------------------------------------------
      1          6           0       -3.796757    0.040049   -0.605754
      2          6           0       -3.808521   -1.466950   -0.347298
      3          6           0       -4.838775   -2.205354   -1.202360
      4          1           0       -4.798019    0.447187   -0.409137
      5          1           0       -3.589114    0.220979   -1.669494
      6          1           0       -4.014710   -1.644946    0.715914
      7          1           0       -2.807065   -1.870516   -0.544369
      8          1           0       -4.632747   -2.057255   -2.267358
      9          1           0       -5.847253   -1.830403   -0.999914
     10          1           0       -4.830163   -3.281207   -1.001547
     11          6           0       -2.771980    0.792053    0.241625
     12          6           0       -2.760216    2.299053   -0.016831
     13          6           0       -1.729961    3.037457    0.838231
     14          1           0       -2.979623    0.611124    1.305366
     15          1           0       -1.770718    0.384916    0.045008
     16          1           0       -3.761671    2.702619    0.180240
     17          1           0       -2.554026    2.477048   -1.080042
     18          1           0       -0.721483    2.662505    0.635786
     19          1           0       -1.935990    2.889357    1.903229
     20          1           0       -1.738574    4.113310    0.637418
     21          6           0        0.871828   -1.385198    1.682389
     22          6           0        1.930086   -2.146604    1.175564
     23          6           0        2.874581   -1.569646    0.321401
     24          6           0        2.729691   -0.222548   -0.006658
     25          6           0        1.686419    0.562344    0.482032
     26          6           0        0.753581   -0.035533    1.334619
     27          1           0        0.142649   -1.841517    2.345312
     28          1           0        2.024422   -3.194993    1.443942
     29          1           0        3.703640   -2.135910   -0.085325
     30          1           0        1.618769    1.605096    0.196536
     31          1           0       -0.067250    0.558217    1.726722
     32          7           0        3.723415    0.399324   -0.910089
     33          8           0        3.573487    1.588090   -1.183942
     34          8           0        4.633409   -0.313793   -1.327236
 ---------------------------------------------------------------------

 SCF Done:  E(RHF) =  -669.534193337     A.U. after   15 cycles
 E2 =    -0.2093740736D+01 EUMP2 =    -0.67162793407357D+03

 The electronic state is 1-A.
 Alpha  occ. eigenvalues --  -20.60760 -20.60755 -15.85811 -11.31180 -11.27733
 Alpha  occ. eigenvalues --  -11.27721 -11.27449 -11.26756 -11.26641 -11.22341
 Alpha  occ. eigenvalues --  -11.22200 -11.22128 -11.22064 -11.21972 -11.21543
 Alpha  occ. eigenvalues --   -1.59835  -1.39388  -1.19343  -1.09143  -1.08728
 Alpha  occ. eigenvalues --   -1.04759  -1.04228  -0.96699  -0.95570  -0.87719
 Alpha  occ. eigenvalues --   -0.86143  -0.82425  -0.80310  -0.79001  -0.77427
 Alpha  occ. eigenvalues --   -0.72029  -0.71158  -0.70444  -0.65792  -0.64989
 Alpha  occ. eigenvalues --   -0.64733  -0.62233  -0.61525  -0.60029  -0.58316
 Alpha  occ. eigenvalues --   -0.56005  -0.55227  -0.53385  -0.53220  -0.53016
 Alpha  occ. eigenvalues --   -0.52832  -0.50644  -0.48814  -0.48785  -0.48566
 Alpha  occ. eigenvalues --   -0.47315  -0.46457  -0.46382  -0.44793  -0.44467
 Alpha  occ. eigenvalues --   -0.37301  -0.36295
 Alpha virt. eigenvalues --    0.05058   0.11240   0.16473   0.20136   0.22540
 Alpha virt. eigenvalues --    0.23670   0.24969   0.26051   0.26919   0.27695
 Alpha virt. eigenvalues --    0.29135   0.30447   0.30916   0.31371   0.31978

 Mulliken charges:
               1
     1  C   -0.297540
     2  C   -0.300900
     3  C   -0.475978
     4  H    0.151246
     5  H    0.153319
     6  H    0.148774
     7  H    0.152488
     8  H    0.157599
     9  H    0.156320
    10  H    0.160551
    11  C   -0.309793
    12  C   -0.298248
    13  C   -0.483104
    14  H    0.143201
    15  H    0.155831
    16  H    0.155242
    17  H    0.157484
    18  H    0.149112
    19  H    0.153715
    20  H    0.169022
    21  C   -0.173688
    22  C   -0.218423
    23  C   -0.171152
    24  C    0.159996
    25  C   -0.179196
    26  C   -0.221067
    27  H    0.226397
    28  H    0.223395
    29  H    0.275465
    30  H    0.277482
    31  H    0.235061
    32  N    0.488491
    33  O   -0.460623
    34  O   -0.460478
 Sum of Mulliken charges =  -0.00000

 Dipole moment (field-independent basis, Debye):
    X=             -3.6406    Y=             -2.1480    Z=              3.0935  Tot=              5.2381
 Quadrupole moment (field-independent basis, Debye-Ang):
   XX=           -112.9570   YY=            -90.1784   ZZ=            -95.2844
   XY=             -8.4728   XZ=              8.0052   YZ=             -0.7530

 Normal termination of Gaussian 16 at Thu May  6 15:28:25 2021.
