 Gaussian 16, Revision A.03,
 Gaussian 16:  EM64L-G16RevA.03 25-Dec-2016

 -------------
 #p 6-31g* mp2
 -------------

 ------------------------------------------------------
 Input file generated by CHIRIPA (05-May-2021 14:53:14)
 ------------------------------------------------------
 Symbolic Z-matrix:
 Charge =  0 Multiplicity = 1

                         Standard orientation:
 ---------------------------------------------------------------------
 Center     Atomic      Atomic             Coordinates (Angstroms)
 Number     Number       Type             X           Y           Z
 ---------------------------------------------------------------------
      1          6           0       -3.073984   -0.605066   -0.629218
      2          6           0       -3.190488   -1.642578    0.487913
      3          6           0       -3.650473   -3.009314   -0.020260
      4          1           0       -4.046792   -0.503441   -1.129480
      5          1           0       -2.368933   -0.971366   -1.388245
      6          1           0       -3.894057   -1.273812    1.245289
      7          1           0       -2.217339   -1.741604    0.985699
      8          1           0       -2.945724   -3.402367   -0.760152
      9          1           0       -4.631969   -2.931917   -0.499087
     10          1           0       -3.726955   -3.735745    0.794791
     11          6           0       -2.615144    0.766356   -0.136879
     12          6           0       -2.498641    1.803868   -1.254010
     13          6           0       -2.038656    3.170604   -0.745837
     14          1           0       -3.320195    1.132656    0.622148
     15          1           0       -1.642336    0.664731    0.363384
     16          1           0       -3.471790    1.902894   -1.751796
     17          1           0       -1.795071    1.435102   -2.011386
     18          1           0       -1.057159    3.093207   -0.267010
     19          1           0       -2.743404    3.563657   -0.005945
     20          1           0       -1.962173    3.897035   -1.560887
     21          6           0        3.696222   -1.292544   -1.338350
     22          6           0        3.704803    0.105712   -1.301962
     23          6           0        2.892271    0.797458   -0.398730
     24          6           0        2.079824    0.055863    0.457574
     25          6           0        2.048996   -1.337762    0.445449
     26          6           0        2.869803   -2.008557   -0.466066
     27          1           0        4.330631   -1.821772   -2.043219
     28          1           0        4.345600    0.664386   -1.978208
     29          1           0        2.879257    1.879494   -0.349271
     30          1           0        1.399562   -1.867180    1.132012
     31          1           0        2.861078   -3.094509   -0.492093
     32          7           0        1.215252    0.777093    1.418170
     33          8           0        0.508484    0.100534    2.162066
     34          8           0        1.260742    2.005298    1.408999
 ---------------------------------------------------------------------

 SCF Done:  E(RHF) =  -669.536511837     A.U. after   15 cycles
 E2 =    -0.2092802347D+01 EUMP2 =    -0.67162931418303D+03

 The electronic state is 1-A.
 Alpha  occ. eigenvalues --  -20.61124 -20.61118 -15.86102 -11.31376 -11.27934
 Alpha  occ. eigenvalues --  -11.27928 -11.27659 -11.26925 -11.26916 -11.20997
 Alpha  occ. eigenvalues --  -11.20851 -11.20780 -11.20724 -11.20455 -11.20073
 Alpha  occ. eigenvalues --   -1.60160  -1.39717  -1.19540  -1.08955  -1.07724
 Alpha  occ. eigenvalues --   -1.04926  -1.02855  -0.95805  -0.95297  -0.86331
 Alpha  occ. eigenvalues --   -0.86308  -0.82641  -0.78913  -0.77710  -0.77497
 Alpha  occ. eigenvalues --   -0.72331  -0.71479  -0.70647  -0.65196  -0.64927
 Alpha  occ. eigenvalues --   -0.64361  -0.62274  -0.60263  -0.58684  -0.56897
 Alpha  occ. eigenvalues --   -0.55433  -0.54598  -0.53262  -0.53016  -0.52017
 Alpha  occ. eigenvalues --   -0.51704  -0.49249  -0.49109  -0.49099  -0.47220
 Alpha  occ. eigenvalues --   -0.45977  -0.45278  -0.45040  -0.44702  -0.43097
 Alpha  occ. eigenvalues --   -0.37514  -0.36523
 Alpha virt. eigenvalues --    0.04753   0.11118   0.16206   0.21108   0.23350
 Alpha virt. eigenvalues --    0.24821   0.26570   0.27297   0.27738   0.28646
 Alpha virt. eigenvalues --    0.28831   0.31084   0.31228   0.32268   0.32372

 Mulliken charges:
               1
     1  C   -0.297505
     2  C   -0.300702
     3  C   -0.475296
     4  H    0.147067
     5  H    0.143384
     6  H    0.153893
     7  H    0.157216
     8  H    0.150098
     9  H    0.154391
    10  H    0.158712
    11  C   -0.302981
    12  C   -0.299267
    13  C   -0.481676
    14  H    0.151471
    15  H    0.160781
    16  H    0.148199
    17  H    0.144992
    18  H    0.170114
    19  H    0.155479
    20  H    0.153429
    21  C   -0.170323
    22  C   -0.218561
    23  C   -0.170647
    24  C    0.157430
    25  C   -0.171348
    26  C   -0.218588
    27  H    0.226437
    28  H    0.224282
    29  H    0.276194
    30  H    0.276202
    31  H    0.224329
    32  N    0.486684
    33  O   -0.456469
    34  O   -0.457421
 Sum of Mulliken charges =  -0.00000

 Dipole moment (field-independent basis, Debye):
    X=              3.2913    Y=             -2.4924    Z=             -3.1728  Tot=              5.2068
 Quadrupole moment (field-independent basis, Debye-Ang):
   XX=            -81.4988   YY=            -92.7457   ZZ=            -98.1242
   XY=             -4.2232   XZ=             -7.3308   YZ=             -3.0012

 Normal termination of Gaussian 16 at Thu May  6 07:24:51 2021.
