 Gaussian 16, Revision A.03,
 Gaussian 16:  EM64L-G16RevA.03 25-Dec-2016

 -------------
 #p 6-31g* mp2
 -------------

 ------------------------------------------------------
 Input file generated by CHIRIPA (05-May-2021 14:57:23)
 ------------------------------------------------------
 Symbolic Z-matrix:
 Charge =  0 Multiplicity = 1

                         Standard orientation:
 ---------------------------------------------------------------------
 Center     Atomic      Atomic             Coordinates (Angstroms)
 Number     Number       Type             X           Y           Z
 ---------------------------------------------------------------------
      1          6           0        2.690518    2.037067    0.390588
      2          6           0        4.065807    2.279111    0.471297
      3          6           0        4.983131    1.256422    0.212123
      4          6           0        4.488083   -0.001962   -0.126532
      5          6           0        3.123810   -0.274360   -0.215132
      6          6           0        2.224730    0.763349    0.048234
      7          1           0        1.985004    2.837350    0.593548
      8          1           0        4.430409    3.267312    0.736948
      9          1           0        6.053096    1.416236    0.267383
     10          1           0        2.790542   -1.269830   -0.482323
     11          1           0        1.157213    0.572484   -0.015203
     12          7           0        5.449556   -1.092587   -0.403127
     13          8           0        4.987933   -2.192460   -0.699477
     14          8           0        6.646575   -0.826897   -0.318336
     15          6           0       -6.542516    0.635794   -0.817443
     16          6           0       -5.445407    1.502142   -0.769344
     17          6           0       -4.214487    1.062171   -0.273553
     18          6           0       -4.115686   -0.256440    0.167799
     19          6           0       -5.190393   -1.143607    0.132731
     20          6           0       -6.411738   -0.681992   -0.367047
     21          1           0       -7.495005    0.985980   -1.204135
     22          1           0       -5.544057    2.526077   -1.118445
     23          1           0       -3.348934    1.711691   -0.224973
     24          1           0       -5.061358   -2.158791    0.487934
     25          1           0       -7.262067   -1.357030   -0.403213
     26          7           0       -2.817634   -0.733675    0.694781
     27          8           0       -2.756505   -1.900037    1.077533
     28          8           0       -1.885929    0.067668    0.715100
 ---------------------------------------------------------------------

 SCF Done:  E(RHF) =  -868.339824849     A.U. after   16 cycles
 E2 =    -0.2598263025D+01 EUMP2 =    -0.87093808787396D+03

 The electronic state is 1-A.
 Alpha  occ. eigenvalues --  -20.61687 -20.61624 -20.60053 -20.60041 -15.86693
 Alpha  occ. eigenvalues --  -15.85094 -11.31838 -11.30324 -11.28409 -11.28352
 Alpha  occ. eigenvalues --  -11.28069 -11.27353 -11.27319 -11.26908 -11.26768
 Alpha  occ. eigenvalues --  -11.26560 -11.25935 -11.25640  -1.60714  -1.59127
 Alpha  occ. eigenvalues --   -1.40277  -1.38684  -1.19986  -1.18463  -1.09418
 Alpha  occ. eigenvalues --   -1.07888  -1.05358  -1.03822  -0.96292  -0.94752
 Alpha  occ. eigenvalues --   -0.86765  -0.85226  -0.83137  -0.81571  -0.78211
 Alpha  occ. eigenvalues --   -0.76634  -0.72926  -0.72017  -0.71317  -0.71091
 Alpha  occ. eigenvalues --   -0.70447  -0.69588  -0.65644  -0.65356  -0.64106
 Alpha  occ. eigenvalues --   -0.63782  -0.62711  -0.61148  -0.55858  -0.54351
 Alpha  occ. eigenvalues --   -0.53695  -0.53447  -0.52191  -0.51880  -0.49688
 Alpha  occ. eigenvalues --   -0.49639  -0.48079  -0.48059  -0.45728  -0.44120
 Alpha  occ. eigenvalues --   -0.37947  -0.36950  -0.36457  -0.35423
 Alpha virt. eigenvalues --    0.04302   0.05857   0.10708   0.12224   0.15831
 Alpha virt. eigenvalues --    0.17394   0.20847   0.22427   0.26785   0.27593
 Alpha virt. eigenvalues --    0.28510   0.29166   0.30446   0.31734   0.32173

 Mulliken charges:
               1
     1  C   -0.172669
     2  C   -0.218649
     3  C   -0.173142
     4  C    0.158258
     5  C   -0.172974
     6  C   -0.225636
     7  H    0.223370
     8  H    0.219421
     9  H    0.272388
    10  H    0.277083
    11  H    0.246017
    12  N    0.488054
    13  O   -0.460747
    14  O   -0.463480
    15  C   -0.169907
    16  C   -0.218261
    17  C   -0.170404
    18  C    0.157967
    19  C   -0.170085
    20  C   -0.218389
    21  H    0.227810
    22  H    0.224496
    23  H    0.272011
    24  H    0.277328
    25  H    0.225858
    26  N    0.491858
    27  O   -0.454471
    28  O   -0.473104
 Sum of Mulliken charges =  -0.00000

 Dipole moment (field-independent basis, Debye):
    X=             -8.5350    Y=              5.3978    Z=             -0.8867  Tot=             10.1375
 Quadrupole moment (field-independent basis, Debye-Ang):
   XX=            -94.7226   YY=           -100.2506   ZZ=           -107.0929
   XY=             16.2384   XZ=             12.3607   YZ=             -0.1024

 Normal termination of Gaussian 16 at Thu May  6 17:57:07 2021.
