 Gaussian 16, Revision A.03,
 Gaussian 16:  EM64L-G16RevA.03 25-Dec-2016

 -------------
 #p 6-31g* mp2
 -------------

 ------------------------------------------------------
 Input file generated by CHIRIPA (05-May-2021 14:55:24)
 ------------------------------------------------------
 Symbolic Z-matrix:
 Charge =  0 Multiplicity = 1

                         Standard orientation:
 ---------------------------------------------------------------------
 Center     Atomic      Atomic             Coordinates (Angstroms)
 Number     Number       Type             X           Y           Z
 ---------------------------------------------------------------------
      1          6           0        4.797084    0.922598   -0.631103
      2          6           0        4.584120   -0.443867   -0.840724
      3          6           0        3.401289   -1.052334   -0.410344
      4          6           0        2.448483   -0.260785    0.229110
      5          6           0        2.631357    1.102996    0.452602
      6          6           0        3.821742    1.690315    0.013754
      7          1           0        5.718869    1.387056   -0.968722
      8          1           0        5.339830   -1.042551   -1.341248
      9          1           0        3.210560   -2.108142   -0.559706
     10          1           0        1.859559    1.673818    0.954506
     11          1           0        3.984422    2.751746    0.177903
     12          7           0        1.192274   -0.893748    0.689217
     13          8           0        0.368443   -0.174462    1.250080
     14          8           0        1.055276   -2.097164    0.480273
     15          6           0       -3.226229    0.850541    0.165347
     16          6           0       -3.598037    2.103168   -0.628800
     17          6           0       -3.246095    3.396095    0.107589
     18          1           0       -3.740762    0.873196    1.135754
     19          1           0       -2.149165    0.868583    0.382148
     20          1           0       -4.673829    2.082085   -0.845231
     21          1           0       -3.082711    2.077433   -1.597507
     22          1           0       -2.171247    3.443712    0.310161
     23          1           0       -3.771407    3.448389    1.066710
     24          1           0       -3.520400    4.279073   -0.478045
     25          6           0       -3.571905   -0.449990   -0.557740
     26          6           0       -3.200097   -1.702616    0.236407
     27          6           0       -3.552039   -2.995544   -0.499983
     28          1           0       -4.648970   -0.468032   -0.774541
     29          1           0       -3.057373   -0.472645   -1.528147
     30          1           0       -3.715424   -1.676882    1.205114
     31          1           0       -2.124305   -1.681534    0.452838
     32          1           0       -3.026728   -3.047838   -1.459103
     33          1           0       -4.626887   -3.043160   -0.702555
     34          1           0       -3.277735   -3.878522    0.085651
 ---------------------------------------------------------------------

 SCF Done:  E(RHF) =  -669.537027367     A.U. after   15 cycles
 E2 =    -0.2092292808D+01 EUMP2 =    -0.67162932017480D+03

 The electronic state is 1-A.
 Alpha  occ. eigenvalues --  -20.61217 -20.61208 -15.86192 -11.31439 -11.27986
 Alpha  occ. eigenvalues --  -11.27981 -11.27706 -11.26970 -11.26961 -11.20712
 Alpha  occ. eigenvalues --  -11.20427 -11.20080 -11.19978 -11.19844 -11.19709
 Alpha  occ. eigenvalues --   -1.60239  -1.39798  -1.19593  -1.09014  -1.07153
 Alpha  occ. eigenvalues --   -1.04975  -1.02334  -0.95867  -0.94827  -0.86379
 Alpha  occ. eigenvalues --   -0.85861  -0.82706  -0.78402  -0.77770  -0.76892
 Alpha  occ. eigenvalues --   -0.72402  -0.71539  -0.70701  -0.65250  -0.64977
 Alpha  occ. eigenvalues --   -0.63785  -0.62322  -0.59741  -0.58224  -0.56404
 Alpha  occ. eigenvalues --   -0.55483  -0.54133  -0.53311  -0.53064  -0.51572
 Alpha  occ. eigenvalues --   -0.51254  -0.49240  -0.49172  -0.48799  -0.46718
 Alpha  occ. eigenvalues --   -0.45510  -0.45186  -0.44493  -0.44107  -0.42558
 Alpha  occ. eigenvalues --   -0.37565  -0.36570
 Alpha virt. eigenvalues --    0.04702   0.11086   0.16189   0.21183   0.24061
 Alpha virt. eigenvalues --    0.25398   0.27105   0.27620   0.28150   0.28898
 Alpha virt. eigenvalues --    0.29347   0.30968   0.32114   0.32585   0.32935

 Mulliken charges:
               1
     1  C   -0.170240
     2  C   -0.218615
     3  C   -0.170473
     4  C    0.158809
     5  C   -0.170571
     6  C   -0.218553
     7  H    0.226603
     8  H    0.224372
     9  H    0.276216
    10  H    0.275894
    11  H    0.224501
    12  N    0.489922
    13  O   -0.460141
    14  O   -0.457909
    15  C   -0.307181
    16  C   -0.298283
    17  C   -0.473625
    18  H    0.146549
    19  H    0.170693
    20  H    0.148751
    21  H    0.147494
    22  H    0.151640
    23  H    0.154894
    24  H    0.155560
    25  C   -0.296296
    26  C   -0.309693
    27  C   -0.473589
    28  H    0.142762
    29  H    0.143975
    30  H    0.146767
    31  H    0.180461
    32  H    0.151571
    33  H    0.147881
    34  H    0.159851
 Sum of Mulliken charges =  -0.00000

 Dipole moment (field-independent basis, Debye):
    X=              4.9331    Y=              2.1429    Z=             -1.4721  Tot=              5.5762
 Quadrupole moment (field-independent basis, Debye-Ang):
   XX=            -73.6691   YY=            -93.8875   ZZ=            -95.7897
   XY=              2.6823   XZ=             -4.7538   YZ=              2.2817

 Normal termination of Gaussian 16 at Thu May  6 14:18:43 2021.
