 Gaussian 16, Revision A.03,
 Gaussian 16:  EM64L-G16RevA.03 25-Dec-2016

 -------------
 #p 6-31g* mp2
 -------------

 ------------------------------------------------------
 Input file generated by CHIRIPA (05-May-2021 14:51:14)
 ------------------------------------------------------
 Symbolic Z-matrix:
 Charge =  0 Multiplicity = 1

                         Standard orientation:
 ---------------------------------------------------------------------
 Center     Atomic      Atomic             Coordinates (Angstroms)
 Number     Number       Type             X           Y           Z
 ---------------------------------------------------------------------
      1          6           0       -4.482706   -0.305715   -0.269468
      2          6           0       -5.957684   -0.496075    0.085761
      3          6           0       -6.484714   -1.878822   -0.299003
      4          1           0       -4.348628   -0.463620   -1.348372
      5          1           0       -3.888230   -1.079393    0.235919
      6          1           0       -6.549043    0.278576   -0.419043
      7          1           0       -6.088297   -0.337510    1.163913
      8          1           0       -5.920038   -2.663152    0.215359
      9          1           0       -6.383401   -2.043565   -1.376591
     10          1           0       -7.540956   -1.993311   -0.036125
     11          6           0       -3.941298    1.071722    0.109045
     12          6           0       -2.466320    1.262083   -0.246184
     13          6           0       -1.939289    2.644830    0.138580
     14          1           0       -4.535773    1.845400   -0.396342
     15          1           0       -4.075375    1.229627    1.187949
     16          1           0       -2.335706    1.103518   -1.324336
     17          1           0       -1.874961    0.487432    0.258620
     18          1           0       -2.040602    2.809573    1.216168
     19          1           0       -2.503966    3.429159   -0.375782
     20          1           0       -0.883047    2.759318   -0.124298
     21          6           0        4.797915    0.097376   -0.016599
     22          6           0        6.135915   -0.612561   -0.225722
     23          6           0        7.298430    0.361812   -0.417945
     24          1           0        4.595499    0.746205   -0.879729
     25          1           0        4.873552    0.756724    0.859149
     26          1           0        6.057350   -1.271419   -1.099993
     27          1           0        6.335077   -1.259921    0.637918
     28          1           0        7.405423    1.011262    0.456908
     29          1           0        7.126116    0.999699   -1.290877
     30          1           0        8.245216   -0.166970   -0.565748
     31          6           0        3.626088   -0.863383    0.177022
     32          6           0        2.288089   -0.153446    0.386145
     33          6           0        1.125574   -1.127819    0.578368
     34          1           0        3.550451   -1.522730   -0.698726
     35          1           0        3.828504   -1.512212    1.040153
     36          1           0        2.088926    0.493914   -0.477495
     37          1           0        2.366654    0.505412    1.260415
     38          1           0        1.297887   -1.765705    1.451300
     39          1           0        1.018580   -1.777269   -0.296485
     40          1           0        0.178788   -0.599037    0.726171
 ---------------------------------------------------------------------

 SCF Done:  E(RHF) =  -470.733326393     A.U. after   11 cycles
 E2 =    -0.1582461676D+01 EUMP2 =    -0.47231578806912D+03

 The electronic state is 1-A.
 Alpha  occ. eigenvalues --  -11.21602 -11.21600 -11.21595 -11.21591 -11.21404
 Alpha  occ. eigenvalues --  -11.21397 -11.21344 -11.21337 -11.21072 -11.21070
 Alpha  occ. eigenvalues --  -11.21059 -11.21052  -1.08434  -1.08420  -1.03546
 Alpha  occ. eigenvalues --   -1.03507  -0.95993  -0.95957  -0.87011  -0.86974
 Alpha  occ. eigenvalues --   -0.79635  -0.79547  -0.78244  -0.78234  -0.65066
 Alpha  occ. eigenvalues --   -0.65055  -0.60959  -0.60919  -0.59478  -0.59222
 Alpha  occ. eigenvalues --   -0.57687  -0.57475  -0.55265  -0.55256  -0.52725
 Alpha  occ. eigenvalues --   -0.52641  -0.52415  -0.52383  -0.49922  -0.49905
 Alpha  occ. eigenvalues --   -0.48019  -0.47807  -0.46627  -0.46604  -0.45796
 Alpha  occ. eigenvalues --   -0.45766  -0.45707  -0.45697  -0.43806  -0.43712
 Alpha virt. eigenvalues --    0.21490   0.23034   0.23486   0.25017   0.26103
 Alpha virt. eigenvalues --    0.26617   0.27059   0.27312   0.28038   0.28775
 Alpha virt. eigenvalues --    0.30290   0.31074   0.31524   0.31653   0.32368

 Mulliken charges:
               1
     1  C   -0.298429
     2  C   -0.299653
     3  C   -0.475724
     4  H    0.149657
     5  H    0.149826
     6  H    0.151874
     7  H    0.151924
     8  H    0.155319
     9  H    0.155150
    10  H    0.160199
    11  C   -0.297515
    12  C   -0.307296
    13  C   -0.475932
    14  H    0.149525
    15  H    0.149520
    16  H    0.152073
    17  H    0.158398
    18  H    0.155009
    19  H    0.155322
    20  H    0.160852
    21  C   -0.298255
    22  C   -0.299647
    23  C   -0.475706
    24  H    0.149627
    25  H    0.149538
    26  H    0.151935
    27  H    0.151932
    28  H    0.155191
    29  H    0.155182
    30  H    0.160249
    31  C   -0.298505
    32  C   -0.299018
    33  C   -0.483185
    34  H    0.149575
    35  H    0.149649
    36  H    0.151919
    37  H    0.151884
    38  H    0.154873
    39  H    0.155428
    40  H    0.167235
 Sum of Mulliken charges =  -0.00000

 Dipole moment (field-independent basis, Debye):
    X=             -0.0033    Y=              0.0003    Z=             -0.0022  Tot=              0.0040
 Quadrupole moment (field-independent basis, Debye-Ang):
   XX=            -85.9059   YY=            -85.9316   ZZ=            -82.9496
   XY=             -1.1256   XZ=              0.4452   YZ=             -0.4508

 Normal termination of Gaussian 16 at Thu May  6 00:50:23 2021.
