 Gaussian 16, Revision A.03,
 Gaussian 16:  EM64L-G16RevA.03 25-Dec-2016

 -------------
 #p 6-31g* mp2
 -------------

 ------------------------------------------------------
 Input file generated by CHIRIPA (05-May-2021 14:55:21)
 ------------------------------------------------------
 Symbolic Z-matrix:
 Charge =  0 Multiplicity = 1

                         Standard orientation:
 ---------------------------------------------------------------------
 Center     Atomic      Atomic             Coordinates (Angstroms)
 Number     Number       Type             X           Y           Z
 ---------------------------------------------------------------------
      1          6           0        1.229216   -2.427916    0.682708
      2          6           0        0.562685   -1.256793    0.307573
      3          6           0        1.283093   -0.120122   -0.071292
      4          6           0        2.675337   -0.190019   -0.063508
      5          6           0        3.368301   -1.342065    0.305113
      6          6           0        2.627432   -2.466746    0.680285
      7          1           0        0.661639   -3.306253    0.975585
      8          1           0       -0.523111   -1.223750    0.308512
      9          1           0        0.792571    0.799558   -0.366239
     10          1           0        4.451488   -1.344587    0.294238
     11          1           0        3.147741   -3.374890    0.971144
     12          7           0        3.448832    1.006977   -0.462641
     13          8           0        4.674715    0.919719   -0.447393
     14          8           0        2.814567    2.009776   -0.783172
     15          6           0       -3.132422    1.054611    0.501568
     16          6           0       -2.363724    2.237872   -0.087486
     17          6           0       -2.113682    3.347822    0.933927
     18          1           0       -4.092106    1.410932    0.900298
     19          1           0       -2.570628    0.649450    1.354580
     20          1           0       -2.926124    2.639812   -0.939992
     21          1           0       -1.405841    1.878662   -0.485031
     22          1           0       -1.532458    2.968431    1.780592
     23          1           0       -3.061378    3.733906    1.323045
     24          1           0       -1.562804    4.183754    0.491647
     25          6           0       -3.390091   -0.063127   -0.507389
     26          6           0       -4.158787   -1.246389    0.081666
     27          6           0       -4.408830   -2.356338   -0.939747
     28          1           0       -3.951883    0.342034   -1.360400
     29          1           0       -2.430406   -0.419448   -0.906118
     30          1           0       -5.116672   -0.887178    0.479210
     31          1           0       -3.596388   -1.648328    0.934172
     32          1           0       -3.461134   -2.742422   -1.328865
     33          1           0       -4.990055   -1.976947   -1.786412
     34          1           0       -4.959707   -3.192270   -0.497467
 ---------------------------------------------------------------------

 SCF Done:  E(RHF) =  -669.535062368     A.U. after   15 cycles
 E2 =    -0.2092768569D+01 EUMP2 =    -0.67162783093775D+03

 The electronic state is 1-A.
 Alpha  occ. eigenvalues --  -20.60757 -20.60752 -15.85809 -11.31174 -11.27750
 Alpha  occ. eigenvalues --  -11.27736 -11.27490 -11.26763 -11.26728 -11.22488
 Alpha  occ. eigenvalues --  -11.22301 -11.22243 -11.22140 -11.21852 -11.21378
 Alpha  occ. eigenvalues --   -1.59831  -1.39385  -1.19349  -1.09246  -1.08743
 Alpha  occ. eigenvalues --   -1.04755  -1.04225  -0.96653  -0.95579  -0.87661
 Alpha  occ. eigenvalues --   -0.86155  -0.82417  -0.80297  -0.79048  -0.77462
 Alpha  occ. eigenvalues --   -0.72028  -0.71154  -0.70471  -0.66031  -0.64998
 Alpha  occ. eigenvalues --   -0.64731  -0.62088  -0.61605  -0.60016  -0.58250
 Alpha  occ. eigenvalues --   -0.55976  -0.55253  -0.53298  -0.53101  -0.53077
 Alpha  occ. eigenvalues --   -0.52800  -0.50593  -0.48789  -0.48785  -0.48579
 Alpha  occ. eigenvalues --   -0.47355  -0.46563  -0.46513  -0.44790  -0.44495
 Alpha  occ. eigenvalues --   -0.37331  -0.36354
 Alpha virt. eigenvalues --    0.05068   0.11273   0.16516   0.17974   0.22469
 Alpha virt. eigenvalues --    0.23365   0.25147   0.25959   0.27106   0.28213
 Alpha virt. eigenvalues --    0.29221   0.30990   0.31226   0.31592   0.32426

 Mulliken charges:
               1
     1  C   -0.171899
     2  C   -0.229106
     3  C   -0.182501
     4  C    0.160102
     5  C   -0.170193
     6  C   -0.218766
     7  H    0.226039
     8  H    0.234249
     9  H    0.285856
    10  H    0.275638
    11  H    0.223436
    12  N    0.487442
    13  O   -0.460484
    14  O   -0.460184
    15  C   -0.301244
    16  C   -0.304263
    17  C   -0.476410
    18  H    0.154766
    19  H    0.146265
    20  H    0.157029
    21  H    0.148152
    22  H    0.155940
    23  H    0.156160
    24  H    0.168063
    25  C   -0.303506
    26  C   -0.301181
    27  C   -0.475724
    28  H    0.156725
    29  H    0.142184
    30  H    0.156978
    31  H    0.146646
    32  H    0.152233
    33  H    0.159222
    34  H    0.162339
 Sum of Mulliken charges =  -0.00000

 Dipole moment (field-independent basis, Debye):
    X=             -2.9177    Y=             -4.0746    Z=              1.3943  Tot=              5.2019
 Quadrupole moment (field-independent basis, Debye-Ang):
   XX=           -104.1668   YY=            -92.3700   ZZ=            -95.9783
   XY=            -14.2250   XZ=              4.9535   YZ=             -1.1039

 Normal termination of Gaussian 16 at Thu May  6 14:09:25 2021.
