 Gaussian 16, Revision A.03,
 Gaussian 16:  EM64L-G16RevA.03 25-Dec-2016

 -------------
 #p 6-31g* mp2
 -------------

 ------------------------------------------------------
 Input file generated by CHIRIPA (05-May-2021 14:53:14)
 ------------------------------------------------------
 Symbolic Z-matrix:
 Charge =  0 Multiplicity = 1

                         Standard orientation:
 ---------------------------------------------------------------------
 Center     Atomic      Atomic             Coordinates (Angstroms)
 Number     Number       Type             X           Y           Z
 ---------------------------------------------------------------------
      1          6           0        3.169501    0.490151   -0.744317
      2          6           0        3.433913    1.982318   -0.540581
      3          6           0        2.698525    2.857082   -1.556350
      4          1           0        3.471738    0.206266   -1.761670
      5          1           0        2.088791    0.303685   -0.675811
      6          1           0        4.513927    2.165702   -0.608075
      7          1           0        3.131189    2.262643    0.476470
      8          1           0        1.616876    2.703411   -1.485482
      9          1           0        3.007470    2.605920   -2.576189
     10          1           0        2.901652    3.919961   -1.392379
     11          6           0        3.897788   -0.397297    0.263533
     12          6           0        3.633376   -1.889464    0.059797
     13          6           0        4.368764   -2.764227    1.075566
     14          1           0        4.978497   -0.210831    0.195027
     15          1           0        3.595551   -0.113412    1.280886
     16          1           0        3.936099   -2.169789   -0.957254
     17          1           0        2.553362   -2.072848    0.127292
     18          1           0        4.059818   -2.513066    2.095405
     19          1           0        5.450412   -2.610557    1.004698
     20          1           0        4.165637   -3.827107    0.911595
     21          6           0       -1.426326    1.214092    1.926215
     22          6           0       -0.769398    0.458015    0.949837
     23          6           0       -1.498555   -0.238847   -0.018285
     24          6           0       -2.889658   -0.157151    0.019743
     25          6           0       -3.573158    0.587617    0.979658
     26          6           0       -2.823646    1.276370    1.937989
     27          1           0       -0.851992    1.752282    2.674473
     28          1           0        0.315680    0.407833    0.938261
     29          1           0       -1.015560   -0.831702   -0.785525
     30          1           0       -4.655871    0.618496    0.965568
     31          1           0       -3.336505    1.862760    2.695066
     32          7           0       -3.672358   -0.890596   -0.999981
     33          8           0       -4.897033   -0.802458   -0.944840
     34          8           0       -3.046344   -1.539720   -1.835075
 ---------------------------------------------------------------------

 SCF Done:  E(RHF) =  -669.535455377     A.U. after   15 cycles
 E2 =    -0.2091655559D+01 EUMP2 =    -0.67162711093694D+03

 The electronic state is 1-A.
 Alpha  occ. eigenvalues --  -20.60763 -20.60758 -15.85818 -11.31196 -11.27771
 Alpha  occ. eigenvalues --  -11.27767 -11.27515 -11.26785 -11.26763 -11.22386
 Alpha  occ. eigenvalues --  -11.22284 -11.22268 -11.22162 -11.21667 -11.21592
 Alpha  occ. eigenvalues --   -1.59839  -1.39392  -1.19372  -1.09222  -1.08763
 Alpha  occ. eigenvalues --   -1.04779  -1.04209  -0.96653  -0.95596  -0.87661
 Alpha  occ. eigenvalues --   -0.86175  -0.82433  -0.80274  -0.79041  -0.77473
 Alpha  occ. eigenvalues --   -0.72035  -0.71162  -0.70480  -0.65973  -0.65023
 Alpha  occ. eigenvalues --   -0.64724  -0.62132  -0.61595  -0.60013  -0.58257
 Alpha  occ. eigenvalues --   -0.55959  -0.55272  -0.53304  -0.53105  -0.53079
 Alpha  occ. eigenvalues --   -0.52851  -0.50591  -0.48797  -0.48789  -0.48576
 Alpha  occ. eigenvalues --   -0.47327  -0.46545  -0.46519  -0.44795  -0.44497
 Alpha  occ. eigenvalues --   -0.37352  -0.36379
 Alpha virt. eigenvalues --    0.05054   0.11248   0.16482   0.18358   0.22928
 Alpha virt. eigenvalues --    0.23704   0.24790   0.26024   0.27149   0.28417
 Alpha virt. eigenvalues --    0.29723   0.30750   0.31246   0.31359   0.31898

 Mulliken charges:
               1
     1  C   -0.302157
     2  C   -0.299897
     3  C   -0.476758
     4  H    0.156547
     5  H    0.140609
     6  H    0.155925
     7  H    0.146671
     8  H    0.155480
     9  H    0.158763
    10  H    0.162162
    11  C   -0.299567
    12  C   -0.299483
    13  C   -0.476012
    14  H    0.153917
    15  H    0.145134
    16  H    0.156071
    17  H    0.147637
    18  H    0.154352
    19  H    0.156889
    20  H    0.163718
    21  C   -0.171312
    22  C   -0.224690
    23  C   -0.172841
    24  C    0.158663
    25  C   -0.170863
    26  C   -0.218466
    27  H    0.225898
    28  H    0.231090
    29  H    0.275853
    30  H    0.275736
    31  H    0.223495
    32  N    0.488120
    33  O   -0.460493
    34  O   -0.460192
 Sum of Mulliken charges =  -0.00000

 Dipole moment (field-independent basis, Debye):
    X=              2.9281    Y=              2.5748    Z=              3.5183  Tot=              5.2518
 Quadrupole moment (field-independent basis, Debye-Ang):
   XX=           -105.9269   YY=            -95.9826   ZZ=            -94.2952
   XY=             -9.4417   XZ=            -13.5543   YZ=              0.7979

 Normal termination of Gaussian 16 at Thu May  6 12:05:59 2021.
