 Gaussian 16, Revision A.03,
 Gaussian 16:  EM64L-G16RevA.03 25-Dec-2016

 -------------
 #p 6-31g* mp2
 -------------

 ------------------------------------------------------
 Input file generated by CHIRIPA (05-May-2021 14:53:17)
 ------------------------------------------------------
 Symbolic Z-matrix:
 Charge =  0 Multiplicity = 1

                         Standard orientation:
 ---------------------------------------------------------------------
 Center     Atomic      Atomic             Coordinates (Angstroms)
 Number     Number       Type             X           Y           Z
 ---------------------------------------------------------------------
      1          6           0       -3.035907    1.086472   -0.426050
      2          6           0       -2.121317    2.078041    0.293882
      3          6           0       -1.402474    3.024785   -0.667750
      4          1           0       -2.441553    0.502439   -1.142007
      5          1           0       -3.776891    1.643540   -1.015977
      6          1           0       -1.383146    1.519273    0.883370
      7          1           0       -2.717882    2.659650    1.008344
      8          1           0       -2.125793    3.607556   -1.247222
      9          1           0       -0.783473    2.460699   -1.372906
     10          1           0       -0.754039    3.725017   -0.131963
     11          6           0       -3.761528    0.133292    0.521920
     12          6           0       -4.676118   -0.858277   -0.198012
     13          6           0       -5.394961   -1.805021    0.763619
     14          1           0       -3.020544   -0.423775    1.111847
     15          1           0       -4.355882    0.717326    1.237876
     16          1           0       -4.079553   -1.439886   -0.912475
     17          1           0       -5.414289   -0.299508   -0.787501
     18          1           0       -6.013962   -1.240934    1.468776
     19          1           0       -4.671642   -2.387791    1.343092
     20          1           0       -6.043396   -2.505253    0.227832
     21          6           0        1.037889   -2.327159   -0.607558
     22          6           0        0.614487   -0.994309   -0.635172
     23          6           0        1.501999    0.039249   -0.321124
     24          6           0        2.811609   -0.297553    0.017667
     25          6           0        3.263524   -1.615783    0.054127
     26          6           0        2.358728   -2.633103   -0.263603
     27          1           0        0.341735   -3.123745   -0.852949
     28          1           0       -0.410704   -0.753752   -0.901932
     29          1           0        1.200749    1.079674   -0.334608
     30          1           0        4.291699   -1.824414    0.323847
     31          1           0        2.690329   -3.667313   -0.241330
     32          7           0        3.760327    0.788033    0.352084
     33          8           0        4.908847    0.464996    0.647352
     34          8           0        3.337447    1.941399    0.312601
 ---------------------------------------------------------------------

 SCF Done:  E(RHF) =  -669.535267544     A.U. after   15 cycles
 E2 =    -0.2092717260D+01 EUMP2 =    -0.67162798480440D+03

 The electronic state is 1-A.
 Alpha  occ. eigenvalues --  -20.60746 -20.60741 -15.85799 -11.31164 -11.27746
 Alpha  occ. eigenvalues --  -11.27710 -11.27488 -11.26762 -11.26728 -11.22349
 Alpha  occ. eigenvalues --  -11.22336 -11.22276 -11.22139 -11.21699 -11.21685
 Alpha  occ. eigenvalues --   -1.59821  -1.39374  -1.19343  -1.09234  -1.08738
 Alpha  occ. eigenvalues --   -1.04755  -1.04246  -0.96695  -0.95571  -0.87701
 Alpha  occ. eigenvalues --   -0.86144  -0.82408  -0.80300  -0.79040  -0.77457
 Alpha  occ. eigenvalues --   -0.72018  -0.71144  -0.70462  -0.65989  -0.64993
 Alpha  occ. eigenvalues --   -0.64723  -0.62279  -0.61434  -0.60037  -0.58285
 Alpha  occ. eigenvalues --   -0.56036  -0.55244  -0.53332  -0.53132  -0.53076
 Alpha  occ. eigenvalues --   -0.52798  -0.50622  -0.48780  -0.48773  -0.48599
 Alpha  occ. eigenvalues --   -0.47367  -0.46570  -0.46507  -0.44779  -0.44509
 Alpha  occ. eigenvalues --   -0.37328  -0.36343
 Alpha virt. eigenvalues --    0.05058   0.11280   0.16482   0.18270   0.22721
 Alpha virt. eigenvalues --    0.23466   0.25048   0.26116   0.26739   0.28649
 Alpha virt. eigenvalues --    0.29909   0.30787   0.31122   0.31315   0.31908

 Mulliken charges:
               1
     1  C   -0.301939
     2  C   -0.305747
     3  C   -0.480221
     4  H    0.140339
     5  H    0.155433
     6  H    0.151602
     7  H    0.158281
     8  H    0.159764
     9  H    0.148317
    10  H    0.171209
    11  C   -0.300223
    12  C   -0.299008
    13  C   -0.476038
    14  H    0.148910
    15  H    0.154408
    16  H    0.146142
    17  H    0.154895
    18  H    0.157948
    19  H    0.154543
    20  H    0.161746
    21  C   -0.172581
    22  C   -0.227114
    23  C   -0.180472
    24  C    0.159055
    25  C   -0.170473
    26  C   -0.218718
    27  H    0.225978
    28  H    0.233681
    29  H    0.284230
    30  H    0.275568
    31  H    0.223392
    32  N    0.487910
    33  O   -0.460621
    34  O   -0.460198
 Sum of Mulliken charges =  -0.00000

 Dipole moment (field-independent basis, Debye):
    X=             -3.5157    Y=             -3.6730    Z=             -1.0938  Tot=              5.2007
 Quadrupole moment (field-independent basis, Debye-Ang):
   XX=           -110.2289   YY=            -89.9722   ZZ=            -95.9064
   XY=            -13.9398   XZ=             -2.6921   YZ=              0.2199

 Normal termination of Gaussian 16 at Wed May  5 22:01:08 2021.
