 Gaussian 16, Revision A.03,
 Gaussian 16:  EM64L-G16RevA.03 25-Dec-2016

 -------------
 #p 6-31g* mp2
 -------------

 ------------------------------------------------------
 Input file generated by CHIRIPA (05-May-2021 14:55:23)
 ------------------------------------------------------
 Symbolic Z-matrix:
 Charge =  0 Multiplicity = 1

                         Standard orientation:
 ---------------------------------------------------------------------
 Center     Atomic      Atomic             Coordinates (Angstroms)
 Number     Number       Type             X           Y           Z
 ---------------------------------------------------------------------
      1          6           0       -2.353768    2.262089   -0.334791
      2          6           0       -1.447327    1.234339   -0.054409
      3          6           0       -1.894113   -0.079260    0.117023
      4          6           0       -3.260349   -0.330566    0.000683
      5          6           0       -4.188202    0.671823   -0.277878
      6          6           0       -3.718906    1.978052   -0.445436
      7          1           0       -1.997951    3.279661   -0.466459
      8          1           0       -0.386577    1.451995    0.032084
      9          1           0       -1.214209   -0.893955    0.334783
     10          1           0       -5.239650    0.423970   -0.358151
     11          1           0       -4.425149    2.774220   -0.663111
     12          7           0       -3.745257   -1.717313    0.180119
     13          8           0       -4.953943   -1.912641    0.072602
     14          8           0       -2.907459   -2.582658    0.424881
     15          6           0        3.490511    0.572544    0.263223
     16          6           0        3.750603    2.065658    0.060866
     17          6           0        2.580301    2.936878    0.518210
     18          1           0        2.582687    0.287274   -0.285798
     19          1           0        3.285237    0.383969    1.326094
     20          1           0        3.956689    2.251153   -1.001083
     21          1           0        4.658020    2.347366    0.610277
     22          1           0        2.376997    2.781102    1.582636
     23          1           0        1.671681    2.684341   -0.037878
     24          1           0        2.787530    4.000500    0.364507
     25          6           0        4.651391   -0.311390   -0.189263
     26          6           0        4.391299   -1.804504    0.013094
     27          6           0        5.561600   -2.675725   -0.444250
     28          1           0        4.856665   -0.122815   -1.252134
     29          1           0        5.559215   -0.026122    0.359758
     30          1           0        3.483882   -2.086213   -0.536316
     31          1           0        4.185213   -1.989999    1.075043
     32          1           0        6.470221   -2.423188    0.111838
     33          1           0        5.764905   -2.519948   -1.508676
     34          1           0        5.354371   -3.739347   -0.290548
 ---------------------------------------------------------------------

 SCF Done:  E(RHF) =  -669.535588042     A.U. after   15 cycles
 E2 =    -0.2091015361D+01 EUMP2 =    -0.67162660340288D+03

 The electronic state is 1-A.
 Alpha  occ. eigenvalues --  -20.60720 -20.60715 -15.85773 -11.31127 -11.27698
 Alpha  occ. eigenvalues --  -11.27684 -11.27430 -11.26713 -11.26667 -11.22410
 Alpha  occ. eigenvalues --  -11.22176 -11.22136 -11.21953 -11.21867 -11.21307
 Alpha  occ. eigenvalues --   -1.59796  -1.39350  -1.19297  -1.09056  -1.08695
 Alpha  occ. eigenvalues --   -1.04699  -1.04147  -0.96622  -0.95532  -0.87642
 Alpha  occ. eigenvalues --   -0.86099  -0.82364  -0.80230  -0.78837  -0.77413
 Alpha  occ. eigenvalues --   -0.71992  -0.71119  -0.70406  -0.65696  -0.64949
 Alpha  occ. eigenvalues --   -0.64717  -0.62091  -0.61508  -0.60001  -0.58209
 Alpha  occ. eigenvalues --   -0.55933  -0.55197  -0.53300  -0.53132  -0.53030
 Alpha  occ. eigenvalues --   -0.52716  -0.50563  -0.48765  -0.48747  -0.48513
 Alpha  occ. eigenvalues --   -0.47249  -0.46383  -0.46273  -0.44758  -0.44392
 Alpha  occ. eigenvalues --   -0.37280  -0.36302
 Alpha virt. eigenvalues --    0.05119   0.11346   0.16611   0.19291   0.22629
 Alpha virt. eigenvalues --    0.23700   0.25242   0.26449   0.26776   0.28392
 Alpha virt. eigenvalues --    0.28960   0.30339   0.31127   0.31419   0.31812

 Mulliken charges:
               1
     1  C   -0.173164
     2  C   -0.227104
     3  C   -0.173143
     4  C    0.159008
     5  C   -0.171402
     6  C   -0.218555
     7  H    0.225641
     8  H    0.235582
     9  H    0.276169
    10  H    0.275354
    11  H    0.223166
    12  N    0.487967
    13  O   -0.460696
    14  O   -0.460519
    15  C   -0.299392
    16  C   -0.299643
    17  C   -0.480627
    18  H    0.143888
    19  H    0.151116
    20  H    0.154253
    21  H    0.156175
    22  H    0.158373
    23  H    0.145984
    24  H    0.164536
    25  C   -0.298697
    26  C   -0.300551
    27  C   -0.476232
    28  H    0.150792
    29  H    0.151511
    30  H    0.152778
    31  H    0.153223
    32  H    0.155519
    33  H    0.155662
    34  H    0.163030
 Sum of Mulliken charges =  -0.00000

 Dipole moment (field-independent basis, Debye):
    X=              1.9474    Y=              4.8763    Z=             -0.6080  Tot=              5.2859
 Quadrupole moment (field-independent basis, Debye-Ang):
   XX=           -101.0283   YY=            -98.4344   ZZ=            -94.6859
   XY=            -17.6882   XZ=              3.6328   YZ=             -0.1974

 Normal termination of Gaussian 16 at Wed May  5 23:56:49 2021.
