 Gaussian 16, Revision A.03,
 Gaussian 16:  EM64L-G16RevA.03 25-Dec-2016

 -------------
 #p 6-31g* mp2
 -------------

 ------------------------------------------------------
 Input file generated by CHIRIPA (05-May-2021 14:51:08)
 ------------------------------------------------------
 Symbolic Z-matrix:
 Charge =  0 Multiplicity = 1

                         Standard orientation:
 ---------------------------------------------------------------------
 Center     Atomic      Atomic             Coordinates (Angstroms)
 Number     Number       Type             X           Y           Z
 ---------------------------------------------------------------------
      1          6           0       -2.586972   -0.862555   -0.449755
      2          6           0       -3.369439    0.347675    0.061198
      3          6           0       -4.379418    0.872576   -0.959692
      4          1           0       -2.064883   -0.588851   -1.376822
      5          1           0       -3.292964   -1.662331   -0.713060
      6          1           0       -2.662100    1.144431    0.324764
      7          1           0       -3.889572    0.071113    0.987260
      8          1           0       -5.107491    0.096041   -1.215630
      9          1           0       -3.873045    1.175457   -1.881891
     10          1           0       -4.927620    1.737695   -0.573813
     11          6           0       -1.573347   -1.398749    0.559595
     12          6           0       -0.790880   -2.608980    0.048642
     13          6           0        0.219099   -3.133880    1.069532
     14          1           0       -0.867355   -0.598974    0.822900
     15          1           0       -2.095436   -1.672454    1.486663
     16          1           0       -0.270747   -2.332418   -0.877420
     17          1           0       -1.498219   -3.405735   -0.214924
     18          1           0       -0.287274   -3.436762    1.991731
     19          1           0        0.947172   -2.357346    1.325471
     20          1           0        0.767301   -3.998999    0.683653
     21          6           0        2.309058    0.556267   -0.503383
     22          6           0        3.646754   -0.049606   -0.077388
     23          6           0        4.091329   -1.197547   -0.984239
     24          1           0        1.541653   -0.229884   -0.505057
     25          1           0        2.390391    0.915878   -1.538497
     26          1           0        3.563338   -0.406718    0.957082
     27          1           0        4.411023    0.738118   -0.076543
     28          1           0        4.202430   -0.851739   -2.017038
     29          1           0        3.349929   -2.003079   -0.977540
     30          1           0        5.049817   -1.615951   -0.661596
     31          6           0        1.851261    1.705038    0.393543
     32          6           0        0.513565    2.310911   -0.032452
     33          6           0        0.068990    3.458852    0.874398
     34          1           0        1.769928    1.345426    1.428657
     35          1           0        2.618666    2.491188    0.395216
     36          1           0       -0.250704    1.523187   -0.033297
     37          1           0        0.596981    2.668023   -1.066922
     38          1           0        0.810390    4.264384    0.867699
     39          1           0       -0.042111    3.113044    1.907198
     40          1           0       -0.889498    3.877256    0.551755
 ---------------------------------------------------------------------

 SCF Done:  E(RHF) =  -470.732616279     A.U. after   11 cycles
 E2 =    -0.1585628819D+01 EUMP2 =    -0.47231824509794D+03

 The electronic state is 1-A.
 Alpha  occ. eigenvalues --  -11.21671 -11.21640 -11.21635 -11.21608 -11.21461
 Alpha  occ. eigenvalues --  -11.21450 -11.21401 -11.21388 -11.21154 -11.21124
 Alpha  occ. eigenvalues --  -11.21083 -11.21078  -1.08559  -1.08420  -1.03615
 Alpha  occ. eigenvalues --   -1.03542  -0.96032  -0.96022  -0.87044  -0.87039
 Alpha  occ. eigenvalues --   -0.79655  -0.79638  -0.78395  -0.78219  -0.65631
 Alpha  occ. eigenvalues --   -0.64669  -0.61233  -0.60763  -0.59419  -0.59359
 Alpha  occ. eigenvalues --   -0.57641  -0.57627  -0.55331  -0.55300  -0.52726
 Alpha  occ. eigenvalues --   -0.52708  -0.52477  -0.52422  -0.49972  -0.49966
 Alpha  occ. eigenvalues --   -0.48030  -0.47903  -0.46835  -0.46677  -0.46209
 Alpha  occ. eigenvalues --   -0.45807  -0.45759  -0.45170  -0.43829  -0.43828
 Alpha virt. eigenvalues --    0.18738   0.21410   0.23389   0.25064   0.26129
 Alpha virt. eigenvalues --    0.26374   0.26602   0.27701   0.28529   0.30318
 Alpha virt. eigenvalues --    0.31023   0.31401   0.31538   0.31852   0.32393

 Mulliken charges:
               1
     1  C   -0.298836
     2  C   -0.305073
     3  C   -0.475543
     4  H    0.150412
     5  H    0.150179
     6  H    0.156938
     7  H    0.152030
     8  H    0.155178
     9  H    0.155460
    10  H    0.160255
    11  C   -0.304911
    12  C   -0.301337
    13  C   -0.478280
    14  H    0.153981
    15  H    0.150281
    16  H    0.152985
    17  H    0.152925
    18  H    0.155758
    19  H    0.156389
    20  H    0.160789
    21  C   -0.305727
    22  C   -0.299662
    23  C   -0.476863
    24  H    0.155918
    25  H    0.149759
    26  H    0.152135
    27  H    0.152251
    28  H    0.155033
    29  H    0.156559
    30  H    0.160512
    31  C   -0.297757
    32  C   -0.310758
    33  C   -0.475887
    34  H    0.149263
    35  H    0.150320
    36  H    0.161455
    37  H    0.152142
    38  H    0.155665
    39  H    0.155458
    40  H    0.160607
 Sum of Mulliken charges =  -0.00000

 Dipole moment (field-independent basis, Debye):
    X=             -0.0077    Y=             -0.0029    Z=             -0.0007  Tot=              0.0082
 Quadrupole moment (field-independent basis, Debye-Ang):
   XX=            -84.8024   YY=            -84.8499   ZZ=            -84.9832
   XY=              1.5562   XZ=             -0.8078   YZ=             -0.8045

 Normal termination of Gaussian 16 at Wed May  5 16:36:30 2021.
