 Gaussian 16, Revision A.03,
 Gaussian 16:  EM64L-G16RevA.03 25-Dec-2016

 -------------
 #p 6-31g* mp2
 -------------

 ------------------------------------------------------
 Input file generated by CHIRIPA (05-May-2021 14:57:23)
 ------------------------------------------------------
 Symbolic Z-matrix:
 Charge =  0 Multiplicity = 1

                         Standard orientation:
 ---------------------------------------------------------------------
 Center     Atomic      Atomic             Coordinates (Angstroms)
 Number     Number       Type             X           Y           Z
 ---------------------------------------------------------------------
      1          6           0        0.398406   -0.132279   -1.381685
      2          6           0        1.261209    0.961390   -1.508090
      3          6           0        2.548687    0.916532   -0.965010
      4          6           0        2.942355   -0.243065   -0.298940
      5          6           0        2.105881   -1.349092   -0.156438
      6          6           0        0.822747   -1.282003   -0.707451
      7          1           0       -0.600050   -0.088798   -1.806644
      8          1           0        0.934353    1.855585   -2.031183
      9          1           0        3.237074    1.748765   -1.048254
     10          1           0        2.460081   -2.226728    0.370549
     11          1           0        0.154825   -2.132876   -0.607752
     12          7           0        4.303051   -0.302322    0.280194
     13          8           0        4.625918   -1.335530    0.862325
     14          8           0        5.020932    0.685562    0.141023
     15          6           0       -4.463039   -1.337958   -0.528786
     16          6           0       -3.652844   -1.740466    0.538029
     17          6           0       -2.682766   -0.878163    1.057579
     18          6           0       -2.549401    0.385203    0.483637
     19          6           0       -3.341388    0.815324   -0.579869
     20          6           0       -4.305003   -0.063595   -1.083351
     21          1           0       -5.214110   -2.014268   -0.926144
     22          1           0       -3.773349   -2.729569    0.970693
     23          1           0       -2.042102   -1.164101    1.882932
     24          1           0       -3.197786    1.807464   -0.990299
     25          1           0       -4.932803    0.251690   -1.911910
     26          7           0       -1.525844    1.306879    1.025157
     27          8           0       -1.428171    2.414711    0.501894
     28          8           0       -0.840634    0.904003    1.962609
 ---------------------------------------------------------------------

 SCF Done:  E(RHF) =  -868.336818666     A.U. after   16 cycles
 E2 =    -0.2604530579D+01 EUMP2 =    -0.87094134924535D+03

 The electronic state is 1-A.
 Alpha  occ. eigenvalues --  -20.61522 -20.61466 -20.60205 -20.60193 -15.86526
 Alpha  occ. eigenvalues --  -15.85251 -11.32121 -11.30583 -11.28709 -11.28661
 Alpha  occ. eigenvalues --  -11.28420 -11.27765 -11.27732 -11.27173 -11.27077
 Alpha  occ. eigenvalues --  -11.26872 -11.26274 -11.26118  -1.60545  -1.59272
 Alpha  occ. eigenvalues --   -1.40101  -1.38829  -1.20328  -1.18745  -1.09654
 Alpha  occ. eigenvalues --   -1.08182  -1.05743  -1.04146  -0.96451  -0.95026
 Alpha  occ. eigenvalues --   -0.87109  -0.85566  -0.83277  -0.81857  -0.78302
 Alpha  occ. eigenvalues --   -0.76883  -0.72761  -0.71962  -0.71481  -0.71364
 Alpha  occ. eigenvalues --   -0.70581  -0.69892  -0.65941  -0.65699  -0.64425
 Alpha  occ. eigenvalues --   -0.64186  -0.63061  -0.61509  -0.56175  -0.54958
 Alpha  occ. eigenvalues --   -0.53865  -0.53792  -0.52435  -0.52264  -0.49535
 Alpha  occ. eigenvalues --   -0.49506  -0.48236  -0.48230  -0.45473  -0.44243
 Alpha  occ. eigenvalues --   -0.38382  -0.37400  -0.36642  -0.35660
 Alpha virt. eigenvalues --    0.04073   0.05737   0.10098   0.12017   0.15678
 Alpha virt. eigenvalues --    0.17129   0.20514   0.21917   0.26343   0.27464
 Alpha virt. eigenvalues --    0.27853   0.28592   0.30219   0.31316   0.31815

 Mulliken charges:
               1
     1  C   -0.189021
     2  C   -0.206360
     3  C   -0.167710
     4  C    0.161701
     5  C   -0.168340
     6  C   -0.215606
     7  H    0.224409
     8  H    0.226295
     9  H    0.275871
    10  H    0.272474
    11  H    0.216401
    12  N    0.488266
    13  O   -0.462656
    14  O   -0.460133
    15  C   -0.172006
    16  C   -0.220649
    17  C   -0.174471
    18  C    0.155742
    19  C   -0.180598
    20  C   -0.218688
    21  H    0.228909
    22  H    0.226668
    23  H    0.278995
    24  H    0.275899
    25  H    0.226414
    26  N    0.493751
    27  O   -0.463174
    28  O   -0.452381
 Sum of Mulliken charges =  -0.00000

 Dipole moment (field-independent basis, Debye):
    X=             -8.4591    Y=             -2.8961    Z=             -3.7817  Tot=              9.7080
 Quadrupole moment (field-independent basis, Debye-Ang):
   XX=           -114.9845   YY=           -101.2041   ZZ=           -103.7305
   XY=              9.2110   XZ=             -0.7910   YZ=             -6.4882

 Normal termination of Gaussian 16 at Thu May  6 12:58:39 2021.
