 Gaussian 16, Revision A.03,
 Gaussian 16:  EM64L-G16RevA.03 25-Dec-2016

 -------------
 #p 6-31g* mp2
 -------------

 ------------------------------------------------------
 Input file generated by CHIRIPA (05-May-2021 14:53:12)
 ------------------------------------------------------
 Symbolic Z-matrix:
 Charge =  0 Multiplicity = 1

                         Standard orientation:
 ---------------------------------------------------------------------
 Center     Atomic      Atomic             Coordinates (Angstroms)
 Number     Number       Type             X           Y           Z
 ---------------------------------------------------------------------
      1          6           0       -2.814633    0.762340    0.490149
      2          6           0       -3.109122    2.260684    0.411243
      3          6           0       -2.125487    3.100234    1.226970
      4          1           0       -2.842907    0.444430    1.541376
      5          1           0       -1.791260    0.577689    0.135175
      6          1           0       -4.132118    2.442289    0.764959
      7          1           0       -3.080333    2.575025   -0.639936
      8          1           0       -1.101517    2.948439    0.870536
      9          1           0       -2.159279    2.814949    2.283413
     10          1           0       -2.354453    4.168158    1.156452
     11          6           0       -3.789463   -0.090158   -0.320210
     12          6           0       -3.494973   -1.588502   -0.241304
     13          6           0       -4.478608   -2.428053   -1.057032
     14          1           0       -4.812836    0.094492    0.034764
     15          1           0       -3.761189    0.227751   -1.371438
     16          1           0       -3.523762   -1.902844    0.809875
     17          1           0       -2.471977   -1.770107   -0.595020
     18          1           0       -4.444817   -2.142767   -2.113475
     19          1           0       -5.502578   -2.276258   -0.700598
     20          1           0       -4.249642   -3.495977   -0.986514
     21          6           0        3.138401    2.006487   -1.017793
     22          6           0        4.158222    1.178563   -0.537139
     23          6           0        3.860310   -0.080654   -0.007829
     24          6           0        2.525714   -0.481935    0.025597
     25          6           0        1.487387    0.320075   -0.445514
     26          6           0        1.808582    1.575360   -0.970529
     27          1           0        3.378870    2.983150   -1.427305
     28          1           0        5.191871    1.510768   -0.572581
     29          1           0        4.630186   -0.741785    0.371137
     30          1           0        0.466413   -0.038624   -0.396869
     31          1           0        1.014517    2.216222   -1.343091
     32          7           0        2.198003   -1.812931    0.583679
     33          8           0        1.014270   -2.143207    0.601886
     34          8           0        3.131081   -2.500685    0.992332
 ---------------------------------------------------------------------

 SCF Done:  E(RHF) =  -669.535566657     A.U. after   15 cycles
 E2 =    -0.2091994582D+01 EUMP2 =    -0.67162756123865D+03

 The electronic state is 1-A.
 Alpha  occ. eigenvalues --  -20.60786 -20.60779 -15.85835 -11.31201 -11.27781
 Alpha  occ. eigenvalues --  -11.27771 -11.27526 -11.26800 -11.26789 -11.21960
 Alpha  occ. eigenvalues --  -11.21673 -11.21506 -11.21420 -11.21292 -11.20807
 Alpha  occ. eigenvalues --   -1.59857  -1.39411  -1.19382  -1.08775  -1.08558
 Alpha  occ. eigenvalues --   -1.04789  -1.03599  -0.96080  -0.95609  -0.87095
 Alpha  occ. eigenvalues --   -0.86185  -0.82443  -0.79679  -0.78329  -0.77477
 Alpha  occ. eigenvalues --   -0.72054  -0.71179  -0.70499  -0.65243  -0.65032
 Alpha  occ. eigenvalues --   -0.64783  -0.62144  -0.60995  -0.59457  -0.57657
 Alpha  occ. eigenvalues --   -0.55421  -0.55273  -0.53112  -0.52917  -0.52744
 Alpha  occ. eigenvalues --   -0.52463  -0.50038  -0.48814  -0.48810  -0.47978
 Alpha  occ. eigenvalues --   -0.46737  -0.45847  -0.45764  -0.44815  -0.43871
 Alpha  occ. eigenvalues --   -0.37360  -0.36384
 Alpha virt. eigenvalues --    0.05027   0.11244   0.16440   0.19192   0.23099
 Alpha virt. eigenvalues --    0.23772   0.24708   0.26805   0.27185   0.28252
 Alpha virt. eigenvalues --    0.29456   0.31069   0.31541   0.31993   0.32384

 Mulliken charges:
               1
     1  C   -0.300877
     2  C   -0.300092
     3  C   -0.475884
     4  H    0.156258
     5  H    0.142010
     6  H    0.155164
     7  H    0.148290
     8  H    0.148136
     9  H    0.159706
    10  H    0.160453
    11  C   -0.298651
    12  C   -0.301686
    13  C   -0.476187
    14  H    0.150304
    15  H    0.146504
    16  H    0.156302
    17  H    0.159182
    18  H    0.152798
    19  H    0.153613
    20  H    0.164060
    21  C   -0.170512
    22  C   -0.218910
    23  C   -0.169899
    24  C    0.159285
    25  C   -0.180428
    26  C   -0.223008
    27  H    0.225911
    28  H    0.223635
    29  H    0.275758
    30  H    0.288124
    31  H    0.224265
    32  N    0.487207
    33  O   -0.460572
    34  O   -0.460258
 Sum of Mulliken charges =  -0.00000

 Dipole moment (field-independent basis, Debye):
    X=              1.1043    Y=              4.5797    Z=             -1.8733  Tot=              5.0698
 Quadrupole moment (field-independent basis, Debye-Ang):
   XX=            -83.8717   YY=           -100.3033   ZZ=            -95.0826
   XY=             10.3352   XZ=             -5.2132   YZ=              0.4106

 Normal termination of Gaussian 16 at Thu May  6 02:33:41 2021.
