 Gaussian 16, Revision A.03,
 Gaussian 16:  EM64L-G16RevA.03 25-Dec-2016

 -------------
 #p 6-31g* mp2
 -------------

 ------------------------------------------------------
 Input file generated by CHIRIPA (05-May-2021 14:57:21)
 ------------------------------------------------------
 Symbolic Z-matrix:
 Charge =  0 Multiplicity = 1

                         Standard orientation:
 ---------------------------------------------------------------------
 Center     Atomic      Atomic             Coordinates (Angstroms)
 Number     Number       Type             X           Y           Z
 ---------------------------------------------------------------------
      1          6           0       -5.232256   -0.616599   -1.409307
      2          6           0       -4.900369    0.707444   -1.103885
      3          6           0       -3.842363    0.991989   -0.235436
      4          6           0       -3.134289   -0.076700    0.312127
      5          6           0       -3.440701   -1.406461    0.027280
      6          6           0       -4.502649   -1.667473   -0.843747
      7          1           0       -6.055672   -0.828500   -2.084940
      8          1           0       -5.465248    1.525571   -1.541634
      9          1           0       -3.564025    2.007680    0.018176
     10          1           0       -2.859229   -2.200885    0.479163
     11          1           0       -4.758153   -2.696721   -1.079143
     12          7           0       -2.012139    0.212078    1.232879
     13          8           0       -1.403837   -0.747275    1.702185
     14          8           0       -1.762147    1.392308    1.467825
     15          6           0        4.625937   -2.033482   -0.209861
     16          6           0        5.079274   -0.923909   -0.930871
     17          6           0        4.363333    0.276746   -0.910732
     18          6           0        3.192906    0.332901   -0.155591
     19          6           0        2.715431   -0.755224    0.573306
     20          6           0        3.447540   -1.945753    0.538607
     21          1           0        5.188378   -2.962246   -0.231161
     22          1           0        5.994096   -0.989149   -1.513012
     23          1           0        4.691521    1.151068   -1.459615
     24          1           0        1.799943   -0.659731    1.144430
     25          1           0        3.093086   -2.805855    1.099527
     26          7           0        2.426413    1.598620   -0.126564
     27          8           0        1.398260    1.622378    0.546469
     28          8           0        2.868303    2.542967   -0.777395
 ---------------------------------------------------------------------

 SCF Done:  E(RHF) =  -868.337575261     A.U. after   16 cycles
 E2 =    -0.2600380256D+01 EUMP2 =    -0.87093795551703D+03

 The electronic state is 1-A.
 Alpha  occ. eigenvalues --  -20.60383 -20.60213 -20.59741 -20.59655 -15.85324
 Alpha  occ. eigenvalues --  -15.84742 -11.30839 -11.30271 -11.27468 -11.27377
 Alpha  occ. eigenvalues --  -11.27205 -11.26952 -11.26730 -11.26722 -11.26504
 Alpha  occ. eigenvalues --  -11.26446 -11.26006 -11.25901  -1.59327  -1.58793
 Alpha  occ. eigenvalues --   -1.38888  -1.38329  -1.19023  -1.18489  -1.08392
 Alpha  occ. eigenvalues --   -1.07872  -1.04451  -1.03902  -0.95205  -0.94658
 Alpha  occ. eigenvalues --   -0.85843  -0.85298  -0.82041  -0.81473  -0.77062
 Alpha  occ. eigenvalues --   -0.76482  -0.71567  -0.71024  -0.70537  -0.70138
 Alpha  occ. eigenvalues --   -0.70130  -0.69591  -0.64680  -0.64460  -0.64129
 Alpha  occ. eigenvalues --   -0.63912  -0.61797  -0.61214  -0.54954  -0.54440
 Alpha  occ. eigenvalues --   -0.52769  -0.52548  -0.52255  -0.51986  -0.48338
 Alpha  occ. eigenvalues --   -0.48282  -0.47751  -0.47678  -0.44257  -0.43687
 Alpha  occ. eigenvalues --   -0.37013  -0.36524  -0.36060  -0.35523
 Alpha virt. eigenvalues --    0.05458   0.06029   0.11593   0.12120   0.16909
 Alpha virt. eigenvalues --    0.17461   0.21680   0.22266   0.27589   0.28138
 Alpha virt. eigenvalues --    0.28578   0.29254   0.31198   0.31773   0.32842

 Mulliken charges:
               1
     1  C   -0.171318
     2  C   -0.218650
     3  C   -0.169658
     4  C    0.159547
     5  C   -0.171800
     6  C   -0.218576
     7  H    0.224277
     8  H    0.223479
     9  H    0.279352
    10  H    0.271705
    11  H    0.221143
    12  N    0.490102
    13  O   -0.474475
    14  O   -0.441431
    15  C   -0.171679
    16  C   -0.219631
    17  C   -0.171932
    18  C    0.155668
    19  C   -0.177878
    20  C   -0.221022
    21  H    0.221873
    22  H    0.219669
    23  H    0.272837
    24  H    0.294940
    25  H    0.223005
    26  N    0.486309
    27  O   -0.447483
    28  O   -0.468373
 Sum of Mulliken charges =  -0.00000

 Dipole moment (field-independent basis, Debye):
    X=             -1.5577    Y=             -5.1973    Z=             -3.1511  Tot=              6.2744
 Quadrupole moment (field-independent basis, Debye-Ang):
   XX=            -63.2609   YY=           -102.7117   ZZ=           -106.3604
   XY=             -9.8040   XZ=              6.5069   YZ=             -1.1564

 Normal termination of Gaussian 16 at Thu May  6 14:28:19 2021.
